Title
81404
    1CHL1    C3    1   1.499   4.224  10.246  0.3963  0.0655  0.5034
    1CHL1    H3    2   1.583   4.290  10.218 -0.4564  0.8222 -0.3248
    1CHL1    O3    3   1.472   4.242  10.383 -0.1266  0.7968 -0.2727
    1CHL1   H3'    4   1.421   4.171  10.422  1.9244 -0.8815 -0.4491
    1CHL1    C4    5   1.364   4.246  10.171  0.4324 -0.4675  0.8272
    1CHL1   H4A    6   1.284   4.186  10.221  0.0830  0.0531  0.8944
    1CHL1   H4B    7   1.335   4.351  10.192 -0.6084 -0.7530  0.8818
    1CHL1    C5    8   1.384   4.228  10.023 -0.3013  0.2680 -0.5190
    1CHL1    C6    9   1.373   4.332   9.933 -1.1824 -0.2348 -0.2947
    1CHL1    H6   10   1.342   4.434   9.960 -2.3623 -0.1399 -1.8821
    1CHL1    C7   11   1.383   4.323   9.780  0.3997  0.6756 -0.2291
    1CHL1   H7A   12   1.298   4.374   9.729 -3.1777 -2.5890  1.9291
    1CHL1   H7B   13   1.482   4.359   9.745  1.7461 -1.6185  0.9839
    1CHL1    C8   14   1.377   4.172   9.735  0.0450 -0.0516  0.2971
    1CHL1    H8   15   1.273   4.133   9.731  0.6159 -1.7615  1.1451
    1CHL1   C14   16   1.431   4.179   9.588 -0.6259 -0.9146 -0.0283
    1CHL1   H14   17   1.532   4.223   9.605 -0.6193 -1.0339  0.2418
    1CHL1   C15   18   1.360   4.268   9.487 -0.2912 -0.7759 -1.0628
    1CHL1  H15A   19   1.250   4.251   9.493  0.0593 -3.2909 -0.6613
    1CHL1  H15B   20   1.387   4.375   9.493 -3.2118  0.0790 -1.5902
    1CHL1   C16   21   1.408   4.216   9.356  0.4791 -0.0396 -0.0771
    1CHL1  H16A   22   1.321   4.218   9.288 -0.0365  0.8658  0.5896
    1CHL1  H16B   23   1.480   4.290   9.316 -0.2927  1.1989  0.7536
    1CHL1   C17   24   1.475   4.078   9.375  0.5023  0.3080  0.2525
    1CHL1   H17   25   1.583   4.104   9.365  0.3973  1.1926  1.2313
    1CHL1   C13   26   1.435   4.045   9.522 -0.1769 -0.6229 -0.4696
    1CHL1   C18   27   1.295   3.986   9.520  0.6485  0.8171  0.1828
    1CHL1  H18A   28   1.307   3.900   9.450  1.2243  2.1256 -1.3667
    1CHL1  H18B   29   1.266   3.953   9.622  0.8349  0.5327  0.1458
    1CHL1  H18C   30   1.219   4.049   9.470  2.4020  2.9894  0.1299
    1CHL1   C12   31   1.539   3.966   9.605 -0.4869 -0.2614  0.1631
    1CHL1  H12A   32   1.563   3.870   9.554  0.8511  0.1450 -0.0204
    1CHL1  H12B   33   1.639   4.014   9.610  0.0302 -1.3389  0.7320
    1CHL1   C11   34   1.493   3.954   9.751  0.1132 -0.4385 -0.4935
    1CHL1  H11A   35   1.402   3.890   9.752 -0.0434 -0.2398  1.1186
    1CHL1  H11B   36   1.582   3.909   9.799  0.7622  0.2318 -1.0474
    1CHL1    C9   37   1.469   4.091   9.822  0.1709  0.2191 -0.0823
    1CHL1    H9   38   1.572   4.131   9.812 -0.6352  2.1546 -1.1379
    1CHL1   C10   39   1.432   4.086   9.978  0.2126  0.0312 -0.3540
    1CHL1   C19   40   1.330   3.979  10.000 -0.5207 -0.1626 -0.2010
    1CHL1  H19A   41   1.379   3.880   9.986  0.6253  0.5735 -1.5589
    1CHL1  H19B   42   1.291   3.990  10.104  2.9308 -1.1876  1.3309
    1CHL1  H19C   43   1.256   3.987   9.917 -0.0083 -1.4296 -0.8055
    1CHL1    C1   44   1.561   4.059  10.066 -0.4772  0.6784  0.9703
    1CHL1   H1A   45   1.598   3.955  10.064 -1.0415  0.4881 -0.1171
    1CHL1   H1B   46   1.637   4.131  10.029 -2.5106  1.5983 -1.7468
    1CHL1    C2   47   1.539   4.086  10.213 -0.4745 -0.1999  0.2195
    1CHL1   H2A   48   1.625   4.056  10.277 -0.5730  0.2763  0.5792
    1CHL1   H2B   49   1.450   4.033  10.253 -0.7640  1.0663  1.3314
    1CHL1   C20   50   1.455   3.984   9.256 -0.6286 -0.1003 -0.2013
    1CHL1   H20   51   1.346   3.967   9.244 -0.3595 -0.9208 -1.8967
    1CHL1   C21   52   1.529   3.848   9.277  0.6363 -0.3466  0.5433
    1CHL1  H21A   53   1.495   3.802   9.372 -0.1959 -0.8598  0.0045
    1CHL1  H21B   54   1.638   3.865   9.289  0.5512 -0.6502  1.9906
    1CHL1  H21C   55   1.511   3.772   9.198 -3.5169 -0.2408  1.1751
    1CHL1   C22   56   1.485   4.043   9.118  1.2631  0.1117 -0.6437
    1CHL1  H22A   57   1.430   4.140   9.119 -0.8120 -0.9653  1.7161
    1CHL1  H22B   58   1.594   4.060   9.105  1.0577  1.2818 -1.0273
    1CHL1   C23   59   1.438   3.968   8.989 -0.0724 -1.0087  0.8240
    1CHL1  H23A   60   1.468   3.861   8.990 -0.1458 -1.0706 -0.6746
    1CHL1  H23B   61   1.327   3.963   9.002 -0.3474 -4.1943 -1.4343
    1CHL1   C24   62   1.474   4.041   8.850 -0.0639  0.0014  0.9647
    1CHL1  H24A   63   1.419   4.137   8.850  1.3662  0.8494  0.4269
    1CHL1  H24B   64   1.583   4.059   8.848  0.0117 -0.1631 -2.3841
    1CHL1   C25   65   1.440   3.958   8.727  0.4400 -0.0706  0.0774
    1CHL1   H25   66   1.481   3.855   8.734  2.1586  0.4174 -1.8367
    1CHL1   C26   67   1.287   3.958   8.704 -0.2788 -0.0171 -0.5906
    1CHL1  H26A   68   1.257   4.065   8.702 -0.8945 -0.1700  0.0187
    1CHL1  H26B   69   1.257   3.903   8.612 -2.4499 -2.2202  1.2932
    1CHL1  H26C   70   1.232   3.904   8.784  0.1670 -1.1587 -1.0220
    1CHL1   C27   71   1.507   4.022   8.602 -0.2241 -1.0860 -1.2444
    1CHL1  H27A   72   1.615   4.035   8.623 -0.1553 -0.8589 -1.7145
    1CHL1  H27B   73   1.500   3.962   8.509  3.4635  0.8388 -2.9950
    1CHL1  H27C   74   1.459   4.122   8.589  0.3435 -0.3214  1.7850
    2CHL1    C3   75   2.622   2.123   9.946  0.5610  0.0690  0.1416
    2CHL1    H3   76   2.724   2.168   9.939  1.3608 -1.7725 -0.7777
    2CHL1    O3   77   2.578   2.130  10.080  0.1477 -0.2489 -0.1038
    2CHL1   H3'   78   2.538   2.044  10.089  2.4647 -1.7021 -2.2563
    2CHL1    C4   79   2.521   2.200   9.863  0.7818  0.4302 -0.5055
    2CHL1   H4A   80   2.426   2.145   9.883 -0.7396  2.5199 -1.5731
    2CHL1   H4B   81   2.526   2.309   9.886 -0.2083  0.5832 -0.9419
    2CHL1    C5   82   2.552   2.173   9.717 -0.5645  0.7739  0.3176
    2CHL1    C6   83   2.549   2.277   9.631 -0.0076  0.6331  0.2928
    2CHL1    H6   84   2.517   2.377   9.661 -2.2158 -0.3863  1.5592
    2CHL1    C7   85   2.569   2.260   9.487  0.4699  0.0422  0.7740
    2CHL1   H7A   86   2.502   2.320   9.421  2.4240  1.3763 -0.0962
    2CHL1   H7B   87   2.671   2.299   9.468  0.0144 -0.1475 -2.5575
    2CHL1    C8   88   2.564   2.115   9.436  0.6898 -0.2129 -0.2826
    2CHL1    H8   89   2.461   2.073   9.426  0.3153 -0.1210  2.4177
    2CHL1   C14   90   2.630   2.105   9.293 -0.1135  0.6869 -0.0484
    2CHL1   H14   91   2.739   2.123   9.308  0.5302 -1.0335 -2.2084
    2CHL1   C15   92   2.587   2.201   9.192  0.1552 -0.0769  0.6108
    2CHL1  H15A   93   2.479   2.217   9.177  0.5028  0.0321 -2.2833
    2CHL1  H15B   94   2.633   2.302   9.200  0.7318 -0.3321  0.6102
    2CHL1   C16   95   2.642   2.137   9.061 -0.2080  0.2396 -0.2948
    2CHL1  H16A   96   2.547   2.130   9.004 -1.5371  0.2484  1.8297
    2CHL1  H16B   97   2.717   2.209   9.022  2.3880 -1.9565  0.3583
    2CHL1   C17   98   2.699   1.998   9.100 -0.1047 -0.6705  0.1409
    2CHL1   H17   99   2.805   2.025   9.122  0.4392 -1.1671 -1.6414
    2CHL1   C13  100   2.628   1.970   9.226 -0.6547  0.4926  0.1402
    2CHL1   C18  101   2.478   1.928   9.198 -0.7000  0.0441  0.4457
    2CHL1  H18A  102   2.474   1.825   9.158 -2.3624 -0.0568  0.8058
    2CHL1  H18B  103   2.425   1.935   9.295 -1.3112  0.2540  0.1020
    2CHL1  H18C  104   2.424   2.003   9.136  0.1878  1.2681  1.1091
    2CHL1   C12  105   2.699   1.871   9.320 -0.4448  0.1309  0.2440
    2CHL1  H12A  106   2.668   1.767   9.295  1.8753 -0.0992 -2.1359
    2CHL1  H12B  107   2.808   1.888   9.326 -0.5078  0.5378  0.2709
    2CHL1   C11  108   2.660   1.879   9.470  0.3074  0.2773 -0.7301
    2CHL1  H11A  109   2.572   1.811   9.476  2.4365 -2.6133 -0.1902
    2CHL1  H11B  110   2.735   1.813   9.519  0.1013  1.4533  1.2920
    2CHL1    C9  111   2.635   2.018   9.531  0.5298 -0.6362  0.1477
    2CHL1    H9  112   2.739   2.058   9.528  0.8655 -1.5423 -1.1572
    2CHL1   C10  113   2.578   2.025   9.676 -0.0403 -0.2957  0.3503
    2CHL1   C19  114   2.449   1.949   9.682  0.0282  0.4686  0.8919
    2CHL1  H19A  115   2.414   1.931   9.786 -0.1321  1.8515  1.0923
    2CHL1  H19B  116   2.362   2.002   9.637  1.6825  2.1265 -0.5222
    2CHL1  H19C  117   2.455   1.852   9.629 -0.2855  0.8487  0.1563
    2CHL1    C1  118   2.682   1.959   9.773  0.6359  0.3067  0.2601
    2CHL1   H1A  119   2.707   1.853   9.752 -1.2872  0.0379 -0.8995
    2CHL1   H1B  120   2.777   2.016   9.764  1.1627 -0.1583  2.2693
    2CHL1    C2  121   2.644   1.981   9.919  0.1424  0.3617  1.0767
    2CHL1   H2A  122   2.717   1.934   9.988 -0.4459  0.4226  1.7511
    2CHL1   H2B  123   2.550   1.924   9.934 -0.0575 -0.1712 -1.7138
    2CHL1   C20  124   2.703   1.896   8.984 -0.0722  0.4242  0.3762
    2CHL1   H20  125   2.598   1.870   8.958 -0.7031  1.5179  1.7477
    2CHL1   C21  126   2.787   1.773   9.021 -0.2602  0.0889 -0.0723
    2CHL1  H21A  127   2.754   1.731   9.118 -2.6447  5.6068  1.8546
    2CHL1  H21B  128   2.893   1.798   9.043 -0.0770  0.6644 -1.5080
    2CHL1  H21C  129   2.777   1.692   8.945 -1.8620  0.1444  0.0522
    2CHL1   C22  130   2.770   1.970   8.851  0.1565  0.3713 -0.2880
    2CHL1  H22A  131   2.715   2.064   8.827  0.5552 -0.0090 -2.9556
    2CHL1  H22B  132   2.873   1.999   8.881 -0.4195  0.1939  2.0616
    2CHL1   C23  133   2.773   1.876   8.726 -0.5608  0.1604  0.1050
    2CHL1  H23A  134   2.822   1.780   8.753 -2.9425 -0.8262  1.2186
    2CHL1  H23B  135   2.668   1.844   8.715 -0.7153  0.1901  1.3732
    2CHL1   C24  136   2.818   1.934   8.595 -0.2269  0.2271 -0.1917
    2CHL1  H24A  137   2.924   1.966   8.605  0.4498 -1.5683 -1.2249
    2CHL1  H24B  138   2.802   1.843   8.534  0.4965 -0.2708  0.3529
    2CHL1   C25  139   2.736   2.050   8.532 -0.3133 -0.0562 -0.2506
    2CHL1   H25  140   2.702   2.130   8.601  1.9252 -0.3959  1.3185
    2CHL1   C26  141   2.818   2.130   8.425  0.7476 -0.1830  0.0286
    2CHL1  H26A  142   2.865   2.069   8.344  2.6355  2.2071 -0.7978
    2CHL1  H26B  143   2.746   2.192   8.367  0.0880  0.9272  1.9457
    2CHL1  H26C  144   2.900   2.192   8.468  1.0094  0.1285 -0.8921
    2CHL1   C27  145   2.606   2.000   8.474  0.3613  0.2610  0.2365
    2CHL1  H27A  146   2.548   1.928   8.536  0.4268 -0.5749 -0.6554
    2CHL1  H27B  147   2.533   2.079   8.444 -2.3541 -2.4142 -0.7623
    2CHL1  H27C  148   2.628   1.961   8.373  0.0030  2.4802 -0.7626
    3CHL1    C3  149   3.216   1.938  10.290 -0.5456  0.7749 -0.0835
    3CHL1    H3  150   3.306   1.875  10.305 -1.1440 -0.1130 -0.0927
    3CHL1    O3  151   3.193   1.993  10.423  0.1798 -0.0632 -0.0026
    3CHL1   H3'  152   3.132   2.068  10.419  1.3641  0.8603 -1.8493
    3CHL1    C4  153   3.228   2.053  10.196  0.0664  0.2039 -0.0353
    3CHL1   H4A  154   3.134   2.112  10.201  0.0004  0.0220  1.3511
    3CHL1   H4B  155   3.308   2.122  10.231  2.1381 -2.8971  1.8289
    3CHL1    C5  156   3.247   2.013  10.053  0.0847  1.0242  0.2208
    3CHL1    C6  157   3.342   2.050   9.971  0.0986  0.6177 -0.0549
    3CHL1    H6  158   3.423   2.114  10.009  1.3526 -0.2440 -1.1462
    3CHL1    C7  159   3.356   2.026   9.818  0.3711 -0.0350 -0.1906
    3CHL1   H7A  160   3.349   2.126   9.770 -0.5519 -0.2876 -0.6106
    3CHL1   H7B  161   3.450   1.978   9.784  0.7530  0.5703 -0.0105
    3CHL1    C8  162   3.231   1.948   9.762 -0.2598 -0.3217 -0.1714
    3CHL1    H8  163   3.155   2.027   9.749  0.6936  0.5228 -0.7428
    3CHL1   C14  164   3.262   1.878   9.634  0.2654  0.4285 -0.4006
    3CHL1   H14  165   3.336   1.798   9.654  0.7345  0.7981 -0.6244
    3CHL1   C15  166   3.325   1.960   9.518  0.4579 -0.1514  0.1653
    3CHL1  H15A  167   3.279   2.061   9.514  1.0480  0.2099  1.8556
    3CHL1  H15B  168   3.429   1.980   9.550  0.0490  3.0019 -0.1777
    3CHL1   C16  169   3.308   1.874   9.396 -0.1416  0.3670 -0.1071
    3CHL1  H16A  170   3.262   1.930   9.311 -0.2467 -0.7704 -0.8098
    3CHL1  H16B  171   3.411   1.856   9.359  0.1658  3.8424 -1.3559
    3CHL1   C17  172   3.222   1.751   9.438  0.1537 -0.1958  0.1068
    3CHL1   H17  173   3.284   1.662   9.465 -0.4560 -0.6197  0.1218
    3CHL1   C13  174   3.149   1.801   9.568  0.0195  0.0490 -0.1447
    3CHL1   C18  175   3.038   1.895   9.521 -0.1247 -0.6773 -0.1456
    3CHL1  H18A  176   2.950   1.844   9.476 -0.2692 -1.4186  0.9548
    3CHL1  H18B  177   3.004   1.961   9.603 -0.1578  0.6888 -1.2045
    3CHL1  H18C  178   3.082   1.966   9.446  2.4207 -0.4261  1.4551
    3CHL1   C12  179   3.100   1.692   9.669 -0.3254 -0.2860  0.0134
    3CHL1  H12A  180   3.014   1.638   9.624  1.4170 -1.9718 -1.4952
    3CHL1  H12B  181   3.184   1.622   9.687  0.1192 -0.0479 -1.0520
    3CHL1   C11  182   3.065   1.749   9.807  0.1263  0.2115 -0.2953
    3CHL1  H11A  183   2.973   1.810   9.796 -0.7185 -1.1123 -0.8919
    3CHL1  H11B  184   3.042   1.660   9.870  0.9499 -0.3626 -0.7842
    3CHL1    C9  185   3.178   1.850   9.863  1.0825  1.1172  0.1844
    3CHL1    H9  186   3.267   1.789   9.889  2.1576  2.5379 -0.0055
    3CHL1   C10  187   3.134   1.916  10.002 -0.2452 -1.2993 -0.7637
    3CHL1   C19  188   3.006   1.998   9.981  0.1203 -0.0414 -0.5433
    3CHL1  H19A  189   2.967   2.057  10.067  1.1420  1.5242 -1.1105
    3CHL1  H19B  190   3.008   2.074   9.900  0.0998  0.4548 -0.0797
    3CHL1  H19C  191   2.927   1.922   9.961 -0.6813  0.5527  0.2836
    3CHL1    C1  192   3.112   1.801  10.108  0.1679 -0.2247 -0.8809
    3CHL1   H1A  193   3.029   1.740  10.067 -0.9461  1.1976 -0.7940
    3CHL1   H1B  194   3.201   1.735  10.113 -0.0693 -0.4713  2.3948
    3CHL1    C2  195   3.090   1.851  10.256  0.1918 -0.1455 -0.2490
    3CHL1   H2A  196   3.098   1.765  10.326  1.2870  0.9822  1.0390
    3CHL1   H2B  197   2.996   1.909  10.269 -1.6020 -3.0600  0.8692
    3CHL1   C20  198   3.140   1.699   9.320  0.2437  0.2029  0.6298
    3CHL1   H20  199   3.088   1.786   9.275  0.5485  0.2132  0.2869
    3CHL1   C21  200   3.042   1.594   9.363 -0.5617  0.4459  0.0111
    3CHL1  H21A  201   2.969   1.643   9.432 -1.2708 -0.1876 -0.2755
    3CHL1  H21B  202   3.087   1.505   9.411  0.0554  1.3253  1.1120
    3CHL1  H21C  203   2.984   1.553   9.278  1.9320 -3.2435 -0.1129
    3CHL1   C22  204   3.232   1.637   9.213  1.0707  0.1937  0.2887
    3CHL1  H22A  205   3.325   1.698   9.210  1.6068 -0.6608 -1.5502
    3CHL1  H22B  206   3.279   1.543   9.248 -0.3256 -0.5071  0.3767
    3CHL1   C23  207   3.178   1.613   9.071 -0.4573 -0.3993  0.1948
    3CHL1  H23A  208   3.095   1.540   9.079 -0.0208 -0.9663 -0.3228
    3CHL1  H23B  209   3.129   1.702   9.027 -0.4260 -1.7880 -2.9647
    3CHL1   C24  210   3.297   1.576   8.975  0.0750  0.2145 -0.4592
    3CHL1  H24A  211   3.370   1.659   8.981 -0.9717  1.0652  2.1679
    3CHL1  H24B  212   3.350   1.490   9.022  3.2160  1.9802 -0.4877
    3CHL1   C25  213   3.253   1.546   8.830  0.7146 -0.0450 -0.8165
    3CHL1   H25  214   3.206   1.636   8.787  0.2125 -1.7028 -4.0824
    3CHL1   C26  215   3.381   1.532   8.745 -0.0875  0.8300 -0.7120
    3CHL1  H26A  216   3.438   1.445   8.785  1.3193  1.5577 -1.0419
    3CHL1  H26B  217   3.362   1.518   8.637 -0.6506  1.8211 -0.7576
    3CHL1  H26C  218   3.447   1.619   8.767  0.6158 -0.3585  2.5895
    3CHL1   C27  219   3.155   1.424   8.815  0.2352 -0.8324 -0.5540
    3CHL1  H27A  220   3.191   1.330   8.862 -0.8776 -1.9788 -1.9243
    3CHL1  H27B  221   3.060   1.458   8.860  1.2190  2.0440 -0.4253
    3CHL1  H27C  222   3.145   1.406   8.706  0.1020  1.1254 -0.9082
    4CHL1    C3  223   2.494   3.679  10.542  0.6833  0.2797  0.1173
    4CHL1    H3  224   2.566   3.595  10.539 -0.2610 -0.5594 -2.3191
    4CHL1    O3  225   2.471   3.709  10.678 -0.0125  0.2479 -0.8031
    4CHL1   H3'  226   2.554   3.749  10.707  0.0226 -0.0170 -0.5281
    4CHL1    C4  227   2.540   3.809  10.475 -0.2806  0.0061  0.4021
    4CHL1   H4A  228   2.467   3.891  10.491  0.6070  0.5356  2.0086
    4CHL1   H4B  229   2.633   3.850  10.520  0.0441  0.5968 -0.7492
    4CHL1    C5  230   2.556   3.789  10.319 -0.5476  0.5964  0.6562
    4CHL1    C6  231   2.675   3.807  10.255  0.1680 -0.5467  0.8152
    4CHL1    H6  232   2.756   3.859  10.307 -0.2188  0.9674 -0.0495
    4CHL1    C7  233   2.706   3.780  10.112 -0.2522  0.1608 -0.1728
    4CHL1   H7A  234   2.759   3.872  10.079 -1.2444  1.3220  1.3694
    4CHL1   H7B  235   2.775   3.693  10.106 -1.2946 -0.8558  1.7228
    4CHL1    C8  236   2.573   3.757  10.027  0.3819 -0.0972 -0.1253
    4CHL1    H8  237   2.521   3.852  10.002  0.3107 -0.3214 -0.8295
    4CHL1   C14  238   2.605   3.683   9.906 -0.5788  0.1981  0.5730
    4CHL1   H14  239   2.659   3.590   9.934 -1.7298 -0.3681  0.9855
    4CHL1   C15  240   2.707   3.740   9.806 -0.3662  0.1103 -0.6388
    4CHL1  H15A  241   2.687   3.844   9.773  0.3226  0.4219 -0.1161
    4CHL1  H15B  242   2.814   3.734   9.839 -0.5986 -2.2470 -0.1068
    4CHL1   C16  243   2.690   3.642   9.686 -0.3697  0.7430 -0.0767
    4CHL1  H16A  244   2.690   3.714   9.601 -2.7525  1.3368  0.3388
    4CHL1  H16B  245   2.764   3.559   9.682  0.1466  1.1789  0.2238
    4CHL1   C17  246   2.549   3.574   9.697 -0.2703 -0.1766 -0.2698
    4CHL1   H17  247   2.570   3.472   9.736  0.5823 -0.4301 -1.3160
    4CHL1   C13  248   2.482   3.654   9.814  0.4817  0.8789  0.5869
    4CHL1   C18  249   2.421   3.788   9.759  0.2467  0.6044  0.6643
    4CHL1  H18A  250   2.320   3.761   9.720  0.7299  2.1475 -1.8490
    4CHL1  H18B  251   2.400   3.855   9.844 -1.4067 -0.4128  1.1023
    4CHL1  H18C  252   2.485   3.835   9.681  0.4859  1.5145  1.3940
    4CHL1   C12  253   2.387   3.570   9.900 -0.2138  0.3248 -0.0063
    4CHL1  H12A  254   2.291   3.543   9.850 -0.0806 -2.6229  1.0796
    4CHL1  H12B  255   2.439   3.478   9.935  2.4476  2.1572  1.0731
    4CHL1   C11  256   2.343   3.643  10.031  0.4258  0.1622 -0.0450
    4CHL1  H11A  257   2.302   3.741   9.998 -0.8461 -0.5289 -0.5856
    4CHL1  H11B  258   2.267   3.577  10.079 -0.3077  1.5301  0.7431
    4CHL1    C9  259   2.466   3.677  10.112 -0.6675 -0.7473  0.1439
    4CHL1    H9  260   2.524   3.583  10.122  1.2891  0.1319 -2.0238
    4CHL1   C10  261   2.426   3.731  10.249 -0.1316 -0.4157 -0.1077
    4CHL1   C19  262   2.321   3.851  10.233 -0.4199  0.8270 -0.0067
    4CHL1  H19A  263   2.352   3.918  10.150  1.1124 -0.7862 -0.7885
    4CHL1  H19B  264   2.227   3.810  10.191 -0.5497  1.9181 -0.8230
    4CHL1  H19C  265   2.303   3.905  10.329 -0.5240  1.9996 -0.6662
    4CHL1    C1  266   2.358   3.617  10.332 -0.5772 -0.9584  0.0333
    4CHL1   H1A  267   2.263   3.578  10.291  0.0290 -1.6196 -0.7837
    4CHL1   H1B  268   2.423   3.528  10.315  0.2393 -0.4515  0.4385
    4CHL1    C2  269   2.359   3.632  10.483 -0.4277  0.5172 -0.0630
    4CHL1   H2A  270   2.335   3.541  10.543  3.2564  0.8712  2.3161
    4CHL1   H2B  271   2.285   3.704  10.522 -0.5605  0.3769 -0.0557
    4CHL1   C20  272   2.479   3.559   9.565  0.1755 -0.0831 -0.0773
    4CHL1   H20  273   2.449   3.659   9.526  2.0157  1.1419  1.4260
    4CHL1   C21  274   2.364   3.457   9.588 -0.2284 -0.1970 -0.1882
    4CHL1  H21A  275   2.316   3.424   9.493 -0.1706  0.4150 -0.4334
    4CHL1  H21B  276   2.284   3.509   9.646  0.9501  0.0856  1.2502
    4CHL1  H21C  277   2.385   3.369   9.652  2.8169  0.7788  0.2936
    4CHL1   C22  278   2.569   3.494   9.458 -0.1054 -0.4080 -0.5868
    4CHL1  H22A  279   2.662   3.553   9.447 -0.3626  0.7489  2.4514
    4CHL1  H22B  280   2.607   3.399   9.502  1.0435  0.9009  1.4338
    4CHL1   C23  281   2.506   3.483   9.315 -0.8529  0.2635  0.3539
    4CHL1  H23A  282   2.429   3.406   9.295  1.0893 -1.3760 -1.1574
    4CHL1  H23B  283   2.459   3.581   9.290 -1.0682 -0.7282 -3.8343
    4CHL1   C24  284   2.612   3.454   9.212  0.0347  0.0972 -0.1946
    4CHL1  H24A  285   2.695   3.527   9.216 -0.5317  0.7960 -0.8970
    4CHL1  H24B  286   2.655   3.352   9.230  1.1202  0.9500  2.4110
    4CHL1   C25  287   2.569   3.449   9.063 -0.4668 -0.2501  0.4209
    4CHL1   H25  288   2.492   3.369   9.063 -0.6592 -0.1513  2.9923
    4CHL1   C26  289   2.522   3.582   9.001 -0.2839  0.2836  0.2567
    4CHL1  H26A  290   2.601   3.660   9.010 -2.5687  2.7127  0.1819
    4CHL1  H26B  291   2.513   3.556   8.893  2.7290 -1.6673  0.3296
    4CHL1  H26C  292   2.426   3.617   9.043  0.9151  5.4562 -0.6059
    4CHL1   C27  293   2.683   3.389   8.975  0.3483  0.4822 -0.8026
    4CHL1  H27A  294   2.713   3.290   9.016  1.9768  1.0021 -0.6373
    4CHL1  H27B  295   2.636   3.383   8.875 -4.4676  0.3694  1.2153
    4CHL1  H27C  296   2.775   3.451   8.990  0.8116 -0.5601  0.9124
    5CHL1    C3  297   3.499   1.706  10.123  0.0991 -0.4227  0.0109
    5CHL1    H3  298   3.396   1.742  10.101 -0.2771 -0.5145  1.4985
    5CHL1    O3  299   3.508   1.700  10.263  0.2459  0.2349  0.1338
    5CHL1   H3'  300   3.429   1.651  10.286  0.2121 -1.8970 -3.6587
    5CHL1    C4  301   3.511   1.562  10.070 -0.2489  0.8694 -0.1642
    5CHL1   H4A  302   3.588   1.502  10.123 -0.5147 -1.2199 -2.0269
    5CHL1   H4B  303   3.425   1.497  10.093 -1.0817  1.9146 -0.2263
    5CHL1    C5  304   3.526   1.561   9.919 -0.7832 -0.1498 -0.1902
    5CHL1    C6  305   3.436   1.494   9.848  0.5188  0.0303  0.4104
    5CHL1    H6  306   3.364   1.431   9.901  0.6710  2.6301  4.0609
    5CHL1    C7  307   3.465   1.474   9.692 -0.2549  0.1850 -0.1453
    5CHL1   H7A  308   3.470   1.367   9.661 -4.4915  0.1940 -1.5142
    5CHL1   H7B  309   3.385   1.524   9.634 -1.3644  0.1131  1.2663
    5CHL1    C8  310   3.598   1.535   9.639 -0.0447  0.7458 -0.5215
    5CHL1    H8  311   3.678   1.461   9.659  0.1451  0.4307 -2.3474
    5CHL1   C14  312   3.586   1.547   9.487 -0.4623 -0.1113  0.3593
    5CHL1   H14  313   3.500   1.616   9.477 -1.7022 -1.8386 -1.3983
    5CHL1   C15  314   3.553   1.416   9.413 -0.5503  0.0608 -0.2327
    5CHL1  H15A  315   3.603   1.326   9.455 -3.1106 -0.2372  2.4406
    5CHL1  H15B  316   3.445   1.390   9.413 -0.2820 -1.3505  2.2091
    5CHL1   C16  317   3.612   1.440   9.277 -0.3792 -0.4213  0.2578
    5CHL1  H16A  318   3.678   1.355   9.249 -2.0915 -2.0919  1.0603
    5CHL1  H16B  319   3.538   1.446   9.195  0.8243  1.4836 -0.7605
    5CHL1   C17  320   3.679   1.581   9.275  0.0830  0.0064  0.4650
    5CHL1   H17  321   3.601   1.658   9.256 -0.3245 -0.5069  0.0284
    5CHL1   C13  322   3.712   1.602   9.426  0.3740  0.0840  0.5556
    5CHL1   C18  323   3.838   1.509   9.446  0.2757 -0.8198 -0.1598
    5CHL1  H18A  324   3.859   1.513   9.555 -0.5407 -4.3401  0.2445
    5CHL1  H18B  325   3.826   1.404   9.411  0.9508 -1.2106  0.7345
    5CHL1  H18C  326   3.920   1.556   9.387 -0.3114 -0.6992 -0.8883
    5CHL1   C12  327   3.741   1.744   9.475 -0.1483  0.0758 -0.0006
    5CHL1  H12A  328   3.834   1.789   9.435 -1.9850  0.4046 -4.5558
    5CHL1  H12B  329   3.666   1.809   9.425  0.5601 -0.3824 -1.7255
    5CHL1   C11  330   3.743   1.750   9.633  0.6324  0.0557  0.4033
    5CHL1  H11A  331   3.838   1.705   9.670  1.5537  2.1223  0.7359
    5CHL1  H11B  332   3.742   1.857   9.665  3.2316 -0.1884  1.5534
    5CHL1    C9  333   3.627   1.670   9.704 -0.3576  0.3973 -0.1171
    5CHL1    H9  334   3.536   1.727   9.677 -0.7304 -1.2013 -2.5513
    5CHL1   C10  335   3.641   1.644   9.861  0.1043  0.2621 -0.2918
    5CHL1   C19  336   3.780   1.587   9.891 -0.2929  0.4851  0.5681
    5CHL1  H19A  337   3.869   1.642   9.856  1.1142 -2.3491 -0.6354
    5CHL1  H19B  338   3.794   1.583  10.001  0.4524  0.4362  0.4759
    5CHL1  H19C  339   3.786   1.484   9.849 -0.5657  1.2337 -1.4225
    5CHL1    C1  340   3.637   1.782   9.921  0.2481 -0.5414 -0.2441
    5CHL1   H1A  341   3.733   1.833   9.895  1.2094 -2.7851 -1.4339
    5CHL1   H1B  342   3.549   1.828   9.871  0.3657 -1.0211 -0.9122
    5CHL1    C2  343   3.612   1.797  10.074 -0.0093  0.1301  0.2937
    5CHL1   H2A  344   3.585   1.903  10.096 -0.8710 -0.1288  0.5104
    5CHL1   H2B  345   3.699   1.760  10.131 -1.3715 -0.3904  2.1088
    5CHL1   C20  346   3.786   1.609   9.166  0.1013  0.1750  0.1123
    5CHL1   H20  347   3.879   1.558   9.197  0.0854 -1.1969 -1.9112
    5CHL1   C21  348   3.827   1.756   9.145 -0.7287  0.0040 -0.6178
    5CHL1  H21A  349   3.895   1.758   9.057  0.6432 -3.0188  0.2609
    5CHL1  H21B  350   3.891   1.785   9.231 -0.0569 -1.2591 -0.6766
    5CHL1  H21C  351   3.750   1.833   9.123  0.5708  1.2482 -0.9401
    5CHL1   C22  352   3.750   1.559   9.022 -0.3072 -0.0439 -0.6159
    5CHL1  H22A  353   3.704   1.458   9.035 -0.9952  0.1565 -1.3584
    5CHL1  H22B  354   3.681   1.623   8.963 -1.6010 -1.6089 -0.8908
    5CHL1   C23  355   3.872   1.522   8.930 -0.0242 -0.9924 -0.7940
    5CHL1  H23A  356   3.935   1.607   8.895  0.4555 -2.2646 -3.2607
    5CHL1  H23B  357   3.933   1.443   8.980 -1.7737 -0.7757  1.8679
    5CHL1   C24  358   3.826   1.451   8.804  0.1056 -0.0060 -0.3703
    5CHL1  H24A  359   3.753   1.371   8.831 -1.6013  1.2547 -1.0206
    5CHL1  H24B  360   3.772   1.524   8.740 -0.8502 -1.6015 -1.4712
    5CHL1   C25  361   3.944   1.397   8.716 -0.2435  0.0533  0.3317
    5CHL1   H25  362   3.997   1.322   8.779 -1.1797 -1.8731 -1.0825
    5CHL1   C26  363   3.883   1.323   8.600  0.1850  0.2794  0.1977
    5CHL1  H26A  364   3.815   1.243   8.635 -0.3913  1.1528  1.1160
    5CHL1  H26B  365   3.818   1.392   8.541  0.0223  2.3153  2.5863
    5CHL1  H26C  366   3.967   1.289   8.535 -0.1184  0.6866 -0.4214
    5CHL1   C27  367   4.043   1.506   8.667 -0.1108  0.3059  0.8014
    5CHL1  H27A  368   4.104   1.546   8.751  0.2508  0.4102  0.4864
    5CHL1  H27B  369   4.113   1.462   8.593 -1.7335 -0.8669 -0.0923
    5CHL1  H27C  370   3.982   1.582   8.613 -0.9779 -0.0932  1.1901
    6CHL1    C3  371   1.227   6.034  10.401 -0.3728 -0.5556  0.0663
    6CHL1    H3  372   1.128   5.992  10.378  0.8760 -4.8397  1.5972
    6CHL1    O3  373   1.233   6.077  10.538  0.3142  0.0534  0.7002
    6CHL1   H3'  374   1.313   6.038  10.574  0.7319 -0.1052 -0.3673
    6CHL1    C4  375   1.323   5.919  10.381 -0.1342 -0.9038  0.5112
    6CHL1   H4A  376   1.417   5.951  10.432 -0.2605 -1.2559  0.9625
    6CHL1   H4B  377   1.276   5.834  10.433 -1.5076 -0.3423  0.2302
    6CHL1    C5  378   1.346   5.883  10.234 -0.2559  0.0033  0.1748
    6CHL1    C6  379   1.343   5.755  10.193 -0.5122  0.2841 -0.0447
    6CHL1    H6  380   1.323   5.674  10.265 -1.1533  0.1064 -0.4132
    6CHL1    C7  381   1.382   5.708  10.054  0.1883  0.1063 -0.1675
    6CHL1   H7A  382   1.465   5.635  10.065 -0.1981 -0.1452  1.3400
    6CHL1   H7B  383   1.305   5.649  10.000  1.5613 -2.0400  0.0795
    6CHL1    C8  384   1.433   5.822   9.965  0.1139  0.1451 -0.4843
    6CHL1    H8  385   1.541   5.830   9.990 -0.1986 -0.0022  1.0269
    6CHL1   C14  386   1.427   5.792   9.815 -0.3549  0.4353  0.0202
    6CHL1   H14  387   1.318   5.795   9.795 -0.1375  2.6617 -1.1502
    6CHL1   C15  388   1.492   5.658   9.779  0.2438  0.3033 -0.2737
    6CHL1  H15A  389   1.588   5.649   9.833  0.4591  1.2419 -0.4794
    6CHL1  H15B  390   1.426   5.569   9.787  2.3579 -1.3101  0.0227
    6CHL1   C16  391   1.516   5.664   9.634 -0.4044  0.0164  0.1367
    6CHL1  H16A  392   1.621   5.643   9.605 -0.7328  1.2153 -2.1202
    6CHL1  H16B  393   1.456   5.594   9.572 -0.6796  2.1045 -2.0575
    6CHL1   C17  394   1.478   5.814   9.587 -0.2045  0.0358 -0.4926
    6CHL1   H17  395   1.368   5.808   9.573 -0.1414  0.6003 -1.2513
    6CHL1   C13  396   1.496   5.891   9.725  0.2129  0.2242 -0.9790
    6CHL1   C18  397   1.645   5.908   9.757  0.2213 -0.2417 -0.3660
    6CHL1  H18A  398   1.690   5.970   9.677  1.4180  1.4417  1.5027
    6CHL1  H18B  399   1.658   5.966   9.852 -1.1657  0.1561 -0.3992
    6CHL1  H18C  400   1.707   5.817   9.767  0.1215 -0.0882  2.9917
    6CHL1   C12  401   1.431   6.031   9.747 -1.1687  0.3349 -0.0494
    6CHL1  H12A  402   1.488   6.107   9.688 -1.4532 -0.6109 -1.6141
    6CHL1  H12B  403   1.325   6.031   9.712 -1.1591  2.6733 -0.2908
    6CHL1   C11  404   1.426   6.068   9.902  0.5483 -0.6697  0.1486
    6CHL1  H11A  405   1.530   6.098   9.922  0.0934  2.1661 -1.2419
    6CHL1  H11B  406   1.372   6.164   9.912  2.9964  0.7660  0.2970
    6CHL1    C9  407   1.366   5.956   9.996 -0.2311  0.1811 -0.1086
    6CHL1    H9  408   1.256   5.948   9.981 -0.2383 -1.3133  0.5143
    6CHL1   C10  409   1.376   6.003  10.141  0.3077  0.6489 -0.2318
    6CHL1   C19  410   1.516   6.062  10.184 -0.0043 -0.0379  0.1995
    6CHL1  H19A  411   1.523   6.079  10.294 -0.5979 -1.2745  0.4526
    6CHL1  H19B  412   1.599   5.997  10.148 -0.6429 -0.4680 -0.5326
    6CHL1  H19C  413   1.543   6.157  10.133  1.4939  0.8101  2.4188
    6CHL1    C1  414   1.261   6.106  10.166 -0.2245  0.3334  0.1548
    6CHL1   H1A  415   1.276   6.192  10.098  2.2022 -0.5975 -0.6239
    6CHL1   H1B  416   1.164   6.059  10.139 -0.3677  1.0420 -0.6184
    6CHL1    C2  417   1.253   6.152  10.315  0.2726  0.1689 -0.0414
    6CHL1   H2A  418   1.171   6.227  10.322 -0.9326 -0.9571 -1.5254
    6CHL1   H2B  419   1.353   6.195  10.341  0.9193 -0.8388 -0.7819
    6CHL1   C20  420   1.551   5.870   9.461  0.0705  0.3862  0.0251
    6CHL1   H20  421   1.651   5.898   9.502  1.1028 -2.3771 -0.4179
    6CHL1   C21  422   1.477   5.997   9.411 -0.2783 -0.2674 -0.1417
    6CHL1  H21A  423   1.373   5.979   9.377  0.3544 -0.2082 -2.2363
    6CHL1  H21B  424   1.531   6.051   9.330  0.1749  0.9687  0.9383
    6CHL1  H21C  425   1.468   6.077   9.488  1.6145 -0.4983  0.3615
    6CHL1   C22  426   1.592   5.783   9.342  0.5383  0.9228 -0.1698
    6CHL1  H22A  427   1.659   5.850   9.284 -0.1526  2.3406  0.6202
    6CHL1  H22B  428   1.648   5.695   9.379  2.4586  1.8335 -0.7666
    6CHL1   C23  429   1.478   5.734   9.251 -0.6200 -0.4544 -0.3043
    6CHL1  H23A  430   1.430   5.647   9.301 -1.7653  0.8454  0.9245
    6CHL1  H23B  431   1.403   5.816   9.244 -1.1445 -0.7009  1.8057
    6CHL1   C24  432   1.528   5.691   9.115  0.2073  0.0751 -0.0846
    6CHL1  H24A  433   1.566   5.787   9.073 -0.5497  0.4540  0.0699
    6CHL1  H24B  434   1.607   5.613   9.115  0.5323  0.3853  0.8599
    6CHL1   C25  435   1.413   5.648   9.015  0.7935  0.2438 -0.0746
    6CHL1   H25  436   1.317   5.702   9.028 -0.2364 -1.0545 -1.8397
    6CHL1   C26  437   1.461   5.672   8.871 -0.1949 -0.0148 -0.3895
    6CHL1  H26A  438   1.386   5.640   8.796  0.3053 -0.0212 -0.8877
    6CHL1  H26B  439   1.478   5.781   8.857  0.7592 -0.4534 -3.2484
    6CHL1  H26C  440   1.557   5.618   8.860 -0.4118 -0.4817 -0.0134
    6CHL1   C27  441   1.372   5.500   9.036 -0.1892  0.1255  0.3046
    6CHL1  H27A  442   1.323   5.458   8.945 -1.1699  0.8907  0.4610
    6CHL1  H27B  443   1.468   5.451   9.061  0.7365  1.8356  0.2845
    6CHL1  H27C  444   1.297   5.509   9.117 -0.8804  1.6518 -0.4554
    7CHL1    C3  445   4.292   2.369  10.423  0.4712  0.0256  0.0204
    7CHL1    H3  446   4.309   2.260  10.417 -0.4832 -0.1941  1.0124
    7CHL1    O3  447   4.272   2.393  10.562 -0.1035  0.6654 -0.1605
    7CHL1   H3'  448   4.267   2.488  10.575  2.6394  0.8413  0.3245
    7CHL1    C4  449   4.419   2.440  10.370 -0.0045 -0.4943 -0.5284
    7CHL1   H4A  450   4.418   2.548  10.394 -0.7210 -0.4578 -0.7129
    7CHL1   H4B  451   4.504   2.393  10.426 -0.9955 -1.3964  0.2736
    7CHL1    C5  452   4.447   2.423  10.225 -0.2591  0.2333 -0.4099
    7CHL1    C6  453   4.573   2.380  10.180  0.7652 -1.0136  0.0004
    7CHL1    H6  454   4.653   2.362  10.253  1.0073  1.0279  0.2846
    7CHL1    C7  455   4.613   2.377  10.039  0.3220  0.2472  0.3338
    7CHL1   H7A  456   4.709   2.426  10.012  1.9823 -2.2155  1.4153
    7CHL1   H7B  457   4.644   2.271  10.029  5.2229  1.4414  0.4878
    7CHL1    C8  458   4.503   2.427   9.948  1.4680 -0.9106 -0.0002
    7CHL1    H8  459   4.501   2.538   9.943 -0.2157 -0.9797 -2.5515
    7CHL1   C14  460   4.531   2.378   9.807  0.6917 -0.3211  0.1293
    7CHL1   H14  461   4.528   2.267   9.805  0.8160 -0.3297 -2.1958
    7CHL1   C15  462   4.662   2.412   9.732 -0.1427  0.4843  0.6292
    7CHL1  H15A  463   4.693   2.517   9.752  1.2090  0.2267  0.0507
    7CHL1  H15B  464   4.740   2.349   9.780 -0.5066 -1.2343 -0.9140
    7CHL1   C16  465   4.639   2.398   9.580 -0.3945 -0.0876  0.1557
    7CHL1  H16A  466   4.668   2.495   9.534 -2.9178  1.2906  1.2451
    7CHL1  H16B  467   4.707   2.320   9.540 -0.7725  0.0109 -0.6944
    7CHL1   C17  468   4.492   2.360   9.571 -0.6172 -0.6970 -1.1835
    7CHL1   H17  469   4.503   2.251   9.588 -1.4377 -0.7278 -0.7893
    7CHL1   C13  470   4.428   2.421   9.696 -0.3702 -0.0363  0.7895
    7CHL1   C18  471   4.421   2.571   9.682  0.1815  0.0079 -0.1110
    7CHL1  H18A  472   4.353   2.598   9.598 -1.3697 -3.9153 -0.3240
    7CHL1  H18B  473   4.370   2.612   9.772 -0.8961 -0.9174 -0.2852
    7CHL1  H18C  474   4.517   2.625   9.667  0.8174 -1.3509 -1.1277
    7CHL1   C12  475   4.289   2.377   9.735  0.6543 -0.3431  0.3093
    7CHL1  H12A  476   4.214   2.419   9.665  0.3227 -2.5345 -0.7515
    7CHL1  H12B  477   4.296   2.267   9.721 -1.0278 -0.9298  3.2886
    7CHL1   C11  478   4.253   2.399   9.883 -0.4907 -0.2524 -0.0560
    7CHL1  H11A  479   4.214   2.503   9.889  1.1249  0.5304 -1.9810
    7CHL1  H11B  480   4.168   2.334   9.913 -0.7274  0.3407  0.5961
    7CHL1    C9  481   4.365   2.378   9.992 -0.2403  0.3591  0.7073
    7CHL1    H9  482   4.387   2.269   9.999 -2.7650 -0.2409  0.1703
    7CHL1   C10  483   4.326   2.441  10.134  0.7146  0.3719 -0.1099
    7CHL1   C19  484   4.290   2.589  10.126  0.1208 -0.0544 -0.5785
    7CHL1  H19A  485   4.369   2.648  10.075  1.4589  0.4215  1.8537
    7CHL1  H19B  486   4.190   2.601  10.080 -1.0927  0.2809  1.9337
    7CHL1  H19C  487   4.274   2.631  10.228  1.7758  0.6633 -0.5739
    7CHL1    C1  488   4.198   2.367  10.186  0.2167 -0.0842 -0.3956
    7CHL1   H1A  489   4.113   2.399  10.123 -0.1234 -0.0878  0.0515
    7CHL1   H1B  490   4.215   2.258  10.177 -0.7722 -0.2436 -0.3929
    7CHL1    C2  491   4.168   2.398  10.336  0.6776  0.6089  0.5446
    7CHL1   H2A  492   4.086   2.331  10.370  1.4380  0.0874  1.4072
    7CHL1   H2B  493   4.144   2.506  10.330  3.6234  1.2714 -1.5255
    7CHL1   C20  494   4.433   2.381   9.430 -0.8482 -0.2054  0.3690
    7CHL1   H20  495   4.398   2.486   9.419 -0.5266  0.0998  1.8990
    7CHL1   C21  496   4.325   2.280   9.394 -0.0443  0.0931 -0.3101
    7CHL1  H21A  497   4.289   2.289   9.289 -0.8849  0.2866 -0.0145
    7CHL1  H21B  498   4.234   2.285   9.458  0.5969  0.4790  0.5819
    7CHL1  H21C  499   4.372   2.180   9.388  0.2677  0.2489 -0.4940
    7CHL1   C22  500   4.546   2.360   9.321  0.3100  0.1177 -0.6557
    7CHL1  H22A  501   4.622   2.438   9.339 -0.7401  0.5928  2.1234
    7CHL1  H22B  502   4.598   2.266   9.352  0.6506  0.6436  0.4029
    7CHL1   C23  503   4.506   2.341   9.172  0.3727  0.0445  1.0377
    7CHL1  H23A  504   4.458   2.241   9.168  0.0172  0.1291  2.4129
    7CHL1  H23B  505   4.432   2.419   9.144  2.8371  1.6799 -1.4562
    7CHL1   C24  506   4.627   2.361   9.078 -0.5316  0.6239  0.1705
    7CHL1  H24A  507   4.681   2.457   9.093  2.1168 -0.9553  1.4137
    7CHL1  H24B  508   4.696   2.275   9.091 -0.6039  0.4778 -0.4135
    7CHL1   C25  509   4.586   2.357   8.923 -0.3851  0.4140 -0.5049
    7CHL1   H25  510   4.507   2.434   8.912 -0.9067 -0.0136  0.1529
    7CHL1   C26  511   4.707   2.385   8.832 -0.1395 -0.1141 -0.4887
    7CHL1  H26A  512   4.777   2.298   8.827 -0.3754 -0.2911 -0.7316
    7CHL1  H26B  513   4.668   2.410   8.732  0.1371 -2.2403 -1.1863
    7CHL1  H26C  514   4.768   2.473   8.862 -1.4911  0.3374  1.1656
    7CHL1   C27  515   4.531   2.223   8.880  0.5763  0.4715 -0.7637
    7CHL1  H27A  516   4.576   2.128   8.915  2.1172  0.5326 -2.4653
    7CHL1  H27B  517   4.428   2.221   8.921  1.0408 -2.4359  0.5154
    7CHL1  H27C  518   4.521   2.223   8.769  2.4061  1.6117 -0.9627
    8CHL1    C3  519   4.939   3.756  10.427 -0.2393 -0.5116  0.7629
    8CHL1    H3  520   4.985   3.852  10.397 -1.5517 -0.1285 -0.1112
    8CHL1    O3  521   4.986   3.722  10.559 -0.0165  0.0386  0.5519
    8CHL1   H3'  522   4.932   3.646  10.583  1.7741 -1.5979 -0.3542
    8CHL1    C4  523   4.783   3.791  10.413 -0.3335  0.6247 -0.8448
    8CHL1   H4A  524   4.713   3.714  10.452 -0.2532  0.9461 -0.0646
    8CHL1   H4B  525   4.768   3.879  10.478  0.1735 -0.6825  1.1116
    8CHL1    C5  526   4.751   3.832  10.273 -0.1027 -0.5425 -0.1167
    8CHL1    C6  527   4.711   3.954  10.241 -0.6211  0.5743 -0.5967
    8CHL1    H6  528   4.691   4.023  10.324 -0.0267  0.5524 -0.4340
    8CHL1    C7  529   4.676   3.997  10.099 -0.8072 -0.3418 -0.0696
    8CHL1   H7A  530   4.595   4.073  10.090  1.9353  2.7609 -0.9062
    8CHL1   H7B  531   4.766   4.051  10.061 -0.6604 -0.7037 -0.2395
    8CHL1    C8  532   4.660   3.873  10.002  0.3870 -0.6898 -0.7552
    8CHL1    H8  533   4.565   3.825  10.034 -1.1449  2.7716  0.3699
    8CHL1   C14  534   4.648   3.921   9.858 -0.0289 -0.0117 -0.6703
    8CHL1   H14  535   4.748   3.967   9.841 -0.2300  1.2184  1.1974
    8CHL1   C15  536   4.554   4.037   9.826  0.0802 -0.3526 -0.1660
    8CHL1  H15A  537   4.454   4.033   9.874 -0.8629 -0.0430 -2.0044
    8CHL1  H15B  538   4.601   4.130   9.863 -0.3023  0.2144 -1.0843
    8CHL1   C16  539   4.542   4.040   9.676  0.0533 -0.2981  0.1279
    8CHL1  H16A  540   4.436   4.029   9.647  0.0452  0.0443  0.0314
    8CHL1  H16B  541   4.594   4.131   9.639 -0.5425  0.1528  0.3846
    8CHL1   C17  542   4.625   3.919   9.626  0.2577  0.3844 -0.0282
    8CHL1   H17  543   4.728   3.955   9.608 -0.3674  2.0250 -0.5411
    8CHL1   C13  544   4.629   3.818   9.747 -0.3512 -0.1357 -0.7461
    8CHL1   C18  545   4.498   3.730   9.752 -0.1239 -0.1064 -0.0233
    8CHL1  H18A  546   4.405   3.784   9.724  0.8102 -0.3528 -4.2642
    8CHL1  H18B  547   4.511   3.647   9.680 -0.7569  0.3471 -0.6729
    8CHL1  H18C  548   4.498   3.685   9.854 -1.3004 -1.8435 -0.7352
    8CHL1   C12  549   4.756   3.728   9.767  0.3691 -0.0747 -0.5309
    8CHL1  H12A  550   4.731   3.642   9.701  0.7970 -1.1541  0.6915
    8CHL1  H12B  551   4.850   3.771   9.726  1.0577 -1.0102  0.0325
    8CHL1   C11  552   4.763   3.665   9.910  0.0752 -0.2437 -0.2888
    8CHL1  H11A  553   4.676   3.599   9.930 -0.2557  0.2313 -0.1239
    8CHL1  H11B  554   4.852   3.600   9.922  1.6293  2.0213  1.2575
    8CHL1    C9  555   4.778   3.778  10.020 -0.6356 -0.6701  0.5950
    8CHL1    H9  556   4.865   3.840   9.991 -0.8770 -0.3147  0.6213
    8CHL1   C10  557   4.797   3.726  10.169 -0.1435 -0.4355 -0.1062
    8CHL1   C19  558   4.700   3.612  10.188 -0.2124  0.0650  0.4434
    8CHL1  H19A  559   4.601   3.648  10.153  0.6867  0.7087 -1.5692
    8CHL1  H19B  560   4.724   3.528  10.119  0.4035  0.1291  0.5754
    8CHL1  H19C  561   4.694   3.568  10.290 -1.8811 -2.3334 -0.5875
    8CHL1    C1  562   4.943   3.668  10.187 -0.3244  0.1678 -0.4568
    8CHL1   H1A  563   4.946   3.577  10.123  1.3193  1.2435 -2.0027
    8CHL1   H1B  564   5.014   3.739  10.139  0.0998  1.1111  1.4869
    8CHL1    C2  565   4.986   3.642  10.335  0.7835 -0.4141  0.2088
    8CHL1   H2A  566   5.096   3.630  10.325  0.6005 -0.4250 -2.3537
    8CHL1   H2B  567   4.938   3.545  10.360  0.0918 -0.4952 -1.3154
    8CHL1   C20  568   4.571   3.865   9.489  0.0607  0.0301  0.0769
    8CHL1   H20  569   4.480   3.802   9.502  0.2702 -0.3129 -0.0840
    8CHL1   C21  570   4.686   3.777   9.435  0.5519  0.2556  0.5460
    8CHL1  H21A  571   4.704   3.691   9.503 -3.5649 -0.7012  0.7095
    8CHL1  H21B  572   4.773   3.844   9.417 -0.2267  1.6001  1.5850
    8CHL1  H21C  573   4.647   3.729   9.343 -0.5556  1.5328  0.3175
    8CHL1   C22  574   4.534   3.971   9.387 -0.0234  0.2534 -0.6991
    8CHL1  H22A  575   4.465   4.045   9.434  0.8130 -1.1383  3.0508
    8CHL1  H22B  576   4.625   4.026   9.356  0.1437 -0.4366 -1.4534
    8CHL1   C23  577   4.467   3.923   9.260  0.6387 -0.3412 -0.2858
    8CHL1  H23A  578   4.529   3.857   9.196 -0.4669  1.0398 -2.9531
    8CHL1  H23B  579   4.372   3.868   9.279 -0.1843  0.9375 -0.5647
    8CHL1   C24  580   4.416   4.040   9.164 -0.7940  0.3443 -0.0606
    8CHL1  H24A  581   4.347   3.990   9.093 -0.5655  0.3618 -0.3007
    8CHL1  H24B  582   4.350   4.108   9.221 -3.6421 -0.1114 -2.5637
    8CHL1   C25  583   4.524   4.116   9.087  0.4080  0.7460  0.5527
    8CHL1   H25  584   4.615   4.121   9.151  0.5599 -2.3321  0.7167
    8CHL1   C26  585   4.564   4.056   8.957 -0.3975 -0.1810 -0.3419
    8CHL1  H26A  586   4.470   4.050   8.899  0.2882  0.1057 -1.5049
    8CHL1  H26B  587   4.631   4.124   8.900 -1.7582  0.3144 -1.4174
    8CHL1  H26C  588   4.611   3.956   8.967 -1.4264 -0.7777 -1.2796
    8CHL1   C27  589   4.476   4.259   9.054  0.2983 -0.7375 -0.7000
    8CHL1  H27A  590   4.548   4.301   8.981 -0.5828 -0.0016 -1.1758
    8CHL1  H27B  591   4.386   4.248   8.989  1.9334 -1.5346 -2.9408
    8CHL1  H27C  592   4.451   4.319   9.144  1.1704 -1.5340  0.0945
    9CHL1    C3  593   0.972   0.166  10.187  0.1634 -0.6776 -1.2282
    9CHL1    H3  594   1.030   0.260  10.184 -1.1391  0.1572 -1.2415
    9CHL1    O3  595   0.959   0.120  10.325  0.9688 -0.4054 -0.0898
    9CHL1   H3'  596   0.916   0.035  10.329  1.6813 -0.7489  0.9542
    9CHL1    C4  597   0.823   0.187  10.141  0.1258  0.2358 -0.5531
    9CHL1   H4A  598   0.772   0.092  10.166  2.4302 -0.2787  2.9148
    9CHL1   H4B  599   0.768   0.252  10.212  1.6994 -1.4102  2.3697
    9CHL1    C5  600   0.806   0.210   9.994  0.7780  0.2827 -0.0863
    9CHL1    C6  601   0.758   0.329   9.956  0.0598 -0.2832  0.5825
    9CHL1    H6  602   0.702   0.401  10.017 -1.8078 -1.0044 -0.1985
    9CHL1    C7  603   0.743   0.361   9.809 -0.4928  0.4814  0.2434
    9CHL1   H7A  604   0.651   0.422   9.801 -0.0307  1.4207  1.6842
    9CHL1   H7B  605   0.838   0.410   9.778  0.7705 -0.9064  1.6850
    9CHL1    C8  606   0.740   0.233   9.723 -1.1344  1.2926  0.0539
    9CHL1    H8  607   0.648   0.178   9.752  0.9228 -0.9635  2.8334
    9CHL1   C14  608   0.743   0.278   9.577  0.0902  0.8114  0.0414
    9CHL1   H14  609   0.840   0.333   9.575 -1.3387  3.5086 -2.2880
    9CHL1   C15  610   0.639   0.374   9.524 -0.4678  0.3082  0.0245
    9CHL1  H15A  611   0.537   0.340   9.550  0.1313 -3.3378 -1.7465
    9CHL1  H15B  612   0.666   0.476   9.559  0.4982 -0.8402  2.8249
    9CHL1   C16  613   0.656   0.361   9.365  0.1796 -0.0464 -0.0800
    9CHL1  H16A  614   0.554   0.345   9.323  0.1799 -1.5681  0.4203
    9CHL1  H16B  615   0.703   0.451   9.322  0.1899 -0.0370 -0.0487
    9CHL1   C17  616   0.743   0.233   9.341  0.1303  0.2389 -0.4648
    9CHL1   H17  617   0.846   0.272   9.328  1.6900 -2.3137  2.8318
    9CHL1   C13  618   0.760   0.164   9.482 -0.5358  0.5532  0.7188
    9CHL1   C18  619   0.638   0.069   9.498 -0.4548  0.6011  0.0434
    9CHL1  H18A  620   0.646  -0.023   9.437 -0.3837  1.2298 -0.9200
    9CHL1  H18B  621   0.615   0.029   9.599  2.9004  0.2523  0.7901
    9CHL1  H18C  622   0.550   0.128   9.466  1.4564  3.4901 -0.2458
    9CHL1   C12  623   0.898   0.095   9.511 -0.0489  0.1820 -0.3785
    9CHL1  H12A  624   0.914   0.023   9.429 -0.4540 -2.4794  1.7466
    9CHL1  H12B  625   0.984   0.165   9.503  1.3213 -1.2555  1.0102
    9CHL1   C11  626   0.893   0.033   9.649  0.2401  0.1845 -0.0854
    9CHL1  H11A  627   0.813  -0.044   9.649 -0.3965  0.8344 -0.0697
    9CHL1  H11B  628   0.990  -0.013   9.678  1.6875  2.9513 -0.1510
    9CHL1    C9  629   0.860   0.144   9.756 -0.7304  0.2608  0.0467
    9CHL1    H9  630   0.939   0.221   9.741 -0.6328  0.2845  0.6816
    9CHL1   C10  631   0.861   0.102   9.905  0.2750 -0.6526 -0.1145
    9CHL1   C19  632   0.779  -0.022   9.921  0.1895 -0.5664 -0.1752
    9CHL1  H19A  633   0.669  -0.007   9.928  0.2556 -0.0554 -0.1923
    9CHL1  H19B  634   0.795  -0.100   9.844  0.2798 -0.1218 -0.6115
    9CHL1  H19C  635   0.805  -0.057  10.023  1.3914  1.8335  0.4184
    9CHL1    C1  636   1.010   0.077   9.950  0.5200  0.3925 -0.0429
    9CHL1   H1A  637   1.040  -0.016   9.897 -0.3103  0.5018 -0.7246
    9CHL1   H1B  638   1.069   0.167   9.922  3.3442 -1.5684 -0.7206
    9CHL1    C2  639   1.043   0.061  10.109 -0.4336  0.4055  0.3634
    9CHL1   H2A  640   1.153   0.061  10.127  0.2179  0.7151 -2.9294
    9CHL1   H2B  641   1.009  -0.044  10.126  1.6233 -0.2548  0.7510
    9CHL1   C20  642   0.701   0.151   9.218 -0.4569  0.3499 -0.3016
    9CHL1   H20  643   0.602   0.104   9.235 -1.7332  1.8445 -2.9523
    9CHL1   C21  644   0.813   0.049   9.187  0.4655 -0.1377 -1.2405
    9CHL1  H21A  645   0.799  -0.029   9.265  2.5206  1.0710  0.4588
    9CHL1  H21B  646   0.911   0.100   9.199  1.2104 -1.7945  0.3168
    9CHL1  H21C  647   0.796   0.014   9.083 -3.6860 -2.4189  0.0002
    9CHL1   C22  648   0.668   0.225   9.086  1.1535 -0.1138  0.5521
    9CHL1  H22A  649   0.654   0.148   9.007 -0.8150  1.2457 -0.5153
    9CHL1  H22B  650   0.574   0.284   9.092  1.1473 -0.0258 -0.3372
    9CHL1   C23  651   0.773   0.326   9.024 -0.3447  0.6194 -0.1601
    9CHL1  H23A  652   0.812   0.404   9.092  1.3030  1.4025 -1.8939
    9CHL1  H23B  653   0.859   0.257   9.005 -0.9115 -0.8942  2.3633
    9CHL1   C24  654   0.701   0.387   8.894  0.1830  0.0523 -0.5516
    9CHL1  H24A  655   0.638   0.315   8.837 -0.1608  1.5599 -2.1663
    9CHL1  H24B  656   0.634   0.467   8.934 -0.0917  0.8584 -2.5182
    9CHL1   C25  657   0.800   0.450   8.798  0.0550  0.4687 -0.4854
    9CHL1   H25  658   0.875   0.505   8.859 -1.2300  1.9967 -0.2168
    9CHL1   C26  659   0.865   0.336   8.701  0.9707  0.1405  0.0499
    9CHL1  H26A  660   0.928   0.384   8.623 -0.2952  1.5242 -0.1679
    9CHL1  H26B  661   0.914   0.259   8.764 -1.2028  0.8984  2.9043
    9CHL1  H26C  662   0.779   0.289   8.648 -0.0469  0.6811  1.1558
    9CHL1   C27  663   0.728   0.557   8.712  0.3819  0.4972 -0.5720
    9CHL1  H27A  664   0.787   0.603   8.629  0.1499 -0.1842 -1.1173
    9CHL1  H27B  665   0.642   0.505   8.666  0.0388  0.2639  0.3062
    9CHL1  H27C  666   0.701   0.637   8.784 -0.2500  0.4009 -0.6957
   10CHL1    C3  667   6.772   4.140  10.106 -0.6538  0.0476  0.1446
   10CHL1    H3  668   6.713   4.048  10.125 -1.8887  0.8687  0.3892
   10CHL1    O3  669   6.813   4.191  10.231  0.1563 -0.0770 -0.0837
   10CHL1   H3'  670   6.823   4.286  10.229  0.4310 -0.0854  0.5480
   10CHL1    C4  671   6.886   4.095  10.015 -0.4820  0.7229 -0.8474
   10CHL1   H4A  672   6.960   4.177  10.003  0.7643 -0.3910 -1.0572
   10CHL1   H4B  673   6.939   4.014  10.069 -0.1891  1.6036  0.2447
   10CHL1    C5  674   6.841   4.048   9.881  0.0717  0.3690 -0.3834
   10CHL1    C6  675   6.883   3.930   9.835 -0.0217  0.3339 -0.0352
   10CHL1    H6  676   6.956   3.861   9.879 -1.1499 -0.9826 -0.1497
   10CHL1    C7  677   6.839   3.878   9.699  0.3399  0.3909 -0.1441
   10CHL1   H7A  678   6.925   3.854   9.632 -0.9253 -0.4884 -1.5032
   10CHL1   H7B  679   6.779   3.785   9.715 -2.5460  2.0991 -0.4109
   10CHL1    C8  680   6.763   3.984   9.607 -0.1757 -0.5796 -0.5973
   10CHL1    H8  681   6.828   4.061   9.560 -2.7803  0.3239 -2.9814
   10CHL1   C14  682   6.688   3.926   9.491 -0.0051  0.5041 -0.1675
   10CHL1   H14  683   6.620   3.856   9.543  0.8205 -0.5444 -0.4537
   10CHL1   C15  684   6.770   3.836   9.397  0.3117  0.3289  0.0440
   10CHL1  H15A  685   6.848   3.903   9.354 -0.6807  0.6493 -1.3228
   10CHL1  H15B  686   6.812   3.742   9.440  0.4126  0.1855 -0.3700
   10CHL1   C16  687   6.669   3.805   9.287 -1.2401 -0.7767 -0.2256
   10CHL1  H16A  688   6.721   3.812   9.189 -1.3772 -1.8386 -0.3859
   10CHL1  H16B  689   6.619   3.707   9.306 -1.8670 -0.3614  0.3224
   10CHL1   C17  690   6.559   3.911   9.301  0.1905 -0.6218 -0.0867
   10CHL1   H17  691   6.479   3.850   9.347  0.5414 -1.7186 -0.8833
   10CHL1   C13  692   6.607   4.019   9.403  0.2624  0.2351  0.3668
   10CHL1   C18  693   6.693   4.121   9.339 -0.3689 -0.1712  0.2604
   10CHL1  H18A  694   6.746   4.070   9.256  0.3185  0.3430  0.3655
   10CHL1  H18B  695   6.631   4.192   9.280  0.2673 -0.3658 -0.6597
   10CHL1  H18C  696   6.763   4.181   9.401  1.6268 -1.2144 -0.8818
   10CHL1   C12  697   6.506   4.084   9.497 -0.0137 -0.0456 -0.0013
   10CHL1  H12A  698   6.436   4.153   9.445  1.7364  1.6502 -0.2441
   10CHL1  H12B  699   6.430   4.010   9.527  0.6396 -1.2220 -1.1682
   10CHL1   C11  700   6.574   4.148   9.615  0.2306 -0.5445 -0.5132
   10CHL1  H11A  701   6.633   4.237   9.583 -0.0877 -0.2525 -0.3050
   10CHL1  H11B  702   6.500   4.195   9.683  0.5132  0.1963 -0.6995
   10CHL1    C9  703   6.658   4.060   9.700  0.2164 -0.1776  0.0732
   10CHL1    H9  704   6.588   3.988   9.747 -0.4612  0.6288  0.3231
   10CHL1   C10  705   6.734   4.128   9.816  0.0778  0.1022  0.4480
   10CHL1   C19  706   6.821   4.248   9.755 -0.2087  0.2746  0.0509
   10CHL1  H19A  707   6.890   4.286   9.834  0.1473 -0.6817  0.2127
   10CHL1  H19B  708   6.886   4.235   9.666 -0.5092  0.6262 -0.2221
   10CHL1  H19C  709   6.749   4.331   9.739  0.0085 -0.0383 -3.1702
   10CHL1    C1  710   6.627   4.182   9.910  0.6544 -0.1775 -0.4913
   10CHL1   H1A  711   6.574   4.265   9.859 -1.5372 -0.8270  0.5683
   10CHL1   H1B  712   6.553   4.106   9.944  2.0230 -0.7382  1.4316
   10CHL1    C2  713   6.687   4.244  10.036 -0.2012 -0.1735  0.3025
   10CHL1   H2A  714   6.610   4.274  10.110 -0.3484  0.0045  0.0759
   10CHL1   H2B  715   6.749   4.332  10.012  0.8382 -0.6844  1.0119
   10CHL1   C20  716   6.500   3.956   9.160 -0.0677  0.3224  0.2596
   10CHL1   H20  717   6.579   4.008   9.101  0.2496  0.4825  0.8243
   10CHL1   C21  718   6.375   4.053   9.186 -0.0282 -0.3404 -0.4934
   10CHL1  H21A  719   6.404   4.156   9.215 -1.2172  0.4486 -1.9566
   10CHL1  H21B  720   6.317   3.996   9.261  0.5349 -1.1643 -0.6599
   10CHL1  H21C  721   6.299   4.059   9.105 -0.7102 -2.1121 -0.0431
   10CHL1   C22  722   6.465   3.839   9.066  1.0899  0.0198 -0.1672
   10CHL1  H22A  723   6.560   3.782   9.055  1.0736  0.2437 -1.6591
   10CHL1  H22B  724   6.396   3.767   9.114  2.6831 -0.2057  1.9515
   10CHL1   C23  725   6.406   3.880   8.932  0.3696  0.4021  0.2183
   10CHL1  H23A  726   6.313   3.940   8.924 -0.0952 -0.4784 -1.8494
   10CHL1  H23B  727   6.486   3.937   8.879  0.6968  1.5895  1.9170
   10CHL1   C24  728   6.380   3.744   8.846 -0.3041  0.4039 -0.4904
   10CHL1  H24A  729   6.478   3.693   8.854  1.4511  3.3410 -1.6620
   10CHL1  H24B  730   6.303   3.683   8.898 -0.6502 -0.0252 -1.4915
   10CHL1   C25  731   6.311   3.768   8.706 -0.5262 -0.4711  0.0128
   10CHL1   H25  732   6.216   3.821   8.728 -0.1979 -1.1582  3.9124
   10CHL1   C26  733   6.387   3.858   8.606  0.3008  0.0182  0.2078
   10CHL1  H26A  734   6.479   3.803   8.576 -0.7591 -3.2031  2.3498
   10CHL1  H26B  735   6.312   3.876   8.526  2.0496  1.7414 -1.1370
   10CHL1  H26C  736   6.408   3.957   8.650 -2.3063  0.8659 -0.2822
   10CHL1   C27  737   6.286   3.629   8.645  0.7768  0.0969  0.2706
   10CHL1  H27A  738   6.226   3.642   8.553 -1.8649  0.4493  1.9299
   10CHL1  H27B  739   6.382   3.574   8.640 -0.4360 -2.0760 -0.3838
   10CHL1  H27C  740   6.222   3.563   8.708 -0.6185  1.7238  0.6452
   11CHL1    C3  741   2.486   0.436  10.105 -0.6672 -0.0667  0.6998
   11CHL1    H3  742   2.580   0.494  10.120 -2.4459  3.7113 -1.2902
   11CHL1    O3  743   2.416   0.451  10.228  0.1957 -0.3737  0.0103
   11CHL1   H3'  744   2.478   0.434  10.299  1.3712  1.6436 -0.4605
   11CHL1    C4  745   2.417   0.499   9.983  0.3578  0.0180  0.1913
   11CHL1   H4A  746   2.320   0.444   9.986  1.0405 -1.1723  1.2202
   11CHL1   H4B  747   2.401   0.607  10.002  2.0574 -0.1427  3.1873
   11CHL1    C5  748   2.487   0.465   9.854 -0.2390 -0.2518 -0.3976
   11CHL1    C6  749   2.513   0.572   9.775 -1.1478  0.0018  0.1171
   11CHL1    H6  750   2.474   0.670   9.806 -0.0297  0.3955  0.3228
   11CHL1    C7  751   2.582   0.562   9.641  0.1628  0.8084 -0.0934
   11CHL1   H7A  752   2.535   0.636   9.573  1.6711 -0.0988 -2.2787
   11CHL1   H7B  753   2.693   0.572   9.645  0.1054  1.0403  1.6551
   11CHL1    C8  754   2.577   0.416   9.588 -0.7179 -0.2642 -0.1226
   11CHL1    H8  755   2.473   0.397   9.556 -0.1662 -3.7896 -0.1882
   11CHL1   C14  756   2.659   0.404   9.463 -0.1177  0.2696  0.2158
   11CHL1   H14  757   2.762   0.430   9.496 -0.0901 -1.2922  1.4593
   11CHL1   C15  758   2.627   0.498   9.346  0.1745 -0.1465  0.4946
   11CHL1  H15A  759   2.517   0.511   9.343  0.3737  1.5578 -1.0902
   11CHL1  H15B  760   2.670   0.600   9.359  0.7736 -0.3994  0.5147
   11CHL1   C16  761   2.681   0.425   9.223 -0.1672  0.4048 -0.0782
   11CHL1  H16A  762   2.592   0.408   9.159 -0.8300 -0.0136  0.9305
   11CHL1  H16B  763   2.759   0.484   9.170 -1.0055  0.9290 -0.7354
   11CHL1   C17  764   2.732   0.289   9.273  0.1657 -1.1734 -0.1847
   11CHL1   H17  765   2.839   0.295   9.304  0.4160  0.8233 -1.3174
   11CHL1   C13  766   2.658   0.267   9.403 -0.3414 -0.5502 -0.6646
   11CHL1   C18  767   2.517   0.217   9.374  0.1077 -0.4387 -0.0438
   11CHL1  H18A  768   2.458   0.277   9.301  0.9534 -0.9109 -1.1446
   11CHL1  H18B  769   2.514   0.112   9.337  0.0139 -0.6353  0.5148
   11CHL1  H18C  770   2.449   0.223   9.461 -2.4884  1.7019 -2.0488
   11CHL1   C12  771   2.727   0.172   9.507  0.3898  0.4439  0.7047
   11CHL1  H12A  772   2.725   0.064   9.479 -1.0713  0.5470  0.3321
   11CHL1  H12B  773   2.834   0.199   9.522 -0.1751  2.3683  1.5010
   11CHL1   C11  774   2.655   0.176   9.647 -0.1603  0.6128 -0.1917
   11CHL1  H11A  775   2.574   0.100   9.645  1.3452 -1.0635 -1.1499
   11CHL1  H11B  776   2.731   0.118   9.705 -0.4623 -1.0778 -1.4197
   11CHL1    C9  777   2.619   0.318   9.696  0.1906  0.2124  1.0360
   11CHL1    H9  778   2.720   0.355   9.725  0.6745 -1.0150  1.0144
   11CHL1   C10  779   2.534   0.329   9.827  0.6251  0.2614  0.7831
   11CHL1   C19  780   2.402   0.241   9.807 -0.7295  0.4281  0.6357
   11CHL1  H19A  781   2.359   0.253   9.705 -1.5833  2.1348  1.1654
   11CHL1  H19B  782   2.420   0.133   9.826  2.2527  0.1437 -2.6345
   11CHL1  H19C  783   2.317   0.267   9.873 -1.0118  3.4623 -0.7735
   11CHL1    C1  784   2.607   0.270   9.953 -1.2395 -0.6067 -0.0204
   11CHL1   H1A  785   2.621   0.161   9.936 -0.0401 -0.1246 -2.5320
   11CHL1   H1B  786   2.705   0.322   9.958 -1.4267 -0.3334  1.0378
   11CHL1    C2  787   2.529   0.289  10.085  0.0426  0.0476  0.6298
   11CHL1   H2A  788   2.584   0.247  10.172 -0.4490 -2.2184 -0.0913
   11CHL1   H2B  789   2.436   0.232  10.068  1.6191 -1.7229 -3.4683
   11CHL1   C20  790   2.733   0.187   9.157  0.1276  0.6792  0.4717
   11CHL1   H20  791   2.631   0.193   9.114 -1.4454 -1.0554  3.6256
   11CHL1   C21  792   2.772   0.050   9.212  0.1460 -0.3045  0.2209
   11CHL1  H21A  793   2.831   0.056   9.306 -0.4921 -3.9473  1.0083
   11CHL1  H21B  794   2.827  -0.009   9.136  0.4589 -0.6235  0.6946
   11CHL1  H21C  795   2.686  -0.011   9.247  1.8593 -2.5942  0.6723
   11CHL1   C22  796   2.842   0.219   9.042 -0.3458  0.1558  0.5009
   11CHL1  H22A  797   2.836   0.329   9.030 -1.9583  0.0564  0.2479
   11CHL1  H22B  798   2.944   0.192   9.077 -0.7355 -2.3244 -0.0652
   11CHL1   C23  799   2.787   0.159   8.912 -0.2871 -0.7424 -0.1630
   11CHL1  H23A  800   2.861   0.190   8.836  0.6678  0.3740  1.1685
   11CHL1  H23B  801   2.781   0.048   8.916  0.0940 -0.8102 -1.1708
   11CHL1   C24  802   2.655   0.224   8.858 -0.1323  0.0298 -0.3215
   11CHL1  H24A  803   2.582   0.204   8.939  0.9449 -0.0178  0.6524
   11CHL1  H24B  804   2.678   0.332   8.850  0.4337  0.0993  1.7773
   11CHL1   C25  805   2.604   0.170   8.723 -0.6185  0.1445  0.5964
   11CHL1   H25  806   2.511   0.229   8.710 -1.4208 -1.2587 -0.2792
   11CHL1   C26  807   2.692   0.194   8.606 -0.2513 -0.5586 -0.3598
   11CHL1  H26A  808   2.781   0.127   8.603  0.1804  0.0582 -1.8261
   11CHL1  H26B  809   2.643   0.173   8.509 -1.1341 -0.3650  0.0334
   11CHL1  H26C  810   2.723   0.300   8.607 -0.4747 -0.4415  2.2356
   11CHL1   C27  811   2.555   0.028   8.736  0.3278  0.0594  0.1218
   11CHL1  H27A  812   2.498  -0.001   8.645 -0.0437  0.7703  0.1268
   11CHL1  H27B  813   2.638  -0.046   8.738  1.2907  0.9413 -2.4313
   11CHL1  H27C  814   2.486   0.013   8.821  0.0954  0.1065 -0.0578
   12CHL1    C3  815   5.736   3.309  10.317  0.0393 -0.4677 -0.9016
   12CHL1    H3  816   5.784   3.405  10.288 -0.1429 -0.3948 -0.9593
   12CHL1    O3  817   5.793   3.274  10.445  0.1048  0.3652 -0.3709
   12CHL1   H3'  818   5.740   3.203  10.483 -1.0608  1.8325  0.8279
   12CHL1    C4  819   5.584   3.330  10.330 -0.6037  0.9039 -0.3209
   12CHL1   H4A  820   5.542   3.230  10.353  0.9711  0.7624  2.2597
   12CHL1   H4B  821   5.567   3.389  10.423 -0.3637  2.1702 -1.0634
   12CHL1    C5  822   5.516   3.392  10.216  0.2088 -0.0465 -0.5339
   12CHL1    C6  823   5.439   3.501  10.228  0.9926  0.0787  0.7174
   12CHL1    H6  824   5.422   3.543  10.328 -2.8270 -1.1991  0.7556
   12CHL1    C7  825   5.369   3.556  10.108 -0.2668 -0.1895  0.0786
   12CHL1   H7A  826   5.267   3.592  10.133 -0.4074  0.3862 -1.2737
   12CHL1   H7B  827   5.424   3.645  10.070 -0.4492 -0.2443 -0.3098
   12CHL1    C8  828   5.365   3.459   9.982 -0.0192 -0.2239 -0.1557
   12CHL1    H8  829   5.289   3.380   9.999  0.7965 -0.5693  2.5137
   12CHL1   C14  830   5.334   3.529   9.854 -0.1709  0.0065  0.1158
   12CHL1   H14  831   5.415   3.603   9.838  0.3947 -0.8340 -1.1328
   12CHL1   C15  832   5.205   3.613   9.855  0.0523 -0.7414 -0.4689
   12CHL1  H15A  833   5.127   3.548   9.901  1.1222 -1.0396  0.9791
   12CHL1  H15B  834   5.217   3.698   9.925 -0.8053 -1.2534  0.3356
   12CHL1   C16  835   5.175   3.634   9.706  0.8326 -0.1769 -1.0314
   12CHL1  H16A  836   5.073   3.601   9.678  0.3250  0.9664 -0.5905
   12CHL1  H16B  837   5.183   3.743   9.687 -0.2322 -0.0994 -1.0629
   12CHL1   C17  838   5.288   3.553   9.629  0.7214  0.2294 -0.4733
   12CHL1   H17  839   5.371   3.627   9.628  0.8501  0.0783 -1.1919
   12CHL1   C13  840   5.328   3.440   9.724 -0.9416  0.7743  0.5289
   12CHL1   C18  841   5.237   3.318   9.723  0.4178 -0.5953 -0.0008
   12CHL1  H18A  842   5.254   3.265   9.626  2.0220  2.3619 -1.4634
   12CHL1  H18B  843   5.267   3.247   9.803 -1.7989 -0.3265  1.1502
   12CHL1  H18C  844   5.133   3.354   9.738  0.8476 -0.2617  2.4390
   12CHL1   C12  845   5.480   3.386   9.702 -0.2646 -0.6173  0.0632
   12CHL1  H12A  846   5.482   3.314   9.617 -2.2268  0.5512 -1.0564
   12CHL1  H12B  847   5.542   3.477   9.689 -2.9687  1.7066  2.2517
   12CHL1   C11  848   5.525   3.318   9.833  0.0589  0.4083  0.4880
   12CHL1  H11A  849   5.468   3.224   9.849 -1.1491  0.9108 -0.7765
   12CHL1  H11B  850   5.631   3.284   9.824 -0.1997 -0.0232 -1.4373
   12CHL1    C9  851   5.501   3.391   9.974  0.9967 -0.8964  0.8933
   12CHL1    H9  852   5.579   3.470   9.971  0.2505 -0.1766 -0.2424
   12CHL1   C10  853   5.539   3.305  10.089 -0.0177  0.8002  0.9801
   12CHL1   C19  854   5.437   3.182  10.106  0.4885 -0.3160 -0.4731
   12CHL1  H19A  855   5.465   3.124  10.197 -1.0605 -1.0794 -0.4479
   12CHL1  H19B  856   5.329   3.206  10.117  0.1149 -1.7806 -0.7971
   12CHL1  H19C  857   5.444   3.109  10.023  1.7995 -3.2481  2.0353
   12CHL1    C1  858   5.690   3.254  10.082  0.0938  0.3369  0.2342
   12CHL1   H1A  859   5.700   3.170  10.009  1.0072 -3.2657  4.1071
   12CHL1   H1B  860   5.751   3.345  10.066  0.6524  0.2697  1.7940
   12CHL1    C2  861   5.753   3.204  10.213 -0.0462  0.1143 -1.0440
   12CHL1   H2A  862   5.863   3.207  10.200  0.1367  2.9077  0.4545
   12CHL1   H2B  863   5.725   3.105  10.257  0.1596  1.1512  1.5962
   12CHL1   C20  864   5.248   3.517   9.487  0.3428 -0.2987 -0.2279
   12CHL1   H20  865   5.165   3.443   9.493 -0.8249  1.0053  0.3017
   12CHL1   C21  866   5.360   3.455   9.402  0.0671 -0.5629 -0.4146
   12CHL1  H21A  867   5.318   3.426   9.303  0.5045  0.0540 -0.7834
   12CHL1  H21B  868   5.384   3.356   9.448 -0.3850 -0.0281  1.0334
   12CHL1  H21C  869   5.449   3.521   9.392  1.6592 -2.4749  0.4372
   12CHL1   C22  870   5.199   3.649   9.415 -0.4249  0.3073  0.5146
   12CHL1  H22A  871   5.112   3.696   9.467 -0.5077 -0.6628  1.2748
   12CHL1  H22B  872   5.275   3.729   9.405 -1.1300  1.3419  2.7289
   12CHL1   C23  873   5.132   3.608   9.282  0.2655  0.0414  0.0929
   12CHL1  H23A  874   5.197   3.558   9.207  1.7604  1.0385  0.6869
   12CHL1  H23B  875   5.063   3.524   9.306 -0.0939  1.1498  3.4464
   12CHL1   C24  876   5.026   3.709   9.229 -0.7866 -0.3339 -0.4138
   12CHL1  H24A  877   4.944   3.737   9.299  0.3008  1.1628  0.2970
   12CHL1  H24B  878   5.081   3.800   9.197 -2.4758  0.9321  0.1284
   12CHL1   C25  879   4.961   3.656   9.100 -0.2446  0.2193  0.0449
   12CHL1   H25  880   4.919   3.558   9.132  0.7795 -0.7456 -1.4268
   12CHL1   C26  881   4.847   3.748   9.059  0.6153 -0.1455  0.0823
   12CHL1  H26A  882   4.776   3.775   9.140 -0.2638  0.3728 -0.8291
   12CHL1  H26B  883   4.890   3.846   9.027  1.4940 -0.4739  0.2137
   12CHL1  H26C  884   4.785   3.724   8.970 -0.8774  1.7893  0.5237
   12CHL1   C27  885   5.043   3.636   8.968  0.1532  0.2723  0.0529
   12CHL1  H27A  886   4.995   3.593   8.877  0.0369  1.5367 -0.5094
   12CHL1  H27B  887   5.082   3.738   8.946  1.1402 -0.0875  0.0945
   12CHL1  H27C  888   5.134   3.577   8.989 -2.2917 -3.4869  1.0804
   13CHL1    C3  889   4.352   5.464   9.817 -0.6231 -0.0364  0.1935
   13CHL1    H3  890   4.305   5.364   9.804  1.1246 -0.6786 -1.6132
   13CHL1    O3  891   4.408   5.473   9.947 -0.2142 -0.0480 -0.4511
   13CHL1   H3'  892   4.444   5.562   9.948  0.8247 -0.4634  0.3424
   13CHL1    C4  893   4.466   5.460   9.711  0.2832 -0.1834  0.0580
   13CHL1   H4A  894   4.532   5.546   9.737 -1.0396  0.7064  0.5751
   13CHL1   H4B  895   4.530   5.370   9.725  1.6886  0.7937  0.1745
   13CHL1    C5  896   4.411   5.465   9.570  0.3162 -0.2087 -0.7237
   13CHL1    C6  897   4.458   5.380   9.478  0.1524  0.6356  0.5080
   13CHL1    H6  898   4.548   5.320   9.499  2.3602  2.7323 -2.2020
   13CHL1    C7  899   4.407   5.386   9.339 -0.4485  0.4927  0.2678
   13CHL1   H7A  900   4.501   5.382   9.279 -0.4321 -0.8080  0.3505
   13CHL1   H7B  901   4.345   5.299   9.308  0.5917  0.0397 -0.5905
   13CHL1    C8  902   4.329   5.517   9.307 -0.0744  0.8903  0.3235
   13CHL1    H8  903   4.404   5.598   9.292  1.9138 -1.0115 -0.5575
   13CHL1   C14  904   4.259   5.510   9.174  0.1361  0.5193 -0.1504
   13CHL1   H14  905   4.192   5.424   9.196  0.6240  0.9089  3.3333
   13CHL1   C15  906   4.333   5.463   9.052 -0.1648  0.6207  0.1380
   13CHL1  H15A  907   4.437   5.501   9.060  0.1772  0.1356 -1.5220
   13CHL1  H15B  908   4.342   5.352   9.058  1.0241  0.7489  1.1568
   13CHL1   C16  909   4.252   5.511   8.929 -0.7308 -0.2295  0.0028
   13CHL1  H16A  910   4.307   5.578   8.860 -2.1377 -0.1988 -1.1511
   13CHL1  H16B  911   4.209   5.420   8.882  1.9890 -1.6145  0.0024
   13CHL1   C17  912   4.138   5.592   8.995  0.9708 -0.6525  0.1935
   13CHL1   H17  913   4.051   5.523   9.010  2.0171 -2.2941 -0.8961
   13CHL1   C13  914   4.183   5.633   9.136  0.4575  0.3641  0.1485
   13CHL1   C18  915   4.283   5.747   9.116 -0.5292 -0.2741  0.3321
   13CHL1  H18A  916   4.344   5.777   9.204 -0.5961  0.2550  0.2032
   13CHL1  H18B  917   4.361   5.714   9.044 -0.1231 -1.2218  1.1847
   13CHL1  H18C  918   4.242   5.844   9.081 -1.8547 -0.6834  0.7071
   13CHL1   C12  919   4.070   5.662   9.239 -0.7345  0.1265  0.6533
   13CHL1  H12A  920   4.013   5.754   9.213  0.3185 -0.0850 -2.9169
   13CHL1  H12B  921   4.006   5.571   9.239  0.7171 -0.9751  2.3158
   13CHL1   C11  922   4.138   5.684   9.372  0.1621  1.0306  0.1227
   13CHL1  H11A  923   4.207   5.770   9.358  1.3177  0.1127  0.0311
   13CHL1  H11B  924   4.063   5.708   9.450  2.2394  1.0181  2.2111
   13CHL1    C9  925   4.225   5.554   9.416 -0.6940  0.0572 -0.0165
   13CHL1    H9  926   4.165   5.460   9.423 -1.3906  0.6044  2.1921
   13CHL1   C10  927   4.303   5.579   9.550 -0.0294  0.0205 -0.1265
   13CHL1   C19  928   4.376   5.724   9.547 -0.8881  0.0513 -0.5063
   13CHL1  H19A  929   4.436   5.728   9.453  0.2984 -1.9136  0.1070
   13CHL1  H19B  930   4.300   5.805   9.543 -0.7734  0.1900 -0.0225
   13CHL1  H19C  931   4.447   5.744   9.630  1.0780  0.3092 -2.1598
   13CHL1    C1  932   4.201   5.586   9.661  1.3067  0.0096 -0.0530
   13CHL1   H1A  933   4.124   5.665   9.660 -1.6694 -2.6719 -0.1178
   13CHL1   H1B  934   4.149   5.489   9.645  2.0388 -0.2279 -1.1060
   13CHL1    C2  935   4.253   5.580   9.802 -0.0895  0.4342  0.1690
   13CHL1   H2A  936   4.171   5.569   9.876  0.9382 -1.1919  1.1422
   13CHL1   H2B  937   4.298   5.677   9.831 -0.0090  0.7738 -1.0366
   13CHL1   C20  938   4.094   5.706   8.898  0.0076  0.6075  0.1750
   13CHL1   H20  939   4.171   5.784   8.881  0.6540 -0.4742 -2.3762
   13CHL1   C21  940   3.962   5.768   8.954  0.3685 -0.4229  0.1580
   13CHL1  H21A  941   3.993   5.832   9.039  1.7108 -2.1974  1.0848
   13CHL1  H21B  942   3.897   5.685   8.988 -0.5293  0.9994  2.0603
   13CHL1  H21C  943   3.902   5.835   8.889  0.5805 -0.1419  0.2503
   13CHL1   C22  944   4.059   5.654   8.755 -0.2266 -0.0113 -0.7221
   13CHL1  H22A  945   4.146   5.601   8.711  0.9278  1.5722 -0.4353
   13CHL1  H22B  946   3.981   5.574   8.758  0.3320 -0.6211 -1.9562
   13CHL1   C23  947   4.036   5.770   8.660  0.5296  0.0125  0.6202
   13CHL1  H23A  948   3.945   5.827   8.691 -1.7220  0.1928 -5.1388
   13CHL1  H23B  949   4.117   5.846   8.663  0.9179 -0.4131  1.1209
   13CHL1   C24  950   4.006   5.738   8.510  0.0784  0.0739 -0.8393
   13CHL1  H24A  951   4.092   5.679   8.473  1.0738 -1.7750  3.7238
   13CHL1  H24B  952   3.911   5.680   8.507 -1.9068  2.6950  2.7581
   13CHL1   C25  953   3.978   5.856   8.421  0.0750  0.2319 -0.1489
   13CHL1   H25  954   3.888   5.913   8.449  0.0316  0.5142 -0.8432
   13CHL1   C26  955   4.090   5.963   8.434  0.5026 -0.1800  0.3513
   13CHL1  H26A  956   4.191   5.918   8.432 -0.1979 -1.7990 -0.3104
   13CHL1  H26B  957   4.071   6.046   8.363 -1.1593 -0.7672  0.0579
   13CHL1  H26C  958   4.094   6.005   8.537 -1.2483 -1.6370  1.0887
   13CHL1   C27  959   3.964   5.812   8.272  0.2188 -0.4227  0.7197
   13CHL1  H27A  960   4.010   5.886   8.203  1.1332  0.1272  1.8775
   13CHL1  H27B  961   4.020   5.717   8.264 -0.3424 -0.9908  2.9488
   13CHL1  H27C  962   3.856   5.791   8.258  0.1635 -0.2752  0.9278
   14CHL1    C3  963   4.258   1.893  10.316  0.0029  0.3844 -0.2773
   14CHL1    H3  964   4.313   1.990  10.315  2.5519 -0.9976 -1.9128
   14CHL1    O3  965   4.236   1.861  10.451 -0.1543 -0.1112  0.3204
   14CHL1   H3'  966   4.212   1.768  10.451  0.2458 -0.2229  1.4616
   14CHL1    C4  967   4.122   1.896  10.246 -0.2296  0.0191  0.4892
   14CHL1   H4A  968   4.057   1.809  10.270  0.8174 -0.6068  1.1069
   14CHL1   H4B  969   4.058   1.979  10.284  0.4352  0.4707  0.6476
   14CHL1    C5  970   4.138   1.913  10.097  0.1690  0.3944 -0.5957
   14CHL1    C6  971   4.062   2.003  10.032  0.6221 -0.1156  0.8551
   14CHL1    H6  972   3.990   2.064  10.089  2.1109  1.3990  1.2125
   14CHL1    C7  973   4.080   2.024   9.885  0.1640  0.7412 -0.1005
   14CHL1   H7A  974   3.985   2.047   9.832 -0.3899  1.3881  1.1242
   14CHL1   H7B  975   4.150   2.110   9.872  2.2370 -0.8853 -0.1363
   14CHL1    C8  976   4.152   1.905   9.807  0.5567  0.1817 -0.2053
   14CHL1    H8  977   4.086   1.816   9.808  0.4471  0.2405 -1.1350
   14CHL1   C14  978   4.187   1.939   9.662 -0.2279 -0.5499  0.1885
   14CHL1   H14  979   4.260   2.022   9.665 -0.9331  0.0636  2.2210
   14CHL1   C15  980   4.070   1.990   9.578 -0.3463  0.6299 -0.5693
   14CHL1  H15A  981   3.986   1.918   9.584 -0.6932  1.1593  1.3869
   14CHL1  H15B  982   4.052   2.098   9.597 -2.4709  0.0418  1.1989
   14CHL1   C16  983   4.133   1.986   9.436  0.7588 -0.4279  0.5520
   14CHL1  H16A  984   4.055   1.936   9.375  0.3007 -0.1113  0.8718
   14CHL1  H16B  985   4.129   2.086   9.388 -0.0146 -0.6518  0.1329
   14CHL1   C17  986   4.270   1.915   9.442  0.4201  0.6486  0.2755
   14CHL1   H17  987   4.353   1.988   9.436 -0.7894  2.0776  0.3788
   14CHL1   C13  988   4.266   1.838   9.577  0.3653 -0.5109 -0.8713
   14CHL1   C18  989   4.179   1.711   9.568 -0.0896  0.1956 -0.2184
   14CHL1  H18A  990   4.127   1.679   9.661 -0.0615 -1.2106 -0.6708
   14CHL1  H18B  991   4.098   1.722   9.493 -0.0765 -2.1889 -0.6645
   14CHL1  H18C  992   4.237   1.622   9.536 -0.6016 -1.0380  2.0611
   14CHL1   C12  993   4.397   1.816   9.656 -0.1392  0.0149  0.0075
   14CHL1  H12A  994   4.447   1.734   9.600 -0.0089 -1.2372  1.8439
   14CHL1  H12B  995   4.462   1.906   9.656  1.5556 -1.1664 -1.0409
   14CHL1   C11  996   4.364   1.766   9.801  0.0278  0.8736 -0.3481
   14CHL1  H11A  997   4.314   1.668   9.785  1.3324  0.3798 -1.7120
   14CHL1  H11B  998   4.465   1.761   9.848  0.6353  0.2991 -1.6440
   14CHL1    C9  999   4.278   1.866   9.879 -0.1320  0.5557 -0.0683
   14CHL1    H9 1000   4.345   1.954   9.880 -1.0699  1.2849  0.4046
   14CHL1   C10 1001   4.244   1.822  10.030 -1.3402 -0.3295  0.2648
   14CHL1   C19 1002   4.195   1.673  10.021 -0.5364  0.2155 -0.5462
   14CHL1  H19A 1003   4.105   1.680   9.957 -1.0156 -0.7420 -0.0086
   14CHL1  H19B 1004   4.270   1.605   9.976 -0.1468 -1.6750  2.5796
   14CHL1  H19C 1005   4.176   1.627  10.121  0.1505  2.8702  0.8941
   14CHL1    C1 1006   4.385   1.825  10.112  0.3090 -0.1935  0.2319
   14CHL1   H1A 1007   4.453   1.751  10.065 -1.1159 -0.7499 -1.0370
   14CHL1   H1B 1008   4.424   1.926  10.089 -0.1052 -0.1936 -0.4861
   14CHL1    C2 1009   4.356   1.790  10.256 -0.4589 -0.4774 -0.0190
   14CHL1   H2A 1010   4.449   1.809  10.315  0.2474 -1.1630 -0.8856
   14CHL1   H2B 1011   4.325   1.685  10.272  2.1665 -1.4810 -0.9140
   14CHL1   C20 1012   4.292   1.836   9.309 -0.5695  0.2328 -0.5940
   14CHL1   H20 1013   4.207   1.765   9.300 -0.8672 -0.0796  3.1537
   14CHL1   C21 1014   4.423   1.754   9.315  0.1757  0.0796 -0.0199
   14CHL1  H21A 1015   4.420   1.673   9.391  2.2647  0.1650  0.2116
   14CHL1  H21B 1016   4.514   1.818   9.322 -1.3708  2.5646 -1.1573
   14CHL1  H21C 1017   4.440   1.704   9.217  0.5082  0.7140 -0.2888
   14CHL1   C22 1018   4.308   1.927   9.186  0.3313 -0.1764 -0.0162
   14CHL1  H22A 1019   4.298   2.035   9.211  0.1139  0.1002 -1.2254
   14CHL1  H22B 1020   4.412   1.908   9.152 -0.0429 -1.7252 -0.3390
   14CHL1   C23 1021   4.209   1.907   9.068  0.1205  0.4177  0.1970
   14CHL1  H23A 1022   4.262   1.839   8.997  1.2906  0.4356  1.0305
   14CHL1  H23B 1023   4.121   1.858   9.117  0.1370  0.3246  0.1340
   14CHL1   C24 1024   4.169   2.034   8.992  0.1790 -0.7420  0.0843
   14CHL1  H24A 1025   4.151   2.114   9.066 -0.2639  0.7504 -1.5668
   14CHL1  H24B 1026   4.245   2.066   8.918  0.0433 -0.0844  0.2198
   14CHL1   C25 1027   4.045   2.011   8.905 -0.1055 -0.0417  0.6663
   14CHL1   H25 1028   3.961   1.998   8.976  0.5044 -1.7770  1.1099
   14CHL1   C26 1029   4.010   2.144   8.818 -0.8283 -0.1256 -0.0503
   14CHL1  H26A 1030   3.919   2.139   8.756  0.2017  2.7563 -2.0482
   14CHL1  H26B 1031   3.978   2.227   8.885 -0.7676 -2.0239  2.4842
   14CHL1  H26C 1032   4.095   2.175   8.753 -1.5588  2.1459 -0.0165
   14CHL1   C27 1033   4.063   1.893   8.803 -0.5977 -0.4686 -0.2979
   14CHL1  H27A 1034   4.079   1.787   8.835 -0.6619 -0.5045 -0.3833
   14CHL1  H27B 1035   3.972   1.892   8.738 -0.5832  0.6956 -0.3466
   14CHL1  H27C 1036   4.146   1.923   8.736 -0.5989  0.4335  0.1036
   15CHL1    C3 1037   4.165   0.635  10.127 -0.5117 -0.0720  0.6057
   15CHL1    H3 1038   4.255   0.571  10.115 -2.6455 -2.9298 -1.6647
   15CHL1    O3 1039   4.113   0.626  10.261 -0.6927 -0.4593  0.2539
   15CHL1   H3' 1040   4.064   0.709  10.264 -2.3306 -1.3326 -0.6783
   15CHL1    C4 1041   4.198   0.780  10.094  0.2515  0.0028  0.0844
   15CHL1   H4A 1042   4.119   0.855  10.113  0.7589  1.1299 -1.9485
   15CHL1   H4B 1043   4.283   0.800  10.163 -0.4126  0.1866  0.8662
   15CHL1    C5 1044   4.258   0.786   9.956  0.4817  0.5184  0.1686
   15CHL1    C6 1045   4.377   0.839   9.935  0.6039 -0.4548  0.3120
   15CHL1    H6 1046   4.428   0.869  10.028 -1.8320  0.2211  1.5231
   15CHL1    C7 1047   4.449   0.867   9.805 -0.7246  0.2906  0.5221
   15CHL1   H7A 1048   4.495   0.967   9.792  3.4939 -1.8001 -4.4336
   15CHL1   H7B 1049   4.533   0.795   9.789  0.4282  1.8122 -0.6479
   15CHL1    C8 1050   4.353   0.850   9.688  0.2781  0.3434  0.9509
   15CHL1    H8 1051   4.284   0.937   9.688 -0.5757 -0.1561 -2.6539
   15CHL1   C14 1052   4.423   0.822   9.560 -0.1668 -0.3506 -0.1601
   15CHL1   H14 1053   4.469   0.722   9.574  2.0761  0.7085  0.4322
   15CHL1   C15 1054   4.554   0.906   9.527 -0.3867  0.3800  0.3551
   15CHL1  H15A 1055   4.542   1.015   9.549  0.9266  0.6913 -0.3136
   15CHL1  H15B 1056   4.638   0.865   9.587  0.0554  0.4474 -0.2041
   15CHL1   C16 1057   4.578   0.887   9.373 -0.3819  0.6049 -0.6341
   15CHL1  H16A 1058   4.584   0.983   9.317  1.0814 -1.1591 -3.7471
   15CHL1  H16B 1059   4.668   0.826   9.350  0.0331  0.7457  0.5336
   15CHL1   C17 1060   4.457   0.796   9.325  0.4311 -0.7263 -0.5939
   15CHL1   H17 1061   4.486   0.689   9.330 -0.5073 -1.0908 -2.3284
   15CHL1   C13 1062   4.343   0.823   9.421  0.0918  0.0726  0.7972
   15CHL1   C18 1063   4.269   0.959   9.407  0.5095  0.0492 -0.2688
   15CHL1  H18A 1064   4.343   1.041   9.415  0.3242  0.1089  1.0152
   15CHL1  H18B 1065   4.207   0.960   9.314 -0.3424  2.0708  0.2780
   15CHL1  H18C 1066   4.194   0.970   9.488 -0.3610 -1.7103 -0.7753
   15CHL1   C12 1067   4.243   0.711   9.436 -0.4499  0.4152  0.1158
   15CHL1  H12A 1068   4.176   0.710   9.347  1.8983 -1.4110 -1.7983
   15CHL1  H12B 1069   4.295   0.613   9.431  0.1871  0.8009 -2.0749
   15CHL1   C11 1070   4.172   0.720   9.575  0.1801 -0.0391 -0.0364
   15CHL1  H11A 1071   4.102   0.806   9.574 -0.6988 -0.6560  2.3425
   15CHL1  H11B 1072   4.105   0.632   9.581  1.2050 -0.9928 -1.7890
   15CHL1    C9 1073   4.254   0.730   9.702 -0.0358 -1.1299 -0.0843
   15CHL1    H9 1074   4.315   0.637   9.706 -1.1768 -1.9002  4.5020
   15CHL1   C10 1075   4.168   0.738   9.839  0.3756 -0.1099  0.0820
   15CHL1   C19 1076   4.051   0.839   9.822  0.4789  0.3786 -0.6449
   15CHL1  H19A 1077   4.077   0.945   9.799  1.4362 -0.3983 -3.6131
   15CHL1  H19B 1078   3.982   0.802   9.743 -0.2331  1.2179 -0.4441
   15CHL1  H19C 1079   3.980   0.849   9.907  0.4311 -0.7260 -0.5501
   15CHL1    C1 1080   4.115   0.596   9.871  0.8653 -0.5484  0.7571
   15CHL1   H1A 1081   4.026   0.587   9.805 -0.0784  0.9888  1.7366
   15CHL1   H1B 1082   4.194   0.525   9.840  1.4207  1.0023 -1.6544
   15CHL1    C2 1083   4.071   0.576  10.020 -0.4577 -0.0717  0.3131
   15CHL1   H2A 1084   4.069   0.466  10.041  2.1490 -0.3054 -0.2783
   15CHL1   H2B 1085   3.979   0.634  10.042  0.3618  0.9934  0.9930
   15CHL1   C20 1086   4.432   0.831   9.176 -0.1945 -0.1509 -0.6232
   15CHL1   H20 1087   4.398   0.936   9.164  0.2609  0.0519 -0.1619
   15CHL1   C21 1088   4.312   0.751   9.133  0.3964  0.4140 -0.4112
   15CHL1  H21A 1089   4.311   0.748   9.022 -1.3951 -0.9083 -0.3969
   15CHL1  H21B 1090   4.221   0.807   9.164 -0.0024  0.3943 -1.5150
   15CHL1  H21C 1091   4.302   0.649   9.175 -1.2748  1.7510  2.7915
   15CHL1   C22 1092   4.563   0.805   9.089  0.2017 -0.1723  0.4135
   15CHL1  H22A 1093   4.640   0.884   9.107 -0.1244  0.8878 -2.3857
   15CHL1  H22B 1094   4.597   0.702   9.112 -0.4010  0.1203  2.9398
   15CHL1   C23 1095   4.534   0.804   8.939  0.4335 -0.5246  0.4170
   15CHL1  H23A 1096   4.483   0.708   8.918 -0.3216  0.0060 -0.2568
   15CHL1  H23B 1097   4.461   0.882   8.907  0.0802 -2.4602 -4.3985
   15CHL1   C24 1098   4.670   0.819   8.854 -0.5372  0.1764 -0.6374
   15CHL1  H24A 1099   4.715   0.916   8.883 -0.5570  0.3415 -1.1393
   15CHL1  H24B 1100   4.740   0.738   8.882  0.2721  0.9921 -0.2413
   15CHL1   C25 1101   4.638   0.804   8.703 -0.5857  0.3989 -0.0436
   15CHL1   H25 1102   4.570   0.717   8.690 -0.8902  0.5817  0.3382
   15CHL1   C26 1103   4.567   0.924   8.641 -0.6779 -0.1540  0.2940
   15CHL1  H26A 1104   4.550   0.913   8.532 -0.5157 -2.4699  0.4583
   15CHL1  H26B 1105   4.471   0.947   8.692 -0.3956  0.8122  0.4037
   15CHL1  H26C 1106   4.632   1.012   8.658  0.7540 -1.3508  1.3055
   15CHL1   C27 1107   4.772   0.776   8.623 -0.1354  0.4280  0.4266
   15CHL1  H27A 1108   4.834   0.867   8.621  0.2632  0.1417 -0.5252
   15CHL1  H27B 1109   4.832   0.705   8.683 -3.7783 -1.7045  1.9381
   15CHL1  H27C 1110   4.751   0.753   8.517  3.1953  1.1461 -0.4936
   16CHL1    C3 1111   5.012   1.319  10.310 -0.2421 -0.4306  0.4519
   16CHL1    H3 1112   4.939   1.402  10.295 -0.8048 -0.9195  0.4649
   16CHL1    O3 1113   5.032   1.297  10.445  0.6039 -0.2235 -0.3805
   16CHL1   H3' 1114   5.121   1.324  10.469  0.0702  2.9888 -1.5396
   16CHL1    C4 1115   4.954   1.191  10.257 -0.1916 -0.6332  0.2120
   16CHL1   H4A 1116   5.017   1.103  10.281 -1.2535 -2.0158 -1.7880
   16CHL1   H4B 1117   4.856   1.181  10.309 -1.4640 -0.3977 -2.0210
   16CHL1    C5 1118   4.935   1.192  10.104  0.7267 -0.3388  0.4946
   16CHL1    C6 1119   4.817   1.175  10.046 -0.8492  0.7614  0.1695
   16CHL1    H6 1120   4.729   1.158  10.109 -0.0770  0.4679  1.2117
   16CHL1    C7 1121   4.800   1.176   9.895 -0.4421 -0.6819  0.1528
   16CHL1   H7A 1122   4.742   1.087   9.864 -1.2468  0.3891 -1.5442
   16CHL1   H7B 1123   4.739   1.267   9.876 -1.0615 -0.4706  2.7454
   16CHL1    C8 1124   4.932   1.185   9.810 -0.2785  0.7079 -0.0685
   16CHL1    H8 1125   4.969   1.080   9.805  0.3059  0.8111  1.4439
   16CHL1   C14 1126   4.904   1.241   9.673  0.4657 -0.2651  0.4777
   16CHL1   H14 1127   4.868   1.345   9.689  0.3330 -0.3032  0.4250
   16CHL1   C15 1128   4.802   1.170   9.588  0.7585 -0.7675  0.9172
   16CHL1  H15A 1129   4.820   1.061   9.596 -1.3349 -1.0203  2.9144
   16CHL1  H15B 1130   4.694   1.181   9.610  0.7487 -4.3399  3.5607
   16CHL1   C16 1131   4.835   1.220   9.450  0.4333  0.0049  0.1792
   16CHL1  H16A 1132   4.849   1.134   9.381 -0.1741 -0.3081  0.4414
   16CHL1  H16B 1133   4.750   1.281   9.413  0.6514  0.1025 -0.1633
   16CHL1   C17 1134   4.971   1.300   9.451  1.5286  0.1284  0.2863
   16CHL1   H17 1135   4.943   1.407   9.461 -2.5516 -0.3061 -3.4282
   16CHL1   C13 1136   5.031   1.247   9.584 -0.6989 -0.2539  0.6713
   16CHL1   C18 1137   5.098   1.106   9.558  0.0008 -0.4023 -0.5987
   16CHL1  H18A 1138   5.158   1.099   9.465  1.4813  2.0195  0.0613
   16CHL1  H18B 1139   5.173   1.077   9.635 -0.9740 -3.1762 -0.6080
   16CHL1  H18C 1140   5.024   1.024   9.566  0.3109 -0.6999 -0.7162
   16CHL1   C12 1141   5.142   1.339   9.646 -0.0580 -0.4046 -0.0056
   16CHL1  H12A 1142   5.235   1.321   9.588 -0.8144 -0.1332 -1.3682
   16CHL1  H12B 1143   5.104   1.444   9.641  1.2583  0.1027  0.3609
   16CHL1   C11 1144   5.166   1.295   9.788 -0.6931  0.0176 -0.1844
   16CHL1  H11A 1145   5.221   1.198   9.793 -0.9117 -0.0666  0.8421
   16CHL1  H11B 1146   5.218   1.380   9.837 -2.0359  1.6261 -1.4471
   16CHL1    C9 1147   5.039   1.269   9.882  0.8122 -0.2055  0.4712
   16CHL1    H9 1148   4.986   1.366   9.878  3.5074  1.4050  1.3328
   16CHL1   C10 1149   5.059   1.238  10.027  0.1384  0.3471  0.1309
   16CHL1   C19 1150   5.156   1.111  10.035  0.0986 -1.2520  0.4300
   16CHL1  H19A 1151   5.253   1.144   9.992 -1.2280  2.1226 -0.3108
   16CHL1  H19B 1152   5.178   1.088  10.142  0.5750  2.9466  1.4409
   16CHL1  H19C 1153   5.102   1.027   9.987 -2.1978 -0.2143  1.0521
   16CHL1    C1 1154   5.129   1.361  10.093 -0.1434 -0.4362  0.0261
   16CHL1   H1A 1155   5.229   1.375  10.047 -0.4834  2.7493  0.0704
   16CHL1   H1B 1156   5.073   1.451  10.060  0.5623 -0.6686 -1.9555
   16CHL1    C2 1157   5.145   1.358  10.244  0.0703  0.5374  0.6235
   16CHL1   H2A 1158   5.178   1.459  10.278 -0.8160  0.9183  0.3749
   16CHL1   H2B 1159   5.223   1.282  10.268  0.7055  1.1716  0.6221
   16CHL1   C20 1160   5.049   1.287   9.317  0.2027  0.0638  0.4476
   16CHL1   H20 1161   5.083   1.182   9.304  1.8964  0.5182  0.9354
   16CHL1   C21 1162   5.169   1.382   9.316  0.1900  0.5982  0.0275
   16CHL1  H21A 1163   5.216   1.385   9.216  2.2082  0.8096  0.9202
   16CHL1  H21B 1164   5.245   1.337   9.384  1.7993  2.8818 -0.1439
   16CHL1  H21C 1165   5.153   1.491   9.330  0.0339  0.6477 -0.5088
   16CHL1   C22 1166   4.952   1.323   9.199  1.0842  0.3713 -0.6504
   16CHL1  H22A 1167   4.869   1.249   9.198  1.2809  0.1064  0.7833
   16CHL1  H22B 1168   4.917   1.428   9.210  2.1399  0.8627 -1.7368
   16CHL1   C23 1169   5.014   1.320   9.059 -0.0554  0.3067 -0.2389
   16CHL1  H23A 1170   5.060   1.418   9.035  1.0123  0.1462  1.0250
   16CHL1  H23B 1171   5.094   1.243   9.054  0.1075  0.4747 -0.2487
   16CHL1   C24 1172   4.907   1.298   8.960 -0.2873  0.4095 -0.0293
   16CHL1  H24A 1173   4.864   1.196   8.967 -0.1542  0.3078 -0.6563
   16CHL1  H24B 1174   4.822   1.367   8.979 -1.2907 -0.4320 -1.2861
   16CHL1   C25 1175   4.956   1.309   8.815  0.2565  0.3323 -0.7506
   16CHL1   H25 1176   5.002   1.410   8.809 -0.9243  1.0283  0.9932
   16CHL1   C26 1177   5.062   1.212   8.778 -0.9270  0.1604  0.2251
   16CHL1  H26A 1178   5.153   1.248   8.830  0.3267 -3.1151  0.5553
   16CHL1  H26B 1179   5.032   1.111   8.813  1.7700 -1.2589 -1.2163
   16CHL1  H26C 1180   5.082   1.219   8.669  0.3932  0.6109  0.4790
   16CHL1   C27 1181   4.839   1.293   8.709 -0.2197  0.8499 -0.4538
   16CHL1  H27A 1182   4.798   1.190   8.714  0.9046  0.3772  4.8608
   16CHL1  H27B 1183   4.755   1.358   8.741 -0.9095 -1.2606  2.4558
   16CHL1  H27C 1184   4.879   1.321   8.609 -2.5020 -1.2409 -2.0623
   17CHL1    C3 1185   0.576   5.200  10.433  1.3917  0.3224 -1.3676
   17CHL1    H3 1186   0.475   5.159  10.412  1.2280  0.4941 -0.9342
   17CHL1    O3 1187   0.598   5.218  10.573 -0.0610 -0.2643  0.1698
   17CHL1   H3' 1188   0.523   5.272  10.600  0.2821 -0.8475  2.4336
   17CHL1    C4 1189   0.682   5.098  10.391 -0.3646  0.0125  0.4825
   17CHL1   H4A 1190   0.780   5.137  10.425 -1.5255  1.5289  2.2308
   17CHL1   H4B 1191   0.654   5.005  10.446 -1.4979  0.1420  0.1561
   17CHL1    C5 1192   0.682   5.072  10.238  0.1406 -0.1332 -0.1935
   17CHL1    C6 1193   0.683   4.943  10.192 -0.2314 -0.2883 -0.0305
   17CHL1    H6 1194   0.677   4.856  10.258  1.4397 -0.2657  0.1957
   17CHL1    C7 1195   0.684   4.907  10.045  1.0720 -0.2081  0.0549
   17CHL1   H7A 1196   0.771   4.841  10.022  0.9067 -0.6541  0.7018
   17CHL1   H7B 1197   0.591   4.859  10.008 -0.7404  1.2297  2.4420
   17CHL1    C8 1198   0.693   5.039   9.959 -0.1585 -0.8684 -0.2961
   17CHL1    H8 1199   0.803   5.054   9.954 -0.3709  0.7915 -0.4921
   17CHL1   C14 1200   0.640   5.016   9.816 -0.9166  0.1174  0.4041
   17CHL1   H14 1201   0.529   5.015   9.822 -0.8517  0.9884  3.8594
   17CHL1   C15 1202   0.669   4.885   9.744 -0.0756 -0.1266  0.1977
   17CHL1  H15A 1203   0.778   4.870   9.760 -0.1504 -1.9869 -0.7819
   17CHL1  H15B 1204   0.616   4.800   9.790 -0.4065 -0.2911 -0.4747
   17CHL1   C16 1205   0.620   4.903   9.599 -0.2744  0.2469  0.0265
   17CHL1  H16A 1206   0.683   4.858   9.519  1.0517  2.2090 -0.0948
   17CHL1  H16B 1207   0.519   4.864   9.575  0.0234  0.8564 -2.5314
   17CHL1   C17 1208   0.619   5.060   9.581 -0.1290  0.2151  0.5803
   17CHL1   H17 1209   0.509   5.077   9.572 -0.2841 -1.6554 -2.4228
   17CHL1   C13 1210   0.673   5.121   9.718  0.2321 -0.1149 -0.0263
   17CHL1   C18 1211   0.826   5.141   9.706 -0.5665 -0.3264  0.4123
   17CHL1  H18A 1212   0.870   5.181   9.800  3.6545 -1.5237 -0.8398
   17CHL1  H18B 1213   0.884   5.051   9.679  0.7750  0.5323  0.3695
   17CHL1  H18C 1214   0.842   5.222   9.632 -1.9834 -0.7168 -0.3618
   17CHL1   C12 1215   0.608   5.256   9.760 -0.0836 -0.1049  0.2570
   17CHL1  H12A 1216   0.651   5.340   9.701  1.5203 -1.4899 -0.6705
   17CHL1  H12B 1217   0.499   5.251   9.743  0.0475 -0.1546 -0.6375
   17CHL1   C11 1218   0.645   5.287   9.909 -0.0676 -0.3460 -0.1394
   17CHL1  H11A 1219   0.748   5.327   9.916  0.3539 -1.6618  4.1401
   17CHL1  H11B 1220   0.575   5.366   9.942  1.0131 -0.0356  1.5454
   17CHL1    C9 1221   0.623   5.162  10.010  0.3177  0.1069  0.6247
   17CHL1    H9 1222   0.516   5.135  10.017  0.6075 -1.4860 -0.3122
   17CHL1   C10 1223   0.669   5.200  10.157  0.8345  0.0279  0.3723
   17CHL1   C19 1224   0.807   5.260  10.152  0.1081 -0.5462 -0.0926
   17CHL1  H19A 1225   0.857   5.264  10.251  1.5081  2.8540 -0.8099
   17CHL1  H19B 1226   0.877   5.208  10.083 -0.7996 -1.4185 -0.3919
   17CHL1  H19C 1227   0.819   5.366  10.121  0.8324 -0.5022  0.3088
   17CHL1    C1 1228   0.566   5.308  10.215  0.5848  0.3405  0.8473
   17CHL1   H1A 1229   0.569   5.401  10.154 -0.0292  0.6406  1.2568
   17CHL1   H1B 1230   0.461   5.273  10.201  0.1919  1.6345  0.3475
   17CHL1    C2 1231   0.600   5.337  10.363  0.7543  0.5247  0.1916
   17CHL1   H2A 1232   0.548   5.418  10.418  0.3529 -0.2788  1.0170
   17CHL1   H2B 1233   0.710   5.347  10.380  0.7062  1.8218 -0.1864
   17CHL1   C20 1234   0.668   5.108   9.441  0.5572 -0.7575  0.2677
   17CHL1   H20 1235   0.773   5.076   9.423  0.4206 -0.9430 -0.2235
   17CHL1   C21 1236   0.654   5.266   9.427  0.0194  0.3193 -0.2396
   17CHL1  H21A 1237   0.555   5.298   9.467 -0.5570 -0.8653 -0.6484
   17CHL1  H21B 1238   0.658   5.296   9.321  0.2679 -0.4484 -0.4530
   17CHL1  H21C 1239   0.730   5.321   9.487 -3.3847  0.3466  4.7136
   17CHL1   C22 1240   0.588   5.038   9.326 -0.2689  0.3632  0.1479
   17CHL1  H22A 1241   0.565   4.933   9.356 -1.0295  0.5907  0.3589
   17CHL1  H22B 1242   0.492   5.092   9.312 -0.8784 -0.7101  0.1134
   17CHL1   C23 1243   0.666   5.047   9.188 -0.3243 -0.2851 -0.0196
   17CHL1  H23A 1244   0.672   5.156   9.164 -1.2946 -0.6930 -2.3666
   17CHL1  H23B 1245   0.768   5.009   9.205 -0.7482 -1.9410 -0.9673
   17CHL1   C24 1246   0.595   4.983   9.069 -0.7439 -0.4257  0.3731
   17CHL1  H24A 1247   0.612   4.873   9.073  1.8316 -0.1862 -1.1190
   17CHL1  H24B 1248   0.485   4.998   9.072 -1.1109 -2.1589 -1.7910
   17CHL1   C25 1249   0.656   5.020   8.926 -0.4245  0.0458  0.2540
   17CHL1   H25 1250   0.762   4.994   8.907 -0.5597  0.7511 -1.7213
   17CHL1   C26 1251   0.571   4.951   8.821 -0.7535 -0.2197 -0.1072
   17CHL1  H26A 1252   0.619   4.963   8.721 -1.8694  1.5991 -0.4739
   17CHL1  H26B 1253   0.568   4.842   8.844  0.8609  0.0578  1.6304
   17CHL1  H26C 1254   0.471   5.000   8.812 -0.6288  0.0813  0.1207
   17CHL1   C27 1255   0.660   5.178   8.905 -0.7367  0.5277 -0.3755
   17CHL1  H27A 1256   0.764   5.210   8.929 -0.1246 -1.4718 -0.1555
   17CHL1  H27B 1257   0.620   5.222   8.811  1.4700  0.9351 -1.1895
   17CHL1  H27C 1258   0.591   5.217   8.982 -1.6014 -1.5056 -0.0399
   18CHL1    C3 1259   6.524   3.620  10.170 -0.1040  0.3130 -0.5275
   18CHL1    H3 1260   6.420   3.661  10.166  1.0175  3.3627 -1.5936
   18CHL1    O3 1261   6.570   3.641  10.297 -0.1467 -0.4485 -0.0481
   18CHL1   H3' 1262   6.666   3.639  10.294 -0.1746 -0.6664 -0.9248
   18CHL1    C4 1263   6.519   3.467  10.133 -0.6155 -0.1696  0.2309
   18CHL1   H4A 1264   6.623   3.428  10.134 -1.1109 -1.6097  1.6927
   18CHL1   H4B 1265   6.461   3.416  10.213 -0.3376 -0.1118  0.4722
   18CHL1    C5 1266   6.462   3.440   9.998  0.4132  0.1027 -0.4646
   18CHL1    C6 1267   6.360   3.355   9.983  0.2070 -0.1291  0.6872
   18CHL1    H6 1268   6.315   3.302  10.068  0.2665  0.5640  1.1597
   18CHL1    C7 1269   6.294   3.322   9.849 -0.0054  0.2612  0.1455
   18CHL1   H7A 1270   6.279   3.212   9.853  0.1140  0.2620  0.7775
   18CHL1   H7B 1271   6.196   3.375   9.839  0.8052  1.9235  0.6152
   18CHL1    C8 1272   6.386   3.362   9.736 -0.0256 -0.4762  0.1405
   18CHL1    H8 1273   6.469   3.288   9.746  1.0402  0.6631  0.0153
   18CHL1   C14 1274   6.311   3.351   9.609 -0.3705  0.1663  0.7921
   18CHL1   H14 1275   6.225   3.421   9.612 -0.1412  0.5610 -0.7999
   18CHL1   C15 1276   6.235   3.216   9.580 -0.7827 -0.2210 -0.2802
   18CHL1  H15A 1277   6.303   3.138   9.621 -1.1133 -1.0638 -1.2790
   18CHL1  H15B 1278   6.136   3.218   9.632 -0.1093  2.0319  1.0598
   18CHL1   C16 1279   6.217   3.222   9.434 -0.1903 -0.0558 -0.2808
   18CHL1  H16A 1280   6.275   3.138   9.391 -0.1170 -0.1226 -0.0539
   18CHL1  H16B 1281   6.109   3.222   9.406 -0.3396  1.2889  0.2194
   18CHL1   C17 1282   6.280   3.357   9.384 -0.5549 -0.8174  0.9179
   18CHL1   H17 1283   6.206   3.439   9.398  0.9792  1.0549 -1.2191
   18CHL1   C13 1284   6.391   3.387   9.489 -0.1901  0.6325  0.0639
   18CHL1   C18 1285   6.505   3.279   9.469  0.2969  0.1358 -1.1395
   18CHL1  H18A 1286   6.464   3.176   9.464  1.8527 -0.5837 -0.0704
   18CHL1  H18B 1287   6.563   3.307   9.379  1.2211 -0.4497 -0.7345
   18CHL1  H18C 1288   6.575   3.271   9.555 -0.7279  2.2217 -0.0093
   18CHL1   C12 1289   6.430   3.536   9.500  0.2494  0.6664  0.2679
   18CHL1  H12A 1290   6.492   3.567   9.414 -0.3612 -1.1595 -0.8722
   18CHL1  H12B 1291   6.343   3.606   9.503  0.2209  0.7307 -1.2869
   18CHL1   C11 1292   6.511   3.563   9.624 -0.0751  0.3268 -0.4821
   18CHL1  H11A 1293   6.608   3.512   9.605  0.5998  1.3905  0.0045
   18CHL1  H11B 1294   6.521   3.673   9.633 -1.5060  0.4807 -0.6025
   18CHL1    C9 1295   6.446   3.504   9.750  0.2214 -0.0265  0.2538
   18CHL1    H9 1296   6.357   3.570   9.762  1.5915  2.1067 -0.8261
   18CHL1   C10 1297   6.529   3.517   9.881  0.0552  0.0370  0.1347
   18CHL1   C19 1298   6.660   3.440   9.869 -1.0581 -0.2465 -0.0692
   18CHL1  H19A 1299   6.739   3.483   9.803  0.3931  0.7947  2.2338
   18CHL1  H19B 1300   6.717   3.433   9.964 -0.3929  1.0107 -0.3484
   18CHL1  H19C 1301   6.642   3.332   9.853 -0.0356 -0.8101  2.2501
   18CHL1    C1 1302   6.547   3.663   9.927  0.6679 -0.0819 -0.4307
   18CHL1   H1A 1303   6.583   3.740   9.855 -0.9364  2.6333  1.4410
   18CHL1   H1B 1304   6.448   3.710   9.949  1.5311  1.0262  1.3532
   18CHL1    C2 1305   6.618   3.687  10.070 -0.4595  0.0606 -0.0582
   18CHL1   H2A 1306   6.613   3.795  10.096 -0.4014 -0.4325  2.2260
   18CHL1   H2B 1307   6.721   3.645  10.077 -1.9974 -4.5166 -1.6288
   18CHL1   C20 1308   6.318   3.338   9.226  0.0855 -0.0578 -0.1311
   18CHL1   H20 1309   6.399   3.261   9.224  0.3492  0.1972  0.5069
   18CHL1   C21 1310   6.375   3.470   9.173 -0.1607 -0.1678 -0.5338
   18CHL1  H21A 1311   6.405   3.472   9.066 -0.4193 -1.3675 -0.6432
   18CHL1  H21B 1312   6.473   3.488   9.224  1.0390 -1.9056 -2.0992
   18CHL1  H21C 1313   6.304   3.553   9.194 -0.8932 -0.7911 -0.5338
   18CHL1   C22 1314   6.201   3.290   9.141  0.0407  0.3430  0.2206
   18CHL1  H22A 1315   6.146   3.198   9.171 -0.3598  0.3980 -0.3141
   18CHL1  H22B 1316   6.130   3.376   9.133  0.4085  0.4788 -3.7139
   18CHL1   C23 1317   6.234   3.264   8.995  0.6444 -0.0796  0.9053
   18CHL1  H23A 1318   6.139   3.256   8.937  0.9088  2.7585 -0.0487
   18CHL1  H23B 1319   6.297   3.347   8.957 -0.6580  1.2462  1.5634
   18CHL1   C24 1320   6.317   3.136   8.982 -0.3444  0.8340  0.2876
   18CHL1  H24A 1321   6.418   3.163   9.020  0.9035 -2.4549 -0.4004
   18CHL1  H24B 1322   6.272   3.060   9.049 -0.3668  1.1973  0.6912
   18CHL1   C25 1323   6.333   3.085   8.842 -0.2674  0.1992  0.6627
   18CHL1   H25 1324   6.399   2.996   8.853 -0.1458  0.3586  1.2503
   18CHL1   C26 1325   6.202   3.033   8.782 -0.0783  0.4863  0.1872
   18CHL1  H26A 1326   6.125   3.114   8.787 -0.1315  0.5363 -1.2109
   18CHL1  H26B 1327   6.219   3.022   8.673  0.0503  1.4154  0.1066
   18CHL1  H26C 1328   6.165   2.940   8.831  2.7131 -0.8094  0.0257
   18CHL1   C27 1329   6.396   3.194   8.749  0.1474  0.5613 -0.4555
   18CHL1  H27A 1330   6.324   3.277   8.737 -0.6405 -0.0508 -0.0859
   18CHL1  H27B 1331   6.491   3.234   8.791  0.6111  0.2669 -1.2174
   18CHL1  H27C 1332   6.413   3.144   8.652  0.3881 -0.6907  0.2059
   19CHL1    C3 1333   3.759   0.183  10.103 -0.1169 -0.2866  0.9668
   19CHL1    H3 1334   3.850   0.120  10.119  1.9668  2.4528  0.7630
   19CHL1    O3 1335   3.730   0.258  10.222  0.1771  0.6228  0.0613
   19CHL1   H3' 1336   3.716   0.340  10.173  2.0662  0.0341 -1.6028
   19CHL1    C4 1337   3.791   0.292   9.992 -0.1197 -0.1470 -0.3548
   19CHL1   H4A 1338   3.709   0.367   9.990 -0.2546 -0.1882  1.4694
   19CHL1   H4B 1339   3.872   0.358  10.028 -1.1615  1.5795 -1.0665
   19CHL1    C5 1340   3.822   0.230   9.857 -0.5592  0.4996  0.5077
   19CHL1    C6 1341   3.937   0.245   9.801  0.1501 -0.2270  0.4746
   19CHL1    H6 1342   4.015   0.315   9.835  2.2264 -1.9312 -0.4911
   19CHL1    C7 1343   3.972   0.195   9.664  0.0924  0.2498 -0.4990
   19CHL1   H7A 1344   4.021   0.268   9.595  0.1482 -0.2402 -0.9866
   19CHL1   H7B 1345   4.044   0.111   9.674  0.1679  0.3915  0.2210
   19CHL1    C8 1346   3.848   0.144   9.581  0.1493  0.8579 -0.2574
   19CHL1    H8 1347   3.790   0.234   9.553  1.7109  2.1110  0.3995
   19CHL1   C14 1348   3.885   0.071   9.454 -0.6127  0.3297  0.4015
   19CHL1   H14 1349   3.957  -0.012   9.473  1.2479  1.5393 -0.9824
   19CHL1   C15 1350   3.976   0.146   9.354  0.0456 -0.4349  0.3961
   19CHL1  H15A 1351   3.949   0.254   9.358  2.0011  0.0951  0.4020
   19CHL1  H15B 1352   4.080   0.140   9.391  1.0437  0.5705 -2.0360
   19CHL1   C16 1353   3.949   0.094   9.219  0.1944  0.4958 -0.5243
   19CHL1  H16A 1354   3.907   0.169   9.147 -0.1303 -0.1000 -0.9684
   19CHL1  H16B 1355   4.037   0.042   9.176 -0.8761 -2.2335  0.4353
   19CHL1   C17 1356   3.847  -0.027   9.247 -0.0888 -0.3644  0.2175
   19CHL1   H17 1357   3.905  -0.118   9.270 -0.7937 -1.0759 -0.7407
   19CHL1   C13 1358   3.765   0.018   9.366 -0.8572  0.0850  0.2114
   19CHL1   C18 1359   3.674   0.131   9.318 -0.2712 -0.4882 -0.2905
   19CHL1  H18A 1360   3.646   0.212   9.389 -1.1947 -0.7657 -0.3325
   19CHL1  H18B 1361   3.725   0.193   9.242  1.5660  0.0305  1.2620
   19CHL1  H18C 1362   3.581   0.079   9.287  0.2937 -2.0683  0.5120
   19CHL1   C12 1363   3.689  -0.072   9.462  0.3471 -0.0369 -0.3397
   19CHL1  H12A 1364   3.594  -0.113   9.423  0.2923 -0.3654  0.1321
   19CHL1  H12B 1365   3.754  -0.159   9.487  0.1263 -0.7648 -2.1480
   19CHL1   C11 1366   3.648  -0.013   9.601  0.8525  0.1354  0.8400
   19CHL1  H11A 1367   3.568   0.062   9.577  0.4815 -0.8290 -1.1910
   19CHL1  H11B 1368   3.603  -0.096   9.660 -2.6639  0.7713 -0.6497
   19CHL1    C9 1369   3.762   0.058   9.682  0.3722  0.0863  0.4868
   19CHL1    H9 1370   3.831  -0.018   9.723  1.3573 -0.3307 -1.7854
   19CHL1   C10 1371   3.709   0.142   9.804  0.1818 -0.0891  0.6516
   19CHL1   C19 1372   3.589   0.232   9.764  0.1755 -0.2753  0.1044
   19CHL1  H19A 1373   3.595   0.300   9.677 -0.4655  0.0273  0.2933
   19CHL1  H19B 1374   3.508   0.163   9.732 -0.4726 -0.2237  1.5706
   19CHL1  H19C 1375   3.558   0.293   9.852  1.5663  2.2641 -1.0792
   19CHL1    C1 1376   3.667   0.045   9.917 -0.1232  0.2221  0.9202
   19CHL1   H1A 1377   3.582  -0.014   9.876  0.8215  0.0335 -0.8758
   19CHL1   H1B 1378   3.742  -0.035   9.936 -0.7412 -0.1449  1.8723
   19CHL1    C2 1379   3.640   0.102  10.057  0.3288  0.1062  0.4998
   19CHL1   H2A 1380   3.618   0.017  10.124  0.5585 -0.5584 -0.2567
   19CHL1   H2B 1381   3.551   0.166  10.037 -0.0946 -0.6087  0.0737
   19CHL1   C20 1382   3.774  -0.067   9.122 -0.9297  0.0762  0.6893
   19CHL1   H20 1383   3.715   0.018   9.081  1.2414  1.2434 -0.2043
   19CHL1   C21 1384   3.690  -0.187   9.156  0.1947 -0.0946  0.4854
   19CHL1  H21A 1385   3.632  -0.215   9.066  1.2988  0.5353 -0.4431
   19CHL1  H21B 1386   3.612  -0.161   9.232  1.9764  3.5307  1.2743
   19CHL1  H21C 1387   3.748  -0.274   9.192 -1.2209 -1.6900 -0.9150
   19CHL1   C22 1388   3.868  -0.108   9.001 -0.5483 -0.3872 -0.9232
   19CHL1  H22A 1389   3.936  -0.020   9.004 -0.7798 -0.2266  0.8613
   19CHL1  H22B 1390   3.924  -0.195   9.039  3.1084  1.6795 -1.1657
   19CHL1   C23 1391   3.793  -0.141   8.869 -0.0255  0.8520 -0.0259
   19CHL1  H23A 1392   3.737  -0.237   8.879  0.0756  0.8162  0.1841
   19CHL1  H23B 1393   3.722  -0.058   8.847  0.9597  1.8038  0.3351
   19CHL1   C24 1394   3.880  -0.157   8.744  0.2990 -0.0967 -0.2875
   19CHL1  H24A 1395   3.928  -0.059   8.720 -0.3788  0.2715 -0.1603
   19CHL1  H24B 1396   3.967  -0.218   8.777 -0.1570  0.4028  2.0729
   19CHL1   C25 1397   3.806  -0.206   8.612  0.3687  0.0915 -0.8229
   19CHL1   H25 1398   3.750  -0.299   8.635 -0.9328  1.3773  1.6461
   19CHL1   C26 1399   3.706  -0.095   8.562  0.5192  1.0420  0.6882
   19CHL1  H26A 1400   3.756  -0.005   8.522  3.1761 -0.7152 -0.2095
   19CHL1  H26B 1401   3.645  -0.144   8.484 -0.7597  0.3976  2.0292
   19CHL1  H26C 1402   3.641  -0.052   8.642  2.1987  1.7636  1.7258
   19CHL1   C27 1403   3.913  -0.247   8.505 -0.8694  0.3556 -0.2359
   19CHL1  H27A 1404   3.997  -0.305   8.549  0.8873  2.2366 -0.9635
   19CHL1  H27B 1405   3.861  -0.301   8.422 -4.5535  3.0371  0.1038
   19CHL1  H27C 1406   3.965  -0.152   8.481 -0.3745 -0.3371 -2.1054
   20CHL1    C3 1407   6.113   0.709  10.389  0.0918  0.3594 -0.7787
   20CHL1    H3 1408   6.122   0.819  10.399 -0.1835  0.3092  0.1104
   20CHL1    O3 1409   6.121   0.656  10.527  0.2903 -0.1899  0.4768
   20CHL1   H3' 1410   6.186   0.585  10.528  0.7784  0.2522  1.9261
   20CHL1    C4 1411   5.990   0.659  10.316  0.5538 -1.0155 -0.1295
   20CHL1   H4A 1412   5.987   0.548  10.314 -2.4900 -1.0986  1.9643
   20CHL1   H4B 1413   5.906   0.696  10.379  0.9046  2.3271 -1.4059
   20CHL1    C5 1414   5.985   0.722  10.175 -0.8346  0.4351 -1.1120
   20CHL1    C6 1415   5.880   0.804  10.148  0.1728 -0.0993 -1.1222
   20CHL1    H6 1416   5.800   0.814  10.223  1.1722  2.6743 -0.2953
   20CHL1    C7 1417   5.873   0.880  10.021  0.3824 -0.1360 -0.3809
   20CHL1   H7A 1418   5.771   0.885   9.977  0.4433 -2.3572 -0.8888
   20CHL1   H7B 1419   5.917   0.982  10.024  1.0492 -0.4229 -0.4692
   20CHL1    C8 1420   5.956   0.807   9.915 -0.3319 -0.1066  0.6386
   20CHL1    H8 1421   5.906   0.709   9.898 -0.4550 -0.1036  0.9825
   20CHL1   C14 1422   5.959   0.894   9.790 -0.2746  0.1814  0.3852
   20CHL1   H14 1423   6.003   0.992   9.815  1.5414 -0.3112 -0.6845
   20CHL1   C15 1424   5.820   0.921   9.715 -0.6149 -0.2133  0.2579
   20CHL1  H15A 1425   5.761   0.828   9.728  1.1597 -1.3613  0.3180
   20CHL1  H15B 1426   5.779   1.009   9.769 -0.5325 -0.1194  0.1693
   20CHL1   C16 1427   5.870   0.963   9.579 -0.0138  0.0828 -0.9804
   20CHL1  H16A 1428   5.822   0.899   9.502  1.5503 -0.5926 -1.4471
   20CHL1  H16B 1429   5.849   1.070   9.555 -0.4818 -0.1178 -1.5014
   20CHL1   C17 1430   6.015   0.929   9.563 -0.2416 -0.5868  0.6470
   20CHL1   H17 1431   6.076   1.018   9.592 -2.8428  1.8052 -0.7525
   20CHL1   C13 1432   6.050   0.832   9.681 -0.6906  0.2600  1.1047
   20CHL1   C18 1433   6.005   0.691   9.639  0.4129  0.2002  0.8220
   20CHL1  H18A 1434   6.066   0.648   9.556 -1.0984 -0.5799  0.0588
   20CHL1  H18B 1435   6.002   0.627   9.729 -0.2778 -0.6012  0.2560
   20CHL1  H18C 1436   5.898   0.699   9.607  0.2766  0.2774  1.2910
   20CHL1   C12 1437   6.196   0.836   9.733  1.0366  0.0728  0.2095
   20CHL1  H12A 1438   6.262   0.800   9.651 -0.4221 -2.0765 -0.1072
   20CHL1  H12B 1439   6.217   0.945   9.734  0.1833  0.3098 -2.0725
   20CHL1   C11 1440   6.219   0.758   9.864 -0.0389  0.3586 -1.0234
   20CHL1  H11A 1441   6.218   0.650   9.837  3.0585 -0.1271  0.4131
   20CHL1  H11B 1442   6.323   0.779   9.898  0.4573  0.0358 -2.2850
   20CHL1    C9 1443   6.105   0.788   9.968 -0.2367 -0.1807  0.5157
   20CHL1    H9 1444   6.125   0.893   9.997 -1.6011  0.3060 -0.2002
   20CHL1   C10 1445   6.109   0.702  10.090  0.5725  0.3732 -0.6287
   20CHL1   C19 1446   6.103   0.549  10.044  0.0110 -0.1185 -0.5488
   20CHL1  H19A 1447   6.087   0.475  10.125  1.6705  0.0440 -0.0372
   20CHL1  H19B 1448   6.021   0.547   9.968  0.2961 -0.4969 -0.8470
   20CHL1  H19C 1449   6.199   0.515   9.999 -0.1451  0.0077 -0.9821
   20CHL1    C1 1450   6.238   0.724  10.172  0.2418 -0.4575  0.1196
   20CHL1   H1A 1451   6.323   0.684  10.112 -0.5393 -3.3189  0.7878
   20CHL1   H1B 1452   6.256   0.834  10.176  0.1601 -0.4028 -0.8210
   20CHL1    C2 1453   6.245   0.667  10.317 -0.3059 -0.7342 -0.2224
   20CHL1   H2A 1454   6.334   0.691  10.378 -0.2639  2.8145 -1.4063
   20CHL1   H2B 1455   6.243   0.557  10.301 -0.2998 -0.6112 -1.1648
   20CHL1   C20 1456   6.055   0.887   9.416 -0.3026  0.1140  0.3268
   20CHL1   H20 1457   6.018   0.787   9.385  3.5674 -0.9146 -1.6591
   20CHL1   C21 1458   6.211   0.876   9.399 -0.1556  0.2270 -0.3220
   20CHL1  H21A 1459   6.255   0.791   9.455  0.2827  0.3881 -0.4177
   20CHL1  H21B 1460   6.255   0.971   9.435 -0.7107  1.6636 -3.1367
   20CHL1  H21C 1461   6.231   0.868   9.290  0.7178  0.5065 -0.1902
   20CHL1   C22 1462   6.012   0.996   9.315 -0.4312  0.2405  0.5528
   20CHL1  H22A 1463   5.911   1.036   9.339 -1.6903 -1.6194 -1.3686
   20CHL1  H22B 1464   6.087   1.076   9.335  0.0996  0.2721 -1.3756
   20CHL1   C23 1465   6.012   0.958   9.168 -0.2697 -0.6390  0.4782
   20CHL1  H23A 1466   6.101   0.907   9.126  0.0788  1.0101 -0.9153
   20CHL1  H23B 1467   5.930   0.884   9.154 -0.2777 -0.8932  1.7291
   20CHL1   C24 1468   5.997   1.077   9.072  0.9886  0.4045  0.5511
   20CHL1  H24A 1469   5.911   1.140   9.102  0.2343 -0.9650  1.3742
   20CHL1  H24B 1470   6.086   1.141   9.089  0.3959  0.7484  2.7149
   20CHL1   C25 1471   5.983   1.044   8.919  0.2685 -0.6656 -0.1500
   20CHL1   H25 1472   5.900   0.971   8.902  0.8114 -1.4742  0.5752
   20CHL1   C26 1473   5.960   1.177   8.847 -0.2845  0.7770  0.3722
   20CHL1  H26A 1474   5.873   1.232   8.888 -0.7493  0.5860 -0.3505
   20CHL1  H26B 1475   6.050   1.241   8.860 -0.6002  1.3957 -0.3759
   20CHL1  H26C 1476   5.952   1.165   8.737  0.6145  0.8656  0.2850
   20CHL1   C27 1477   6.108   0.979   8.845 -0.9903  0.2787 -0.6463
   20CHL1  H27A 1478   6.118   0.874   8.880 -2.6203  1.0433  2.5029
   20CHL1  H27B 1479   6.100   0.985   8.734 -0.4611 -0.7524 -0.7563
   20CHL1  H27C 1480   6.203   1.030   8.873 -1.5484  0.5897  0.7282
   21CHL1    C3 1481   5.851   3.944  10.210 -0.4375 -0.4403  0.1949
   21CHL1    H3 1482   5.947   3.909  10.165  0.7142 -0.0121  2.2060
   21CHL1    O3 1483   5.868   3.947  10.354  0.0422  0.1166 -0.1304
   21CHL1   H3' 1484   5.784   3.979  10.389 -0.8143 -0.9539 -1.0806
   21CHL1    C4 1485   5.823   4.091  10.157  1.2176 -0.0101 -0.2310
   21CHL1   H4A 1486   5.733   4.122  10.216  0.0102 -1.0303 -1.4751
   21CHL1   H4B 1487   5.914   4.151  10.179  0.6095  1.5558 -1.7278
   21CHL1    C5 1488   5.789   4.080  10.004 -0.5521 -0.2603 -0.3398
   21CHL1    C6 1489   5.852   4.157   9.918 -0.2635  0.3189 -0.5871
   21CHL1    H6 1490   5.942   4.212   9.950  0.6878 -0.6062 -1.6159
   21CHL1    C7 1491   5.823   4.159   9.769  0.3962 -0.0827 -0.7596
   21CHL1   H7A 1492   5.796   4.264   9.743  3.3194  0.6744 -1.1326
   21CHL1   H7B 1493   5.914   4.120   9.718 -0.9584 -2.9312 -1.2014
   21CHL1    C8 1494   5.697   4.078   9.717  0.7020 -0.7472 -0.6236
   21CHL1    H8 1495   5.602   4.133   9.735  1.0354 -1.1540  3.1135
   21CHL1   C14 1496   5.719   4.021   9.579 -0.4706  0.0531 -0.9867
   21CHL1   H14 1497   5.804   3.950   9.575  0.1672  0.8183 -1.1578
   21CHL1   C15 1498   5.754   4.126   9.474  0.1544 -0.1552 -0.3571
   21CHL1  H15A 1499   5.709   4.220   9.512  1.6025  0.2180  0.5144
   21CHL1  H15B 1500   5.863   4.143   9.473  0.6035 -2.1519  2.2892
   21CHL1   C16 1501   5.707   4.064   9.342 -0.4910 -0.8472  0.2304
   21CHL1  H16A 1502   5.637   4.134   9.292 -0.3145 -1.7745 -1.3919
   21CHL1  H16B 1503   5.793   4.057   9.272 -0.0484  1.2649  0.4862
   21CHL1   C17 1504   5.645   3.930   9.369 -0.5758  0.4023  0.6314
   21CHL1   H17 1505   5.732   3.861   9.362 -1.5931 -0.9746  0.8963
   21CHL1   C13 1506   5.601   3.943   9.515 -0.8967  0.1338  0.5129
   21CHL1   C18 1507   5.476   4.031   9.521  0.1050  0.5692  0.2864
   21CHL1  H18A 1508   5.451   4.056   9.627 -3.3180  2.2994 -0.7668
   21CHL1  H18B 1509   5.491   4.126   9.466  2.8856  0.6037  0.9669
   21CHL1  H18C 1510   5.382   3.984   9.484 -1.2947  2.0311  1.7846
   21CHL1   C12 1511   5.592   3.816   9.601 -0.1181 -0.6802  0.3101
   21CHL1  H12A 1512   5.510   3.751   9.566 -0.1367  0.7960 -2.7703
   21CHL1  H12B 1513   5.692   3.770   9.582  0.6791  0.0474  2.4540
   21CHL1   C11 1514   5.571   3.851   9.748  0.3735  0.6065  0.2188
   21CHL1  H11A 1515   5.471   3.896   9.767 -1.2584 -1.4204 -2.6441
   21CHL1  H11B 1516   5.578   3.752   9.798  1.1556  0.4984 -0.0908
   21CHL1    C9 1517   5.681   3.949   9.801  0.2305  0.7792 -0.0733
   21CHL1    H9 1518   5.778   3.897   9.788 -0.9618 -1.7635  0.7097
   21CHL1   C10 1519   5.682   3.976   9.955  0.5269  0.0301 -0.2855
   21CHL1   C19 1520   5.546   4.031   9.999  0.3064  0.4743 -0.1872
   21CHL1  H19A 1521   5.548   4.035  10.110 -0.7722 -2.5761  0.0542
   21CHL1  H19B 1522   5.522   4.133   9.964 -1.5112 -0.3670 -1.5836
   21CHL1  H19C 1523   5.462   3.964   9.969 -2.3340  3.7879 -0.8329
   21CHL1    C1 1524   5.718   3.843  10.027 -0.1002  0.7502 -0.8725
   21CHL1   H1A 1525   5.644   3.763  10.004 -0.0815 -0.0383  1.5179
   21CHL1   H1B 1526   5.817   3.809   9.989 -0.2339 -1.0070  0.1998
   21CHL1    C2 1527   5.740   3.845  10.182  0.0827  0.1309  0.5743
   21CHL1   H2A 1528   5.772   3.746  10.224  2.4156  1.0025  1.0393
   21CHL1   H2B 1529   5.647   3.868  10.238  0.0292 -2.7556  1.8825
   21CHL1   C20 1530   5.550   3.875   9.267  0.2907 -0.1746 -0.1496
   21CHL1   H20 1531   5.442   3.884   9.292  0.0852 -0.9796 -0.7133
   21CHL1   C21 1532   5.579   3.720   9.264  0.1153 -0.0043  0.4364
   21CHL1  H21A 1533   5.497   3.668   9.209 -0.7163  1.5031  0.1877
   21CHL1  H21B 1534   5.581   3.694   9.372  1.6310  4.3321  1.6871
   21CHL1  H21C 1535   5.669   3.694   9.206  1.0164  1.9156  0.8788
   21CHL1   C22 1536   5.564   3.933   9.124 -0.0336  0.0004  0.3087
   21CHL1  H22A 1537   5.566   4.044   9.127 -4.2335  0.2561  0.5363
   21CHL1  H22B 1538   5.657   3.899   9.074 -0.6831  1.1590 -1.8166
   21CHL1   C23 1539   5.445   3.889   9.035 -0.0122  0.2841 -0.0211
   21CHL1  H23A 1540   5.435   3.779   9.025 -0.4090  0.1983  1.1921
   21CHL1  H23B 1541   5.350   3.920   9.084  0.0033  0.9624 -0.4060
   21CHL1   C24 1542   5.462   3.960   8.895  0.9028  1.0709 -0.2966
   21CHL1  H24A 1543   5.434   4.066   8.911  0.2205  0.7463  0.7008
   21CHL1  H24B 1544   5.570   3.949   8.869  1.2895 -1.2327  1.9190
   21CHL1   C25 1545   5.373   3.896   8.785  0.1661  0.9138  0.1070
   21CHL1   H25 1546   5.382   3.786   8.781 -0.4110  0.8589  0.2439
   21CHL1   C26 1547   5.225   3.931   8.821  0.1935 -0.0733 -0.3957
   21CHL1  H26A 1548   5.215   4.041   8.823  2.6060  0.1928  0.3647
   21CHL1  H26B 1549   5.157   3.884   8.747 -0.1669  0.3298 -0.3204
   21CHL1  H26C 1550   5.198   3.902   8.925  2.3836  1.2063  0.5990
   21CHL1   C27 1551   5.411   3.940   8.641 -0.4729 -0.4044  0.0607
   21CHL1  H27A 1552   5.342   3.886   8.573 -0.6384  1.8065 -1.6316
   21CHL1  H27B 1553   5.397   4.050   8.631 -3.0946 -0.6017  0.6277
   21CHL1  H27C 1554   5.513   3.909   8.612 -0.5501 -1.3483  0.7500
   22CHL1    C3 1555   5.430   4.927  10.080 -0.2595 -0.1233 -0.0946
   22CHL1    H3 1556   5.495   4.839  10.096 -0.7241 -0.3672  0.4768
   22CHL1    O3 1557   5.389   4.981  10.206 -0.0714  0.0308 -0.3258
   22CHL1   H3' 1558   5.374   4.904  10.262  1.9534 -0.8399 -0.8782
   22CHL1    C4 1559   5.504   5.032  10.007  0.1954 -0.4855  0.1302
   22CHL1   H4A 1560   5.447   5.128  10.015  0.5262 -0.2883  0.1265
   22CHL1   H4B 1561   5.595   5.051  10.067 -0.0714  0.3736  0.2910
   22CHL1    C5 1562   5.532   4.999   9.864  0.0197  0.2642 -0.1326
   22CHL1    C6 1563   5.658   5.001   9.824 -0.0646 -0.9114 -0.3084
   22CHL1    H6 1564   5.740   5.038   9.887 -0.9125  2.6573 -1.0506
   22CHL1    C7 1565   5.687   4.967   9.684  0.1314 -0.3531 -0.0053
   22CHL1   H7A 1566   5.778   5.017   9.644  0.3085 -0.0559  0.7649
   22CHL1   H7B 1567   5.730   4.865   9.685  0.9573 -0.0149 -0.0235
   22CHL1    C8 1568   5.564   4.972   9.586  0.4438 -0.2253  0.1599
   22CHL1    H8 1569   5.530   5.077   9.573 -1.0150 -1.0156 -4.1433
   22CHL1   C14 1570   5.592   4.898   9.451 -0.5479  0.2601 -1.1716
   22CHL1   H14 1571   5.608   4.793   9.485 -0.0470  0.4765 -0.7174
   22CHL1   C15 1572   5.727   4.941   9.378 -0.1315  0.3156 -0.3139
   22CHL1  H15A 1573   5.739   5.051   9.388 -1.5756  0.3722  1.3333
   22CHL1  H15B 1574   5.817   4.887   9.415  0.5481  1.1324 -0.7483
   22CHL1   C16 1575   5.708   4.895   9.233  0.1947 -0.0185 -0.3323
   22CHL1  H16A 1576   5.721   4.990   9.177  1.4762  0.2381  0.3733
   22CHL1  H16B 1577   5.785   4.828   9.190  1.3320  1.1971 -0.2504
   22CHL1   C17 1578   5.566   4.836   9.220 -0.7694  0.1761  0.1879
   22CHL1   H17 1579   5.580   4.728   9.244 -0.8563  0.2003  0.3493
   22CHL1   C13 1580   5.489   4.898   9.345 -0.7304  0.7887  0.3379
   22CHL1   C18 1581   5.456   5.043   9.295  0.5436 -0.1885 -0.7123
   22CHL1  H18A 1582   5.357   5.053   9.245 -0.0645 -0.1902  0.4605
   22CHL1  H18B 1583   5.453   5.116   9.378  1.9105 -0.4293 -0.4319
   22CHL1  H18C 1584   5.531   5.077   9.222 -1.2379 -0.6945 -2.9088
   22CHL1   C12 1585   5.367   4.826   9.407  0.0472 -0.5031 -0.1865
   22CHL1  H12A 1586   5.284   4.827   9.333  0.5171  1.3844 -0.7385
   22CHL1  H12B 1587   5.404   4.722   9.416  0.3232 -0.8316 -3.5606
   22CHL1   C11 1588   5.327   4.883   9.544  0.8405  0.1596  0.0910
   22CHL1  H11A 1589   5.277   4.978   9.518 -0.1953 -0.7464 -1.3926
   22CHL1  H11B 1590   5.258   4.810   9.593  3.7479 -1.2618  2.3758
   22CHL1    C9 1591   5.442   4.894   9.643  0.4778  1.1126  0.5033
   22CHL1    H9 1592   5.472   4.791   9.670  1.9044  1.7441  1.4376
   22CHL1   C10 1593   5.408   4.947   9.789  0.0568  0.5540 -0.7326
   22CHL1   C19 1594   5.310   5.056   9.752  0.3359  0.0111  0.1789
   22CHL1  H19A 1595   5.206   5.018   9.742  0.4303 -0.3974  0.6924
   22CHL1  H19B 1596   5.294   5.133   9.831 -1.6678  1.0798 -1.1759
   22CHL1  H19C 1597   5.350   5.107   9.662 -1.5237  0.8735 -0.2153
   22CHL1    C1 1598   5.343   4.836   9.878  0.4145 -0.4445 -0.3382
   22CHL1   H1A 1599   5.257   4.787   9.827  0.7690 -2.1990  0.6757
   22CHL1   H1B 1600   5.412   4.750   9.891  1.5582  0.5276  0.2381
   22CHL1    C2 1601   5.304   4.882  10.011 -0.6756 -0.0514  0.2603
   22CHL1   H2A 1602   5.255   4.811  10.082  1.5795 -1.4538  0.5329
   22CHL1   H2B 1603   5.240   4.973  10.018  1.7785  2.0090 -2.1035
   22CHL1   C20 1604   5.501   4.847   9.078  0.4828 -0.1348  0.1092
   22CHL1   H20 1605   5.486   4.956   9.063 -0.3575 -0.3004 -0.3135
   22CHL1   C21 1606   5.353   4.785   9.077  0.1848 -0.2047  0.0511
   22CHL1  H21A 1607   5.324   4.767   8.972 -1.4166 -0.1254  0.4483
   22CHL1  H21B 1608   5.274   4.842   9.131  0.3527 -0.1154  0.2037
   22CHL1  H21C 1609   5.362   4.683   9.121  0.0129  0.5538  1.9565
   22CHL1   C22 1610   5.592   4.793   8.964 -0.2752  0.4635 -0.4049
   22CHL1  H22A 1611   5.542   4.805   8.866  0.5225  1.0666 -0.7526
   22CHL1  H22B 1612   5.688   4.850   8.963 -0.0819  0.1898  0.8009
   22CHL1   C23 1613   5.611   4.638   8.964 -0.4478 -0.3930 -0.4995
   22CHL1  H23A 1614   5.663   4.611   9.058 -2.0315  1.5308  1.0079
   22CHL1  H23B 1615   5.510   4.591   8.963 -1.0371  0.8076  0.7019
   22CHL1   C24 1616   5.686   4.590   8.832  0.7513  1.2468 -0.0636
   22CHL1  H24A 1617   5.642   4.647   8.747  1.0188  2.4525  0.5845
   22CHL1  H24B 1618   5.796   4.608   8.832  1.4641 -2.4123  0.1412
   22CHL1   C25 1619   5.652   4.440   8.800  0.0471 -0.5852 -0.2806
   22CHL1   H25 1620   5.720   4.407   8.719  1.9618 -2.9532  2.1171
   22CHL1   C26 1621   5.666   4.355   8.926  0.2490  0.0636  0.2259
   22CHL1  H26A 1622   5.667   4.245   8.911  2.6038 -0.1039  1.2515
   22CHL1  H26B 1623   5.767   4.370   8.969  1.0283 -0.1334 -1.4410
   22CHL1  H26C 1624   5.599   4.376   9.012  1.0962  1.4301  0.5793
   22CHL1   C27 1625   5.505   4.429   8.748 -0.3903 -0.0025 -0.4562
   22CHL1  H27A 1626   5.507   4.365   8.657 -0.5837  0.7028 -0.9623
   22CHL1  H27B 1627   5.435   4.380   8.819 -1.1941  1.2657 -0.3470
   22CHL1  H27C 1628   5.472   4.528   8.710 -2.3222 -0.3742  0.1430
   23CHL1    C3 1629   1.839   6.503  10.109 -0.8482 -0.1138  1.0602
   23CHL1    H3 1630   1.803   6.590  10.051  1.4048  0.1739 -0.0112
   23CHL1    O3 1631   1.836   6.532  10.250  0.1990  0.0570  0.4774
   23CHL1   H3' 1632   1.744   6.511  10.268  0.1012  0.0521 -0.0330
   23CHL1    C4 1633   1.746   6.389  10.069 -0.2035  0.7359  0.1238
   23CHL1   H4A 1634   1.805   6.301  10.103  0.5786  1.8007  1.6481
   23CHL1   H4B 1635   1.651   6.407  10.125  0.9691  3.3105  1.4686
   23CHL1    C5 1636   1.739   6.381   9.922 -0.5817  0.1756  0.7238
   23CHL1    C6 1637   1.624   6.412   9.863  0.2924  0.5455  0.1539
   23CHL1    H6 1638   1.539   6.434   9.928 -0.3241 -0.4353 -0.2974
   23CHL1    C7 1639   1.598   6.408   9.717 -0.3471 -0.0831 -0.4487
   23CHL1   H7A 1640   1.509   6.348   9.687  0.3548 -1.1685 -0.4204
   23CHL1   H7B 1641   1.579   6.511   9.681  1.5907  0.6990  0.6038
   23CHL1    C8 1642   1.710   6.352   9.633 -0.0407 -0.0684 -0.3148
   23CHL1    H8 1643   1.701   6.241   9.634 -1.0284 -0.0110  1.8804
   23CHL1   C14 1644   1.718   6.417   9.490  0.5246  0.5527 -0.1972
   23CHL1   H14 1645   1.733   6.526   9.507  1.4040  0.3196  0.6094
   23CHL1   C15 1646   1.590   6.409   9.404  0.1027 -0.5304  0.4004
   23CHL1  H15A 1647   1.545   6.310   9.430  1.0197 -1.4566 -1.3578
   23CHL1  H15B 1648   1.530   6.501   9.418 -0.0612 -0.6051  0.1967
   23CHL1   C16 1649   1.638   6.420   9.256 -0.7218  0.0623  0.6891
   23CHL1  H16A 1650   1.618   6.329   9.195 -0.5417  1.1178 -0.9818
   23CHL1  H16B 1651   1.606   6.510   9.201  1.5038  1.1708  1.1033
   23CHL1   C17 1652   1.794   6.440   9.275 -0.1587 -0.0088  0.1177
   23CHL1   H17 1653   1.815   6.546   9.301  0.9462  0.5856 -2.7435
   23CHL1   C13 1654   1.826   6.366   9.404 -0.0509 -0.9402  0.4939
   23CHL1   C18 1655   1.822   6.214   9.372  0.8156 -0.0816 -0.3718
   23CHL1  H18A 1656   1.719   6.188   9.342  0.7196 -0.1766  0.0382
   23CHL1  H18B 1657   1.886   6.179   9.288 -0.5551 -2.1589 -0.6176
   23CHL1  H18C 1658   1.844   6.164   9.469  0.6331 -2.7039 -1.5841
   23CHL1   C12 1659   1.963   6.416   9.458 -0.0568  0.0788 -0.6947
   23CHL1  H12A 1660   2.056   6.379   9.411  0.5406 -0.1767  0.6490
   23CHL1  H12B 1661   1.975   6.526   9.448  0.6577 -0.0591 -1.4730
   23CHL1   C11 1662   1.971   6.364   9.609  0.0625 -0.0857 -0.9463
   23CHL1  H11A 1663   1.993   6.255   9.618  1.6616  0.3499  0.9956
   23CHL1  H11B 1664   2.054   6.407   9.668 -0.4455  0.9545 -0.9631
   23CHL1    C9 1665   1.847   6.393   9.701 -0.0875  0.0508  0.0303
   23CHL1    H9 1666   1.842   6.504   9.698 -1.8743  0.0503  1.3456
   23CHL1   C10 1667   1.876   6.357   9.853 -1.0995 -0.2036  0.7597
   23CHL1   C19 1668   1.904   6.207   9.861  0.5731  0.2056 -0.6627
   23CHL1  H19A 1669   2.007   6.183   9.826  0.6455 -1.5391  0.5653
   23CHL1  H19B 1670   1.904   6.167   9.965  1.9996  0.4714 -0.5364
   23CHL1  H19C 1671   1.835   6.149   9.796 -0.9926  1.2086  0.0358
   23CHL1    C1 1672   1.989   6.443   9.916 -0.7851  0.7878  0.4928
   23CHL1   H1A 1673   2.083   6.394   9.883 -2.5915 -0.7237 -2.8107
   23CHL1   H1B 1674   1.994   6.535   9.854  1.1503 -0.0468 -0.6787
   23CHL1    C2 1675   1.983   6.466  10.067  0.5039  0.0925 -0.1119
   23CHL1   H2A 1676   2.049   6.553  10.084 -1.7129  1.7002  0.6978
   23CHL1   H2B 1677   2.017   6.380  10.129  0.2511  0.5633  0.6872
   23CHL1   C20 1678   1.883   6.409   9.154  0.6291 -0.5372 -0.3875
   23CHL1   H20 1679   1.982   6.370   9.186  1.1935  1.0822 -0.1023
   23CHL1   C21 1680   1.941   6.542   9.103 -0.8359  0.0859  0.4513
   23CHL1  H21A 1681   1.862   6.604   9.057 -0.1461  0.2500 -0.5393
   23CHL1  H21B 1682   2.015   6.522   9.022  1.1429  0.8147  1.9931
   23CHL1  H21C 1683   1.993   6.601   9.182 -0.5069 -0.1746  0.4341
   23CHL1   C22 1684   1.835   6.321   9.046  0.9338  0.3203 -0.1180
   23CHL1  H22A 1685   1.795   6.226   9.086 -2.2811  1.7118  0.2784
   23CHL1  H22B 1686   1.743   6.362   8.998  1.6907  0.0498 -1.8931
   23CHL1   C23 1687   1.920   6.274   8.929 -0.0812 -0.5521  0.9285
   23CHL1  H23A 1688   1.954   6.359   8.866  1.5025 -1.1451  0.9417
   23CHL1  H23B 1689   2.012   6.245   8.985 -0.1731  0.6691  1.7543
   23CHL1   C24 1690   1.862   6.172   8.826  0.3466  0.5310 -0.5008
   23CHL1  H24A 1691   1.823   6.086   8.884 -1.8649  1.0084 -1.1894
   23CHL1  H24B 1692   1.776   6.227   8.782 -1.0233 -0.0793  1.3118
   23CHL1   C25 1693   1.970   6.123   8.724 -0.1261 -0.1745 -0.2049
   23CHL1   H25 1694   1.922   6.035   8.676 -1.8379  0.2859  0.5782
   23CHL1   C26 1695   2.008   6.224   8.619 -0.3206 -0.5504 -0.3668
   23CHL1  H26A 1696   2.058   6.169   8.537 -1.5985  0.2365 -1.7354
   23CHL1  H26B 1697   1.922   6.278   8.574 -0.2640  1.2533  1.5145
   23CHL1  H26C 1698   2.076   6.303   8.660 -2.0535  1.3532 -0.9764
   23CHL1   C27 1699   2.097   6.066   8.793  0.4073 -0.1878 -0.2012
   23CHL1  H27A 1700   2.170   6.149   8.808 -1.4920  1.9318 -1.8151
   23CHL1  H27B 1701   2.079   6.030   8.896  0.0450 -1.3228 -0.6486
   23CHL1  H27C 1702   2.156   5.996   8.729  1.2774  1.2612 -1.0434
   24CHL1    C3 1703   3.187   0.482  10.114 -0.1432 -0.5920 -0.2107
   24CHL1    H3 1704   3.294   0.501  10.092 -0.3159  0.0109 -0.5532
   24CHL1    O3 1705   3.147   0.483  10.250  0.7568 -0.3438 -0.1777
   24CHL1   H3' 1706   3.150   0.578  10.267  1.7650 -0.1494 -1.2862
   24CHL1    C4 1707   3.097   0.586  10.039 -0.1835  0.3682 -0.6423
   24CHL1   H4A 1708   2.993   0.552  10.057 -0.0245 -0.4221 -1.2056
   24CHL1   H4B 1709   3.109   0.687  10.086 -0.8267  0.9502 -1.6975
   24CHL1    C5 1710   3.127   0.593   9.889 -0.0753 -0.6035  0.3238
   24CHL1    C6 1711   3.177   0.708   9.838  0.6198  0.4444 -0.2368
   24CHL1    H6 1712   3.178   0.799   9.899  0.3943  0.8065 -0.7624
   24CHL1    C7 1713   3.202   0.722   9.692  0.5229  1.4092  0.0673
   24CHL1   H7A 1714   3.151   0.812   9.651 -0.2603  1.0748  0.2897
   24CHL1   H7B 1715   3.311   0.740   9.681  1.1796 -1.8717  0.1786
   24CHL1    C8 1716   3.161   0.599   9.608  0.3180 -0.7896 -0.1720
   24CHL1    H8 1717   3.055   0.603   9.574 -0.0240 -2.9243  0.4951
   24CHL1   C14 1718   3.252   0.603   9.477 -0.6101 -0.2233  0.0192
   24CHL1   H14 1719   3.358   0.595   9.509 -0.1351 -0.0976 -1.4363
   24CHL1   C15 1720   3.257   0.728   9.389 -0.3932 -0.1740  0.9447
   24CHL1  H15A 1721   3.154   0.767   9.371 -0.6896 -1.0088  0.7632
   24CHL1  H15B 1722   3.301   0.821   9.431 -2.4461  0.9435  0.7844
   24CHL1   C16 1723   3.319   0.681   9.255  0.8137  0.0766 -0.4480
   24CHL1  H16A 1724   3.264   0.697   9.159  3.1981  0.4966 -1.8341
   24CHL1  H16B 1725   3.420   0.727   9.247 -0.7396  3.6888 -1.5440
   24CHL1   C17 1726   3.316   0.522   9.269  0.3808 -0.0202  0.1964
   24CHL1   H17 1727   3.412   0.492   9.316  1.9918 -0.8798 -3.2985
   24CHL1   C13 1728   3.220   0.488   9.383  0.4524 -0.2268 -0.5424
   24CHL1   C18 1729   3.073   0.500   9.330 -0.2160  0.1573  1.0847
   24CHL1  H18A 1730   3.052   0.603   9.293 -0.2008  0.1143  0.9586
   24CHL1  H18B 1731   3.052   0.425   9.251 -2.1255  2.0605 -0.3143
   24CHL1  H18C 1732   3.002   0.480   9.413 -0.0058 -1.7420  0.8449
   24CHL1   C12 1733   3.245   0.356   9.452 -0.0946 -0.1320  0.2648
   24CHL1  H12A 1734   3.219   0.272   9.384  0.8658  0.3255 -0.6903
   24CHL1  H12B 1735   3.352   0.356   9.478  0.2795 -0.0457 -1.1802
   24CHL1   C11 1736   3.153   0.341   9.581 -0.1586 -0.3187 -0.6019
   24CHL1  H11A 1737   3.048   0.365   9.552 -0.0243  0.9443 -0.1172
   24CHL1  H11B 1738   3.166   0.246   9.639  1.1693  0.1985 -0.0150
   24CHL1    C9 1739   3.180   0.464   9.678 -0.5239 -0.2039  0.3777
   24CHL1    H9 1740   3.289   0.465   9.700 -1.0035  1.0427  3.2991
   24CHL1   C10 1741   3.113   0.461   9.820 -1.0159  0.4233 -0.8673
   24CHL1   C19 1742   2.968   0.433   9.810  0.9183  0.4513 -0.3530
   24CHL1  H19A 1743   2.947   0.339   9.754  2.4147 -1.1928  1.6757
   24CHL1  H19B 1744   2.928   0.414   9.912  0.7703  1.7398 -0.1532
   24CHL1  H19C 1745   2.918   0.520   9.762  0.8193  0.4390 -0.2732
   24CHL1    C1 1746   3.182   0.345   9.900 -0.2477  0.2999 -0.0818
   24CHL1   H1A 1747   3.163   0.245   9.856  1.0590  0.5791 -1.3713
   24CHL1   H1B 1748   3.291   0.358   9.880  0.3513 -1.1976  1.9163
   24CHL1    C2 1749   3.160   0.339  10.056  0.6194 -0.2694 -0.3369
   24CHL1   H2A 1750   3.235   0.275  10.109  0.1440  0.5357  1.3724
   24CHL1   H2B 1751   3.062   0.297  10.086 -0.4339  1.7357 -0.8107
   24CHL1   C20 1752   3.306   0.451   9.130 -0.4907 -0.0720 -0.4799
   24CHL1   H20 1753   3.257   0.357   9.163  1.6557 -0.8894  0.5899
   24CHL1   C21 1754   3.458   0.414   9.089  0.4123  0.4614 -0.3229
   24CHL1  H21A 1755   3.510   0.511   9.073  0.8255  0.0687 -1.4787
   24CHL1  H21B 1756   3.469   0.347   9.001  0.3801 -0.0324  0.0470
   24CHL1  H21C 1757   3.502   0.366   9.179  0.1833  1.0925  0.1306
   24CHL1   C22 1758   3.220   0.494   9.019  0.0624  0.0494 -0.0471
   24CHL1  H22A 1759   3.124   0.529   9.063  0.3040 -1.0866  1.4345
   24CHL1  H22B 1760   3.273   0.584   8.979  0.6049  0.4138  1.4344
   24CHL1   C23 1761   3.185   0.389   8.909 -0.1705  0.0631 -0.1665
   24CHL1  H23A 1762   3.284   0.358   8.871  1.4248  2.4244  1.7866
   24CHL1  H23B 1763   3.145   0.292   8.947 -1.0185  0.1249 -0.8592
   24CHL1   C24 1764   3.120   0.454   8.778 -0.8419 -0.3923 -0.7875
   24CHL1  H24A 1765   3.013   0.471   8.801 -0.6702 -0.6459  0.2620
   24CHL1  H24B 1766   3.166   0.551   8.752 -2.1479  0.9818  1.6553
   24CHL1   C25 1767   3.145   0.381   8.642  0.0547 -0.0009 -0.7736
   24CHL1   H25 1768   3.254   0.385   8.622 -0.2343  0.4180 -2.3621
   24CHL1   C26 1769   3.105   0.231   8.647  0.6540 -0.1033  1.1702
   24CHL1  H26A 1770   3.163   0.157   8.706  1.1628 -0.7835 -0.1469
   24CHL1  H26B 1771   2.995   0.227   8.667  0.5976 -1.2221  0.7220
   24CHL1  H26C 1772   3.114   0.193   8.543  0.7001 -0.4011  1.2827
   24CHL1   C27 1773   3.075   0.450   8.525  0.1562 -1.1167  0.2501
   24CHL1  H27A 1774   3.114   0.553   8.516 -1.1330 -0.5051  1.3510
   24CHL1  H27B 1775   3.104   0.384   8.440  2.0935  0.9775 -0.8145
   24CHL1  H27C 1776   2.965   0.462   8.534 -0.0727 -1.7226 -1.3920
   25CHL1    C3 1777   4.887   1.806  10.367 -0.1529 -0.3221  0.1062
   25CHL1    H3 1778   4.960   1.890  10.374 -1.1041  0.5075  0.5091
   25CHL1    O3 1779   4.847   1.768  10.496 -0.4911  0.2347  0.1273
   25CHL1   H3' 1780   4.806   1.681  10.485  2.1480 -0.9644 -1.1640
   25CHL1    C4 1781   4.757   1.850  10.293 -0.8713  0.1589  0.0458
   25CHL1   H4A 1782   4.689   1.762  10.302 -0.8598  0.2364  0.9937
   25CHL1   H4B 1783   4.718   1.934  10.354  0.5119  0.0244  1.1546
   25CHL1    C5 1784   4.783   1.881  10.145 -0.6547  0.4371 -0.5264
   25CHL1    C6 1785   4.743   1.999  10.092 -0.2350 -0.2418  1.1736
   25CHL1    H6 1786   4.687   2.067  10.158 -0.3503 -0.7948  1.6567
   25CHL1    C7 1787   4.738   2.021   9.940  0.0490  0.3206 -0.4818
   25CHL1   H7A 1788   4.633   2.048   9.914 -0.1992  0.4677  0.6334
   25CHL1   H7B 1789   4.805   2.105   9.915 -0.0132  0.1047 -1.4055
   25CHL1    C8 1790   4.778   1.899   9.852  0.2834 -0.4336 -0.4364
   25CHL1    H8 1791   4.685   1.840   9.836  0.7394 -0.8817 -1.5363
   25CHL1   C14 1792   4.835   1.940   9.719 -0.4588  0.3299 -0.8962
   25CHL1   H14 1793   4.928   1.995   9.747 -1.0395  0.6835  0.4168
   25CHL1   C15 1794   4.760   2.044   9.637  0.1001 -0.6968 -0.2993
   25CHL1  H15A 1795   4.651   2.035   9.659 -0.1989 -0.0134 -1.3996
   25CHL1  H15B 1796   4.786   2.150   9.657  1.2246 -0.9568 -0.3374
   25CHL1   C16 1797   4.795   2.013   9.490 -0.2716 -0.0838  0.4261
   25CHL1  H16A 1798   4.699   1.982   9.443 -0.1216  0.9965 -0.6384
   25CHL1  H16B 1799   4.831   2.103   9.436 -0.5618  1.4501  2.6361
   25CHL1   C17 1800   4.901   1.900   9.495  0.4918 -0.9610 -0.4371
   25CHL1   H17 1801   4.999   1.950   9.511  0.0537  0.2196 -1.3293
   25CHL1   C13 1802   4.869   1.823   9.625  0.2320  0.7755 -0.5474
   25CHL1   C18 1803   4.750   1.733   9.596 -0.4150  0.4781 -0.3747
   25CHL1  H18A 1804   4.699   1.700   9.689  1.4557  1.1905  0.9598
   25CHL1  H18B 1805   4.674   1.781   9.530  1.2276  0.7965 -2.1122
   25CHL1  H18C 1806   4.778   1.643   9.537 -1.6048 -0.0902 -0.1098
   25CHL1   C12 1807   4.981   1.747   9.688  0.2111  0.6299 -0.1866
   25CHL1  H12A 1808   4.997   1.652   9.633 -0.4574  0.5579 -0.2569
   25CHL1  H12B 1809   5.076   1.803   9.701  1.0389 -0.5066 -1.1348
   25CHL1   C11 1810   4.936   1.693   9.828 -0.3560 -0.4673 -0.1145
   25CHL1  H11A 1811   4.863   1.612   9.807 -0.5105 -0.4193  0.2250
   25CHL1  H11B 1812   5.022   1.655   9.886 -1.2641 -0.1504  1.4978
   25CHL1    C9 1813   4.879   1.814   9.919  1.4238  0.3184 -0.1456
   25CHL1    H9 1814   4.964   1.883   9.939  2.0437 -0.1628 -0.9942
   25CHL1   C10 1815   4.846   1.768  10.065  0.5659 -0.0129  0.4096
   25CHL1   C19 1816   4.748   1.645  10.061 -1.2158 -0.8699 -0.0555
   25CHL1  H19A 1817   4.808   1.551  10.053 -0.1893 -0.0597 -3.3567
   25CHL1  H19B 1818   4.685   1.628  10.150  0.7706  1.1686  1.8578
   25CHL1  H19C 1819   4.689   1.640   9.967 -3.3781 -0.8593  1.2293
   25CHL1    C1 1820   4.978   1.730  10.148  0.6456 -0.1453  1.2871
   25CHL1   H1A 1821   5.019   1.638  10.100  0.2906  0.8522 -1.0903
   25CHL1   H1B 1822   5.049   1.813  10.129  0.7215 -0.6930 -1.2378
   25CHL1    C2 1823   4.950   1.690  10.288  0.4154  0.0907 -0.3256
   25CHL1   H2A 1824   5.043   1.653  10.336 -0.4319 -1.8068 -0.0563
   25CHL1   H2B 1825   4.875   1.608  10.284  2.1505 -1.5448 -0.1895
   25CHL1   C20 1826   4.927   1.816   9.367  0.6148 -0.7911 -0.2353
   25CHL1   H20 1827   4.949   1.713   9.401 -1.6036 -1.3774 -0.4401
   25CHL1   C21 1828   5.042   1.886   9.293 -1.0504  0.4912  0.3234
   25CHL1  H21A 1829   5.066   1.844   9.192 -4.5807 -0.2245 -0.3518
   25CHL1  H21B 1830   5.130   1.871   9.358 -1.1308  2.1951  0.8512
   25CHL1  H21C 1831   5.016   1.993   9.285 -2.5199  0.0731 -1.1286
   25CHL1   C22 1832   4.810   1.811   9.269  0.0298  0.1824 -0.6082
   25CHL1  H22A 1833   4.735   1.749   9.322  2.1632 -0.8130  1.3999
   25CHL1  H22B 1834   4.769   1.912   9.249 -0.4589  0.4461  1.5070
   25CHL1   C23 1835   4.829   1.733   9.148  0.1540 -0.2129  0.2180
   25CHL1  H23A 1836   4.923   1.768   9.100 -0.6347  1.7016 -0.0239
   25CHL1  H23B 1837   4.827   1.625   9.174  0.9839  0.4065  3.1197
   25CHL1   C24 1838   4.714   1.747   9.037 -0.3606  0.0923 -0.4587
   25CHL1  H24A 1839   4.616   1.727   9.085 -0.4514  0.3166 -0.5499
   25CHL1  H24B 1840   4.712   1.854   9.008 -0.3253  0.1278 -0.3301
   25CHL1   C25 1841   4.744   1.661   8.915  0.1006 -0.2383 -0.1025
   25CHL1   H25 1842   4.767   1.559   8.951 -1.3610  0.5050  3.3321
   25CHL1   C26 1843   4.620   1.653   8.821  0.2580  0.1595 -0.3597
   25CHL1  H26A 1844   4.646   1.597   8.729 -0.3191  0.0029 -0.4298
   25CHL1  H26B 1845   4.537   1.590   8.862 -0.6008  1.0181 -0.7485
   25CHL1  H26C 1846   4.583   1.753   8.792 -3.0830  0.0365  2.7426
   25CHL1   C27 1847   4.872   1.697   8.841 -0.0496 -0.0966 -0.4472
   25CHL1  H27A 1848   4.876   1.640   8.746  0.4835 -2.5323  0.9311
   25CHL1  H27B 1849   4.880   1.804   8.814  1.0491 -0.1268 -0.2562
   25CHL1  H27C 1850   4.964   1.677   8.900 -0.6816  1.8447  1.3456
   26CHL1    C3 1851   5.968   4.608  10.218 -0.4238 -0.3695 -0.7723
   26CHL1    H3 1852   5.968   4.505  10.259  0.6681  0.2754  0.9519
   26CHL1    O3 1853   5.964   4.693  10.332  0.6374 -0.0605  0.0011
   26CHL1   H3' 1854   6.055   4.690  10.363  1.3632  1.9309 -1.7227
   26CHL1    C4 1855   6.103   4.628  10.153 -0.1900  0.2799  0.1029
   26CHL1   H4A 1856   6.140   4.732  10.144  1.0143 -0.2856 -2.4406
   26CHL1   H4B 1857   6.176   4.575  10.217 -0.0074  1.0004  0.4984
   26CHL1    C5 1858   6.095   4.574  10.012 -0.5905  0.1063 -0.0864
   26CHL1    C6 1859   6.185   4.481   9.980 -0.2754  0.2691  0.0005
   26CHL1    H6 1860   6.266   4.460  10.052  0.1373  2.0379  0.1174
   26CHL1    C7 1861   6.206   4.423   9.846 -0.1664 -0.7989  0.0023
   26CHL1   H7A 1862   6.315   4.410   9.827 -0.3494 -0.3481 -1.5064
   26CHL1   H7B 1863   6.151   4.327   9.854 -0.5186 -0.4882  1.7357
   26CHL1    C8 1864   6.134   4.500   9.737 -0.6784 -0.5797  0.1242
   26CHL1    H8 1865   6.195   4.589   9.710 -1.0027 -1.1341 -2.7706
   26CHL1   C14 1866   6.123   4.413   9.613 -0.4933 -0.2705  0.5245
   26CHL1   H14 1867   6.058   4.327   9.641 -0.9948  0.1989  0.8263
   26CHL1   C15 1868   6.250   4.350   9.552 -0.0487 -0.4861 -0.0515
   26CHL1  H15A 1869   6.329   4.428   9.568 -1.4557  0.7019  1.4993
   26CHL1  H15B 1870   6.281   4.256   9.603  0.3508 -0.9557 -1.1224
   26CHL1   C16 1871   6.215   4.324   9.405  0.4946  0.0694  0.1832
   26CHL1  H16A 1872   6.288   4.385   9.348  0.5445 -1.4272 -1.4244
   26CHL1  H16B 1873   6.235   4.225   9.358  0.6987 -0.5032  1.4414
   26CHL1   C17 1874   6.073   4.378   9.381  0.4917 -0.1343 -0.2406
   26CHL1   H17 1875   6.004   4.295   9.404  0.6068 -0.5824 -1.4351
   26CHL1   C13 1876   6.049   4.485   9.495  0.2945 -0.4005  0.5056
   26CHL1   C18 1877   6.120   4.618   9.463 -0.1871 -0.4602  0.8687
   26CHL1  H18A 1878   6.102   4.687   9.547 -0.2254 -2.3288  2.4724
   26CHL1  H18B 1879   6.230   4.607   9.453 -0.4301 -1.8987 -1.0254
   26CHL1  H18C 1880   6.088   4.668   9.369 -1.0940  0.2495  1.5472
   26CHL1   C12 1881   5.903   4.510   9.537  0.0525 -0.4430  0.4006
   26CHL1  H12A 1882   5.853   4.579   9.465  1.4321  1.8086  1.4677
   26CHL1  H12B 1883   5.845   4.417   9.553 -1.9238  1.0181  2.3116
   26CHL1   C11 1884   5.896   4.595   9.670 -0.0119 -0.7373  0.8460
   26CHL1  H11A 1885   5.915   4.704   9.667 -0.0079 -0.7196  1.4566
   26CHL1  H11B 1886   5.794   4.596   9.715  0.1621 -0.8675  1.2447
   26CHL1    C9 1887   5.991   4.531   9.782  0.1444 -0.6859 -0.0827
   26CHL1    H9 1888   5.950   4.431   9.805 -0.5873 -0.2827  0.4235
   26CHL1   C10 1889   5.981   4.609   9.919 -0.1113 -0.0367  0.3776
   26CHL1   C19 1890   6.016   4.758   9.890  0.1510  0.0430 -0.6102
   26CHL1  H19A 1891   5.926   4.806   9.846 -0.9781 -1.3100  0.1614
   26CHL1  H19B 1892   6.039   4.820   9.979 -0.1116 -0.8120  0.0669
   26CHL1  H19C 1893   6.100   4.766   9.818  0.3202  1.1591 -0.3053
   26CHL1    C1 1894   5.852   4.581   9.998  0.4562  0.1401  0.6521
   26CHL1   H1A 1895   5.755   4.604   9.948 -0.0687  1.8055  2.3015
   26CHL1   H1B 1896   5.854   4.473  10.023  0.2415 -0.4272 -1.5713
   26CHL1    C2 1897   5.847   4.648  10.140 -0.2363  0.0039  0.3220
   26CHL1   H2A 1898   5.761   4.625  10.207  0.4202 -2.2554  0.4563
   26CHL1   H2B 1899   5.843   4.759  10.131 -1.0279  0.0121  0.6651
   26CHL1   C20 1900   6.054   4.420   9.233  0.2884  0.3874  0.1412
   26CHL1   H20 1901   6.113   4.513   9.218  4.6301 -1.8136  1.8559
   26CHL1   C21 1902   5.912   4.457   9.218 -0.4396 -0.1623 -0.1359
   26CHL1  H21A 1903   5.874   4.543   9.277  0.3528  0.2793 -0.2595
   26CHL1  H21B 1904   5.849   4.369   9.245 -2.8038  2.0990  2.3739
   26CHL1  H21C 1905   5.875   4.477   9.115 -1.5999 -0.3591  0.2160
   26CHL1   C22 1906   6.101   4.308   9.136 -0.2970 -0.0654  0.0967
   26CHL1  H22A 1907   6.210   4.289   9.144 -0.8936 -4.3837  0.0670
   26CHL1  H22B 1908   6.046   4.218   9.170  0.4394  0.6147  3.5108
   26CHL1   C23 1909   6.072   4.345   8.986  0.4499  0.3590 -0.1526
   26CHL1  H23A 1910   5.961   4.341   8.983  0.3168  0.5559  2.1937
   26CHL1  H23B 1911   6.119   4.436   8.942 -0.3820  0.1650 -1.4659
   26CHL1   C24 1912   6.115   4.230   8.893 -0.3717  0.2371 -0.4416
   26CHL1  H24A 1913   6.217   4.250   8.852 -0.1027  0.6419  0.4164
   26CHL1  H24B 1914   6.134   4.139   8.953  0.4479 -1.1992 -2.7138
   26CHL1   C25 1915   6.016   4.200   8.785 -0.0520 -0.3931 -0.4571
   26CHL1   H25 1916   5.916   4.164   8.817 -0.6639  0.7170 -1.0166
   26CHL1   C26 1917   5.989   4.310   8.688  0.0106  0.1176  0.2041
   26CHL1  H26A 1918   5.945   4.272   8.594 -0.7453  2.2637 -0.3663
   26CHL1  H26B 1919   5.921   4.394   8.713 -1.9238 -0.9012 -1.3765
   26CHL1  H26C 1920   6.076   4.361   8.642  1.0190 -1.9025 -0.2230
   26CHL1   C27 1921   6.075   4.079   8.710 -0.1108 -0.8690 -0.6971
   26CHL1  H27A 1922   6.011   4.058   8.621 -0.3461 -1.1659 -0.4626
   26CHL1  H27B 1923   6.180   4.098   8.682  0.0826  1.0976  1.1048
   26CHL1  H27C 1924   6.077   3.992   8.780  1.3946 -1.5166 -1.5068
   27CHL1    C3 1925   5.455   1.733  10.332  0.2500 -0.8536 -0.3136
   27CHL1    H3 1926   5.534   1.809  10.348 -0.9625  0.5484 -0.7377
   27CHL1    O3 1927   5.412   1.675  10.457 -0.1819 -0.4231 -0.2785
   27CHL1   H3' 1928   5.381   1.746  10.513  0.8459  0.2544 -0.5415
   27CHL1    C4 1929   5.336   1.803  10.267 -0.1981  0.5044  0.1938
   27CHL1   H4A 1930   5.254   1.728  10.259 -0.9408  1.1215  1.5830
   27CHL1   H4B 1931   5.293   1.869  10.346 -0.5496  1.7681 -1.0176
   27CHL1    C5 1932   5.361   1.866  10.131 -0.7918  0.1045 -0.0756
   27CHL1    C6 1933   5.337   1.997  10.100 -0.6754 -0.2129 -1.0561
   27CHL1    H6 1934   5.310   2.062  10.185  0.9258 -0.3670 -0.3893
   27CHL1    C7 1935   5.350   2.050   9.963  0.0198  0.4814  0.9045
   27CHL1   H7A 1936   5.261   2.105   9.925 -0.0558 -0.2549 -0.0068
   27CHL1   H7B 1937   5.440   2.114   9.952 -1.5404  2.3777 -2.4709
   27CHL1    C8 1938   5.365   1.934   9.860  0.1576  0.4390  0.1840
   27CHL1    H8 1939   5.265   1.888   9.844  0.4226 -0.4678  0.9723
   27CHL1   C14 1940   5.416   1.992   9.726 -0.3826  0.7077 -0.1067
   27CHL1   H14 1941   5.503   2.055   9.754  0.7218 -0.7352 -0.1558
   27CHL1   C15 1942   5.319   2.093   9.665 -0.2482 -0.0743  0.0714
   27CHL1  H15A 1943   5.213   2.074   9.691 -0.1019  0.4169  1.0867
   27CHL1  H15B 1944   5.350   2.193   9.702  2.1336 -0.3830 -0.9109
   27CHL1   C16 1945   5.350   2.082   9.513  0.2103 -0.2434 -0.0473
   27CHL1  H16A 1946   5.268   2.022   9.469  0.1296  0.7049 -1.2157
   27CHL1  H16B 1947   5.357   2.180   9.460 -0.6951 -1.7088 -3.0720
   27CHL1   C17 1948   5.474   1.992   9.493  0.1978 -0.3925 -0.5921
   27CHL1   H17 1949   5.565   2.055   9.501  0.0608  0.1668 -2.8167
   27CHL1   C13 1950   5.457   1.895   9.612  0.0352 -0.1282  0.5266
   27CHL1   C18 1951   5.336   1.796   9.588 -0.4706 -0.0399 -0.1501
   27CHL1  H18A 1952   5.372   1.723   9.513 -0.3923 -0.9505  0.7498
   27CHL1  H18B 1953   5.303   1.727   9.669 -1.7082  0.8435  0.1256
   27CHL1  H18C 1954   5.241   1.845   9.558 -0.2420  0.8574  0.5377
   27CHL1   C12 1955   5.579   1.821   9.665  0.5318  0.6079 -0.5482
   27CHL1  H12A 1956   5.628   1.762   9.584 -2.5741 -1.0792 -1.3604
   27CHL1  H12B 1957   5.655   1.888   9.710  0.9415 -1.2794  1.7725
   27CHL1   C11 1958   5.539   1.740   9.796  0.4581  0.8844  0.8335
   27CHL1  H11A 1959   5.474   1.655   9.766  1.2729  0.5408 -0.0017
   27CHL1  H11B 1960   5.628   1.704   9.853 -0.2563  0.5963  1.7999
   27CHL1    C9 1961   5.475   1.830   9.908  0.0561  0.3142  0.2274
   27CHL1    H9 1962   5.559   1.897   9.933  1.7560 -1.7813  0.3995
   27CHL1   C10 1963   5.419   1.760  10.034 -0.1970 -0.3815 -0.3860
   27CHL1   C19 1964   5.313   1.660   9.991  0.9039 -0.5152 -0.2361
   27CHL1  H19A 1965   5.228   1.709   9.938  1.6202  1.1494  0.0763
   27CHL1  H19B 1966   5.345   1.584   9.917  0.9156  1.1317 -1.9935
   27CHL1  H19C 1967   5.277   1.605  10.080 -0.1075  0.0861 -0.2594
   27CHL1    C1 1968   5.537   1.687  10.098 -0.1265 -0.2136  0.8090
   27CHL1   H1A 1969   5.557   1.611  10.019 -3.2429  1.2233 -1.6143
   27CHL1   H1B 1970   5.617   1.764  10.103  1.1361 -1.4640  0.3580
   27CHL1    C2 1971   5.505   1.623  10.235 -0.5025  0.1097 -0.3011
   27CHL1   H2A 1972   5.601   1.583  10.273 -0.4884  0.7202  0.3163
   27CHL1   H2B 1973   5.430   1.542  10.219 -2.1995  1.2736  1.2834
   27CHL1   C20 1974   5.485   1.941   9.348 -0.3640 -0.0865  0.5148
   27CHL1   H20 1975   5.390   1.890   9.322 -0.8488  0.4350  1.2385
   27CHL1   C21 1976   5.583   1.823   9.337  0.5777 -0.1597 -0.5945
   27CHL1  H21A 1977   5.675   1.839   9.397 -0.3798  0.2111  0.8266
   27CHL1  H21B 1978   5.608   1.806   9.230 -1.1292 -0.1295 -1.0261
   27CHL1  H21C 1979   5.533   1.734   9.381 -3.0357  1.1167 -1.7656
   27CHL1   C22 1980   5.512   2.058   9.249 -0.0284  0.6276 -0.4779
   27CHL1  H22A 1981   5.429   2.133   9.252 -1.2743 -0.7204  0.0168
   27CHL1  H22B 1982   5.605   2.100   9.293  2.7623 -4.3524 -0.9568
   27CHL1   C23 1983   5.517   2.016   9.106 -0.0271  0.3069  1.2184
   27CHL1  H23A 1984   5.555   2.108   9.057  3.4406 -1.3293  0.5476
   27CHL1  H23B 1985   5.599   1.942   9.090  1.1045  1.3363  2.0585
   27CHL1   C24 1986   5.390   1.971   9.037 -0.6734 -0.2930 -0.4239
   27CHL1  H24A 1987   5.371   1.874   9.087 -0.8535  0.7862  1.6908
   27CHL1  H24B 1988   5.298   2.031   9.056  0.0707  0.9828 -0.7602
   27CHL1   C25 1989   5.399   1.962   8.878 -0.0570 -0.0642  0.2230
   27CHL1   H25 1990   5.372   2.064   8.842  0.7018  0.4624  1.1206
   27CHL1   C26 1991   5.539   1.943   8.818  0.2419 -1.1799  0.2283
   27CHL1  H26A 1992   5.611   2.013   8.866  0.2902 -1.5839  0.7590
   27CHL1  H26B 1993   5.573   1.839   8.837 -0.2835 -1.7877 -1.8915
   27CHL1  H26C 1994   5.562   1.982   8.717  2.1216  2.5815  1.8617
   27CHL1   C27 1995   5.303   1.865   8.814 -0.3438  0.3642 -0.3149
   27CHL1  H27A 1996   5.341   1.761   8.825  0.1878  0.6929  1.1249
   27CHL1  H27B 1997   5.202   1.878   8.858 -0.5342  0.6697 -0.8368
   27CHL1  H27C 1998   5.309   1.884   8.705 -0.9716  0.6271 -0.3092
   28CHL1    C3 1999   4.497   0.396  10.032  0.1816  1.4256  0.8657
   28CHL1    H3 2000   4.442   0.491  10.013 -2.1889  0.0029  0.2876
   28CHL1    O3 2001   4.491   0.372  10.172 -0.1938  0.0935 -0.0103
   28CHL1   H3' 2002   4.505   0.458  10.213  0.4864 -0.5606  1.1619
   28CHL1    C4 2003   4.423   0.284   9.956  0.6534 -0.3445 -0.2710
   28CHL1   H4A 2004   4.467   0.190   9.994 -0.5718 -1.5077 -1.6098
   28CHL1   H4B 2005   4.317   0.285   9.992  0.2314 -0.6713 -1.4628
   28CHL1    C5 2006   4.429   0.289   9.807 -0.1871 -0.0949 -0.8487
   28CHL1    C6 2007   4.323   0.276   9.730 -0.9123  0.5908 -0.9918
   28CHL1    H6 2008   4.226   0.257   9.780 -0.7709  0.5391 -0.7332
   28CHL1    C7 2009   4.314   0.273   9.586 -0.2813  0.0094  0.3707
   28CHL1   H7A 2010   4.251   0.195   9.539 -1.9968  1.3108  0.4124
   28CHL1   H7B 2011   4.274   0.373   9.560  0.6582  0.1743 -0.4844
   28CHL1    C8 2012   4.459   0.279   9.523  0.1107 -0.0044  0.0399
   28CHL1    H8 2013   4.490   0.174   9.508 -1.7295 -0.4843 -0.6934
   28CHL1   C14 2014   4.452   0.337   9.378  0.2089  0.3195  0.5692
   28CHL1   H14 2015   4.421   0.443   9.387  1.1330  0.6657 -0.1312
   28CHL1   C15 2016   4.351   0.273   9.281  0.5829  0.2990 -0.4215
   28CHL1  H15A 2017   4.368   0.163   9.284  1.6293  0.4315  3.5103
   28CHL1  H15B 2018   4.244   0.290   9.308  0.9600 -0.9913  2.1824
   28CHL1   C16 2019   4.388   0.328   9.141 -0.7231 -0.2974 -0.3054
   28CHL1  H16A 2020   4.380   0.245   9.067 -1.3997 -0.8524  0.3831
   28CHL1  H16B 2021   4.323   0.415   9.115 -1.9486 -1.2566 -0.5618
   28CHL1   C17 2022   4.538   0.378   9.157  0.3667 -0.7657  0.5179
   28CHL1   H17 2023   4.527   0.489   9.162  2.3986 -0.5293  0.6731
   28CHL1   C13 2024   4.586   0.332   9.300 -0.1377 -0.8954  0.2341
   28CHL1   C18 2025   4.652   0.196   9.298 -0.1350  0.6275 -0.6959
   28CHL1  H18A 2026   4.657   0.144   9.395  2.6413 -0.0197 -1.0893
   28CHL1  H18B 2027   4.602   0.122   9.231 -0.1082  0.5866 -0.6708
   28CHL1  H18C 2028   4.755   0.197   9.257  0.4828 -0.7494  0.7368
   28CHL1   C12 2029   4.672   0.434   9.380  0.1725 -0.2026 -0.6452
   28CHL1  H12A 2030   4.764   0.465   9.327 -0.4388  1.3033 -0.8839
   28CHL1  H12B 2031   4.629   0.535   9.399  0.4337  0.0534 -1.3890
   28CHL1   C11 2032   4.692   0.385   9.525 -0.1398 -0.2938 -0.4474
   28CHL1  H11A 2033   4.748   0.289   9.522 -1.8257 -1.5017  2.5922
   28CHL1  H11B 2034   4.749   0.464   9.579  0.8242 -0.5973 -0.9966
   28CHL1    C9 2035   4.563   0.366   9.608  0.1428  0.0234  0.3817
   28CHL1    H9 2036   4.512   0.464   9.609 -1.0332 -0.5735  1.2177
   28CHL1   C10 2037   4.572   0.321   9.754  0.0302 -0.0196  0.3481
   28CHL1   C19 2038   4.658   0.190   9.757 -0.0396  0.2893 -0.4433
   28CHL1  H19A 2039   4.602   0.115   9.698 -0.7089 -1.7137  2.5060
   28CHL1  H19B 2040   4.754   0.217   9.710  0.1922  0.0377 -0.1219
   28CHL1  H19C 2041   4.671   0.153   9.861 -0.8975  1.2795  0.0493
   28CHL1    C1 2042   4.648   0.428   9.837 -0.1123 -0.1812 -0.1197
   28CHL1   H1A 2043   4.755   0.436   9.808  0.2353 -1.5502  0.6972
   28CHL1   H1B 2044   4.602   0.526   9.810 -1.2553 -1.0722 -1.6131
   28CHL1    C2 2045   4.638   0.408   9.989  0.0766 -0.5839 -0.0114
   28CHL1   H2A 2046   4.700   0.485  10.039 -2.0887  0.1778  1.6399
   28CHL1   H2B 2047   4.686   0.315  10.027 -0.4523 -0.4149  1.1293
   28CHL1   C20 2048   4.622   0.353   9.027  0.6579 -0.3240  0.7642
   28CHL1   H20 2049   4.645   0.244   9.021 -2.0589 -1.0933  2.5594
   28CHL1   C21 2050   4.744   0.435   9.042 -1.0779  0.1810  0.5599
   28CHL1  H21A 2051   4.798   0.391   9.129 -1.8906  0.1329  1.0539
   28CHL1  H21B 2052   4.732   0.545   9.055  0.6561  0.4007  0.5293
   28CHL1  H21C 2053   4.809   0.418   8.954 -0.7800  0.8676  0.6439
   28CHL1   C22 2054   4.550   0.397   8.895  0.1008 -1.0130  0.0758
   28CHL1  H22A 2055   4.446   0.360   8.888 -1.3276  2.5200  0.3319
   28CHL1  H22B 2056   4.543   0.508   8.888 -0.5609 -1.0422  0.2471
   28CHL1   C23 2057   4.628   0.355   8.771  0.9107  0.7043 -0.4265
   28CHL1  H23A 2058   4.724   0.411   8.767  0.6128  1.3565  0.9032
   28CHL1  H23B 2059   4.644   0.247   8.790  2.5147  1.3219  2.2821
   28CHL1   C24 2060   4.540   0.368   8.647  0.6591  0.4442  0.4469
   28CHL1  H24A 2061   4.446   0.309   8.656 -0.8173  2.5725 -0.2562
   28CHL1  H24B 2062   4.514   0.474   8.630  2.0570  0.5734 -1.0905
   28CHL1   C25 2063   4.622   0.307   8.531 -0.0443  0.8272 -0.4967
   28CHL1   H25 2064   4.723   0.351   8.538  0.7267 -0.9199  0.0443
   28CHL1   C26 2065   4.632   0.152   8.537 -0.1197 -0.0461  0.1780
   28CHL1  H26A 2066   4.671   0.117   8.439 -2.1429 -0.8152 -0.4218
   28CHL1  H26B 2067   4.686   0.117   8.628  0.0711 -0.8326 -0.2223
   28CHL1  H26C 2068   4.529   0.111   8.532 -0.1879 -0.0346  1.2283
   28CHL1   C27 2069   4.569   0.355   8.399 -0.6454 -1.3910  0.0489
   28CHL1  H27A 2070   4.461   0.332   8.384 -0.4687 -0.7605 -2.7461
   28CHL1  H27B 2071   4.583   0.465   8.397  1.3736 -1.6013  0.3820
   28CHL1  H27C 2072   4.633   0.328   8.313 -0.4299  0.9687 -0.6129
   29CHL1    C3 2073   5.995   5.017   6.563  0.1624 -0.0072 -0.8566
   29CHL1    H3 2074   5.945   4.934   6.616  0.0128  0.2039 -0.6649
   29CHL1    O3 2075   5.962   5.009   6.423  0.1561  0.7701 -0.5061
   29CHL1   H3' 2076   5.972   5.099   6.390  1.3079  0.9301  0.2042
   29CHL1    C4 2077   5.945   5.157   6.619  0.6960  0.3016 -0.4794
   29CHL1   H4A 2078   5.977   5.225   6.537 -0.2600  0.7855 -0.4658
   29CHL1   H4B 2079   5.835   5.176   6.614  0.1522 -1.7176  1.8015
   29CHL1    C5 2080   5.989   5.197   6.758 -0.3012 -0.2029  0.0947
   29CHL1    C6 2081   5.911   5.262   6.842  1.0260 -0.8048 -0.6001
   29CHL1    H6 2082   5.806   5.284   6.816  1.6523  2.7916 -0.6421
   29CHL1    C7 2083   5.948   5.314   6.978 -0.2358 -0.0941 -0.2582
   29CHL1   H7A 2084   5.915   5.418   7.000  0.1304  0.0041 -0.1751
   29CHL1   H7B 2085   5.890   5.256   7.053 -0.5702  2.1647  1.3264
   29CHL1    C8 2086   6.101   5.302   7.007 -0.1467 -0.1691 -0.9248
   29CHL1    H8 2087   6.152   5.392   6.965 -0.6247 -1.3204 -4.3258
   29CHL1   C14 2088   6.124   5.310   7.156 -0.5526  0.4871  0.3926
   29CHL1   H14 2089   6.073   5.223   7.203  0.0747 -0.8071 -1.2227
   29CHL1   C15 2090   6.070   5.433   7.227 -0.8591 -0.6782 -0.3743
   29CHL1  H15A 2091   6.102   5.526   7.174  1.1217 -0.6171  0.8237
   29CHL1  H15B 2092   5.960   5.422   7.231 -0.9899  0.5011 -0.3231
   29CHL1   C16 2093   6.136   5.427   7.370 -0.1395  0.9611  0.7087
   29CHL1  H16A 2094   6.158   5.525   7.418  0.8344 -0.2296  2.8086
   29CHL1  H16B 2095   6.071   5.374   7.443 -1.0616 -0.5614 -1.1479
   29CHL1   C17 2096   6.268   5.327   7.348 -0.1362 -0.1240 -0.3420
   29CHL1   H17 2097   6.233   5.227   7.383 -0.8588  0.6725  1.3511
   29CHL1   C13 2098   6.271   5.303   7.195 -0.2401 -0.1139  0.2716
   29CHL1   C18 2099   6.351   5.421   7.123  0.1496  0.4392  0.2487
   29CHL1  H18A 2100   6.309   5.520   7.153  0.6344  0.5180  0.6678
   29CHL1  H18B 2101   6.452   5.424   7.168  0.0222 -0.6826  0.6410
   29CHL1  H18C 2102   6.361   5.414   7.012  0.9820 -2.5847  0.4509
   29CHL1   C12 2103   6.320   5.171   7.142  0.1151  0.1624  0.5957
   29CHL1  H12A 2104   6.429   5.160   7.162  0.1638 -0.2571  0.1135
   29CHL1  H12B 2105   6.268   5.092   7.199 -0.0629 -0.1106  0.0616
   29CHL1   C11 2106   6.302   5.157   6.981  0.5491  0.2351 -0.5683
   29CHL1  H11A 2107   6.369   5.233   6.935 -0.3741  1.1138 -0.4932
   29CHL1  H11B 2108   6.341   5.057   6.953 -0.1739 -0.1934 -0.0620
   29CHL1    C9 2109   6.161   5.177   6.937  0.0511 -0.0078  0.0504
   29CHL1    H9 2110   6.101   5.093   6.979  0.8484 -0.4158  0.4150
   29CHL1   C10 2111   6.139   5.174   6.784 -0.6943  0.5206  0.0810
   29CHL1   C19 2112   6.219   5.296   6.722 -0.2230 -0.6349  0.1936
   29CHL1  H19A 2113   6.222   5.304   6.611 -0.2979  2.5904  0.3250
   29CHL1  H19B 2114   6.184   5.392   6.766  1.0335 -0.2135  0.3236
   29CHL1  H19C 2115   6.325   5.300   6.756 -1.0125  2.4143  2.7244
   29CHL1    C1 2116   6.186   5.032   6.733  0.2668  0.2108  0.0856
   29CHL1   H1A 2117   6.293   5.015   6.758  0.0452 -1.0383  0.2387
   29CHL1   H1B 2118   6.140   4.956   6.800  1.4681 -2.3946 -1.8943
   29CHL1    C2 2119   6.149   4.999   6.587 -0.0040 -0.0749  0.7819
   29CHL1   H2A 2120   6.181   4.894   6.571 -0.5089 -0.2520  0.9113
   29CHL1   H2B 2121   6.208   5.054   6.511  0.4587 -0.0463  1.1583
   29CHL1   C20 2122   6.386   5.376   7.427  0.3140  0.5944 -0.5447
   29CHL1   H20 2123   6.416   5.472   7.378 -0.1149  0.0343 -1.9573
   29CHL1   C21 2124   6.493   5.269   7.411  0.3389  0.1018 -0.1415
   29CHL1  H21A 2125   6.460   5.166   7.434 -1.9553  0.9328  0.5634
   29CHL1  H21B 2126   6.588   5.290   7.465  1.0861 -0.4377 -1.2101
   29CHL1  H21C 2127   6.510   5.282   7.302 -0.4661 -1.5189 -0.4889
   29CHL1   C22 2128   6.356   5.395   7.583 -0.7441  0.2440  0.1635
   29CHL1  H22A 2129   6.435   5.461   7.625 -2.2349  1.2748  1.4541
   29CHL1  H22B 2130   6.269   5.462   7.600 -1.3110 -0.4543  0.0470
   29CHL1   C23 2131   6.312   5.271   7.662 -0.5985 -0.4014  1.2239
   29CHL1  H23A 2132   6.213   5.237   7.624 -0.5627  0.3513  0.4311
   29CHL1  H23B 2133   6.383   5.187   7.648 -2.2086 -1.6843  0.4425
   29CHL1   C24 2134   6.331   5.283   7.816  0.2396  0.6444  0.2006
   29CHL1  H24A 2135   6.320   5.182   7.860  0.1603 -0.8455 -2.9814
   29CHL1  H24B 2136   6.430   5.327   7.843  1.1669 -0.5278 -1.1020
   29CHL1   C25 2137   6.220   5.375   7.876 -0.1089 -0.2862  0.1573
   29CHL1   H25 2138   6.213   5.463   7.810 -1.0477 -0.9330 -0.6350
   29CHL1   C26 2139   6.086   5.309   7.885 -0.5512  0.7291 -0.2279
   29CHL1  H26A 2140   6.024   5.375   7.950 -1.2905 -1.6331  1.6346
   29CHL1  H26B 2141   6.042   5.310   7.783  0.6368  2.4726 -0.7705
   29CHL1  H26C 2142   6.099   5.214   7.940  1.5759  2.6896  2.9845
   29CHL1   C27 2143   6.252   5.435   8.018 -0.0385 -0.1451  0.2603
   29CHL1  H27A 2144   6.340   5.500   8.003 -0.2966 -0.5401 -4.2710
   29CHL1  H27B 2145   6.164   5.492   8.055  0.0198  0.1456 -0.0509
   29CHL1  H27C 2146   6.264   5.348   8.087  0.3612 -0.6747 -0.4629
   30CHL1    C3 2147   4.318   3.924   7.339 -0.1270  0.5761 -0.6498
   30CHL1    H3 2148   4.423   3.903   7.371 -2.1252 -2.6001  5.3268
   30CHL1    O3 2149   4.311   3.860   7.207 -0.1129  0.3847  0.1243
   30CHL1   H3' 2150   4.339   3.928   7.146  1.6611  1.5461  2.0974
   30CHL1    C4 2151   4.215   3.854   7.428  0.2342  0.8507 -0.1279
   30CHL1   H4A 2152   4.116   3.870   7.380  0.9598 -0.9479 -2.4079
   30CHL1   H4B 2153   4.228   3.745   7.411 -2.0998  0.6208 -0.8104
   30CHL1    C5 2154   4.219   3.896   7.572  0.7674 -0.1632  0.0036
   30CHL1    C6 2155   4.251   3.812   7.676 -0.9881  0.5820 -0.3510
   30CHL1    H6 2156   4.263   3.705   7.652  0.5070  1.1303 -2.3219
   30CHL1    C7 2157   4.252   3.858   7.823 -0.9037 -0.9631  0.5570
   30CHL1   H7A 2158   4.201   3.804   7.906 -1.5638  0.9046  1.4213
   30CHL1   H7B 2159   4.358   3.851   7.854 -1.4147 -0.5784  2.5047
   30CHL1    C8 2160   4.205   4.003   7.841  0.3590 -0.0992  0.2972
   30CHL1    H8 2161   4.094   4.001   7.843  0.3753 -0.2694  1.1938
   30CHL1   C14 2162   4.255   4.056   7.975 -0.7438 -0.3869 -0.4988
   30CHL1   H14 2163   4.366   4.052   7.969 -0.7531 -0.5821 -0.5305
   30CHL1   C15 2164   4.241   3.969   8.098 -0.3125  0.3653 -0.1705
   30CHL1  H15A 2165   4.138   3.928   8.096  0.2965 -1.4572  2.1362
   30CHL1  H15B 2166   4.320   3.892   8.091  0.0223  0.6499  0.4315
   30CHL1   C16 2167   4.270   4.060   8.219 -0.2019  0.3323  0.7920
   30CHL1  H16A 2168   4.186   4.063   8.292  0.3275  0.2827  1.4170
   30CHL1  H16B 2169   4.355   4.033   8.286  0.8405  0.6889 -0.3474
   30CHL1   C17 2170   4.288   4.208   8.152 -0.1494  0.5393 -0.2968
   30CHL1   H17 2171   4.396   4.212   8.126  0.5045 -1.4078  1.7538
   30CHL1   C13 2172   4.221   4.202   8.013  0.1346  0.1326  0.3945
   30CHL1   C18 2173   4.069   4.211   8.034 -0.6803  0.4122  0.1429
   30CHL1  H18A 2174   4.028   4.146   8.114  1.2456 -0.1566  0.7228
   30CHL1  H18B 2175   4.030   4.314   8.044 -0.1574  0.5794  0.5272
   30CHL1  H18C 2176   4.021   4.176   7.940  2.6553 -0.3854 -1.4317
   30CHL1   C12 2177   4.267   4.293   7.904 -0.5840 -0.1627 -0.0686
   30CHL1  H12A 2178   4.236   4.397   7.928 -0.2367  0.3115 -1.6055
   30CHL1  H12B 2179   4.378   4.298   7.896 -0.6126 -0.6993 -0.8713
   30CHL1   C11 2180   4.216   4.246   7.763 -0.6735 -0.8039  0.1212
   30CHL1  H11A 2181   4.106   4.256   7.774 -1.2598  0.1579 -4.4415
   30CHL1  H11B 2182   4.237   4.323   7.685 -1.6396 -0.8313 -0.1817
   30CHL1    C9 2183   4.252   4.095   7.729 -0.0298  0.3596  0.7477
   30CHL1    H9 2184   4.363   4.091   7.727  0.0627  1.9830  0.7996
   30CHL1   C10 2185   4.200   4.051   7.589 -0.7206  0.1649  0.1796
   30CHL1   C19 2186   4.051   4.088   7.579  0.1870  0.0092 -0.4386
   30CHL1  H19A 2187   4.008   4.057   7.482  2.2821  1.4463 -1.8911
   30CHL1  H19B 2188   4.002   4.045   7.670  1.8386  2.3901  1.7163
   30CHL1  H19C 2189   4.016   4.192   7.592 -3.5271 -1.2315  1.1245
   30CHL1    C1 2190   4.285   4.132   7.481 -0.0139  0.2594 -0.2259
   30CHL1   H1A 2191   4.224   4.225   7.481 -3.5961 -1.9092 -0.5925
   30CHL1   H1B 2192   4.389   4.149   7.517  0.2704 -1.7070  0.0048
   30CHL1    C2 2193   4.294   4.071   7.338  0.2604  0.4657 -0.6913
   30CHL1   H2A 2194   4.372   4.129   7.284  0.7395  1.2118  0.7576
   30CHL1   H2B 2195   4.197   4.087   7.285 -0.4718 -2.2790 -0.3504
   30CHL1   C20 2196   4.272   4.329   8.236  0.3585 -0.3972 -0.2327
   30CHL1   H20 2197   4.260   4.423   8.178  0.3354 -1.2496 -1.6503
   30CHL1   C21 2198   4.399   4.350   8.318  0.0709 -0.4258 -0.3066
   30CHL1  H21A 2199   4.385   4.436   8.386  1.4385  0.6449 -1.3306
   30CHL1  H21B 2200   4.494   4.369   8.264  2.0883 -2.4931  2.2157
   30CHL1  H21C 2201   4.409   4.262   8.386 -1.7865  0.7909  1.6781
   30CHL1   C22 2202   4.150   4.322   8.333 -0.4364 -0.8999  0.5893
   30CHL1  H22A 2203   4.057   4.275   8.294 -1.2267  1.0094  0.0289
   30CHL1  H22B 2204   4.186   4.265   8.421 -2.6218 -1.0317  1.4697
   30CHL1   C23 2205   4.106   4.459   8.386  0.4160 -0.3788 -0.2840
   30CHL1  H23A 2206   4.190   4.527   8.413  1.8147 -1.7631 -1.0133
   30CHL1  H23B 2207   4.052   4.508   8.303  1.2729 -2.4359 -2.1494
   30CHL1   C24 2208   4.025   4.441   8.515  0.4202 -0.0300 -0.1241
   30CHL1  H24A 2209   3.922   4.403   8.498 -0.3754  0.6064  2.6782
   30CHL1  H24B 2210   4.068   4.369   8.588 -3.4849 -1.6688  0.8270
   30CHL1   C25 2211   3.993   4.575   8.597  0.0183  1.0276  0.3778
   30CHL1   H25 2212   3.950   4.541   8.694  2.7897 -1.2362  0.9476
   30CHL1   C26 2213   4.118   4.647   8.630  0.2331 -0.1909 -0.1526
   30CHL1  H26A 2214   4.097   4.720   8.712 -0.5078 -1.9320  1.2707
   30CHL1  H26B 2215   4.199   4.575   8.656 -0.1289 -0.3117  0.6792
   30CHL1  H26C 2216   4.156   4.697   8.539 -0.4628  0.2774 -0.1913
   30CHL1   C27 2217   3.883   4.659   8.527 -0.0929  0.4205 -0.9911
   30CHL1  H27A 2218   3.913   4.766   8.535 -0.8224  0.5089  1.9022
   30CHL1  H27B 2219   3.859   4.641   8.420 -2.0665  0.2779 -0.5731
   30CHL1  H27C 2220   3.789   4.650   8.586  0.7422  1.8395  0.6504
   31CHL1    C3 2221   3.627   5.845   6.657  0.3337  0.7682 -0.6833
   31CHL1    H3 2222   3.735   5.825   6.641  0.0546 -0.1755 -1.4877
   31CHL1    O3 2223   3.573   5.879   6.530  0.6766 -0.7188  0.0838
   31CHL1   H3' 2224   3.604   5.803   6.479  0.0542  1.1189 -3.3732
   31CHL1    C4 2225   3.562   5.712   6.699 -0.2576  0.1452  0.2064
   31CHL1   H4A 2226   3.455   5.738   6.709  0.4010  2.8515  1.0515
   31CHL1   H4B 2227   3.568   5.631   6.624 -2.9230 -0.2271  0.3226
   31CHL1    C5 2228   3.612   5.668   6.832 -0.5240  0.3237  0.9064
   31CHL1    C6 2229   3.674   5.550   6.851  0.3369  0.4348 -0.0668
   31CHL1    H6 2230   3.671   5.475   6.770 -1.7343  1.7445 -1.2926
   31CHL1    C7 2231   3.721   5.508   6.984  0.1185  0.6653  0.3630
   31CHL1   H7A 2232   3.711   5.400   7.005 -0.1176  0.0746 -2.3902
   31CHL1   H7B 2233   3.832   5.516   6.975  0.5555 -3.7839 -0.6011
   31CHL1    C8 2234   3.671   5.591   7.109  0.5489 -0.4589  0.3656
   31CHL1    H8 2235   3.566   5.560   7.129  0.2089  0.7561  0.5451
   31CHL1   C14 2236   3.765   5.577   7.225  0.7593  0.6059 -0.7345
   31CHL1   H14 2237   3.860   5.627   7.197 -0.2312  2.4484 -0.9281
   31CHL1   C15 2238   3.812   5.428   7.251  0.0889  0.4048 -0.1755
   31CHL1  H15A 2239   3.726   5.359   7.255  0.4506  0.0063  1.1082
   31CHL1  H15B 2240   3.891   5.397   7.180 -0.0875 -0.4882  0.0121
   31CHL1   C16 2241   3.869   5.430   7.397 -0.2997  0.3198 -0.8894
   31CHL1  H16A 2242   3.800   5.367   7.458  0.6994  0.6812  0.6619
   31CHL1  H16B 2243   3.972   5.392   7.410  0.2642  2.4522  1.4623
   31CHL1   C17 2244   3.845   5.579   7.448  0.9374  0.4006 -0.8130
   31CHL1   H17 2245   3.938   5.634   7.420  0.4962  3.0648  2.3088
   31CHL1   C13 2246   3.725   5.627   7.362  0.4992 -0.1201 -0.9487
   31CHL1   C18 2247   3.588   5.567   7.410  0.5541  0.5229  0.3928
   31CHL1  H18A 2248   3.509   5.603   7.340 -0.2449 -0.3740  0.8227
   31CHL1  H18B 2249   3.589   5.456   7.411  0.1426  0.4757 -1.0916
   31CHL1  H18C 2250   3.562   5.603   7.511 -0.0307 -1.9784  1.1953
   31CHL1   C12 2251   3.705   5.779   7.330  0.4919 -0.1157  0.1916
   31CHL1  H12A 2252   3.659   5.832   7.417  0.9267  2.0615 -0.8201
   31CHL1  H12B 2253   3.808   5.821   7.334  0.1866  0.5847  1.8623
   31CHL1   C11 2254   3.624   5.808   7.197 -0.2385  0.6762 -0.8707
   31CHL1  H11A 2255   3.523   5.767   7.216  1.6345 -4.8362 -0.8163
   31CHL1  H11B 2256   3.617   5.916   7.173  1.0992  0.6825 -1.3398
   31CHL1    C9 2257   3.672   5.740   7.071  0.8122  0.6866 -0.0436
   31CHL1    H9 2258   3.780   5.763   7.055  1.3433 -1.7598 -0.2711
   31CHL1   C10 2259   3.600   5.782   6.947  0.4496 -0.0722  0.2649
   31CHL1   C19 2260   3.450   5.808   6.967 -0.0446 -0.5547 -0.1743
   31CHL1  H19A 2261   3.438   5.901   7.026 -2.0731 -0.4147 -0.7265
   31CHL1  H19B 2262   3.377   5.816   6.883  1.1439  1.6041 -1.0747
   31CHL1  H19C 2263   3.405   5.732   7.035 -2.8807  0.8807 -0.3059
   31CHL1    C1 2264   3.669   5.912   6.890 -0.2968  0.5739 -0.1337
   31CHL1   H1A 2265   3.658   5.994   6.964 -0.2580  0.4607 -0.0019
   31CHL1   H1B 2266   3.778   5.895   6.876 -0.1175  1.0848  0.6175
   31CHL1    C2 2267   3.615   5.956   6.756  0.1789  0.0444  0.4889
   31CHL1   H2A 2268   3.676   6.041   6.719  3.0757 -1.6501  1.0347
   31CHL1   H2B 2269   3.510   5.986   6.771  0.4691  0.9913  0.6719
   31CHL1   C20 2270   3.836   5.590   7.603  0.5256  0.2271 -0.0873
   31CHL1   H20 2271   3.746   5.531   7.627  1.1653 -1.3848 -1.4383
   31CHL1   C21 2272   3.818   5.737   7.630 -0.2400 -0.2803 -0.5741
   31CHL1  H21A 2273   3.726   5.775   7.580 -0.7722  1.4642  1.5805
   31CHL1  H21B 2274   3.908   5.799   7.604 -0.9547  0.3565 -1.6126
   31CHL1  H21C 2275   3.806   5.760   7.738  3.1730  0.1644 -0.1575
   31CHL1   C22 2276   3.957   5.527   7.677  1.0498 -0.4989 -0.1459
   31CHL1  H22A 2277   3.960   5.417   7.657 -0.5196 -0.3009 -1.6932
   31CHL1  H22B 2278   4.045   5.576   7.630 -0.4296  2.9826  0.4190
   31CHL1   C23 2279   3.958   5.536   7.830  0.0663  0.8916  0.4459
   31CHL1  H23A 2280   3.955   5.641   7.867  3.9995  1.0365  0.8297
   31CHL1  H23B 2281   3.872   5.475   7.865 -0.5861  1.2681 -0.4715
   31CHL1   C24 2282   4.088   5.478   7.881 -0.2346  0.0629 -0.4789
   31CHL1  H24A 2283   4.094   5.370   7.856  0.3310 -0.3370  1.2287
   31CHL1  H24B 2284   4.170   5.533   7.829 -0.1938 -1.0670 -1.6717
   31CHL1   C25 2285   4.112   5.504   8.031  0.6806  0.2684 -0.3953
   31CHL1   H25 2286   4.126   5.614   8.043 -2.8378  0.5976  2.7011
   31CHL1   C26 2287   3.986   5.462   8.114  0.6378  0.0215  0.0135
   31CHL1  H26A 2288   3.943   5.372   8.065  1.1851 -0.2072 -0.0608
   31CHL1  H26B 2289   4.016   5.436   8.218  0.0921  1.8086  0.6552
   31CHL1  H26C 2290   3.910   5.542   8.122  0.4000 -0.2529  0.5738
   31CHL1   C27 2291   4.231   5.421   8.086 -0.0578  0.5782  0.0316
   31CHL1  H27A 2292   4.305   5.435   8.004 -1.0737  1.9508 -0.7019
   31CHL1  H27B 2293   4.213   5.312   8.087  0.6258  0.4365 -1.0592
   31CHL1  H27C 2294   4.265   5.477   8.176  1.7981 -0.3810 -0.0158
   32CHL1    C3 2295   4.755   3.954   6.923  0.5338  0.0149 -0.3550
   32CHL1    H3 2296   4.651   3.988   6.947  0.5110  0.2046 -0.7263
   32CHL1    O3 2297   4.782   3.939   6.782 -0.2487 -0.8730  0.3472
   32CHL1   H3' 2298   4.707   3.907   6.732 -0.2513 -0.0491 -0.1891
   32CHL1    C4 2299   4.859   4.049   6.983  0.0513  0.0535  0.7267
   32CHL1   H4A 2300   4.958   4.007   6.958 -0.2126  0.6300 -1.5911
   32CHL1   H4B 2301   4.857   4.141   6.921 -0.3888 -0.0401  0.5921
   32CHL1    C5 2302   4.829   4.063   7.127  0.3522  0.1733  0.2868
   32CHL1    C6 2303   4.789   4.178   7.181 -0.4627 -0.1696  0.8645
   32CHL1    H6 2304   4.761   4.263   7.117 -0.0104  0.9707  2.1393
   32CHL1    C7 2305   4.759   4.210   7.324  0.0487 -0.4464  0.2693
   32CHL1   H7A 2306   4.809   4.305   7.350  1.7168 -1.1545 -0.1921
   32CHL1   H7B 2307   4.650   4.210   7.346  0.1489 -4.0591  1.4966
   32CHL1    C8 2308   4.810   4.093   7.416  0.1690  0.0681 -0.2663
   32CHL1    H8 2309   4.915   4.114   7.445 -0.6337  1.7199  1.7176
   32CHL1   C14 2310   4.735   4.102   7.556 -0.4575  0.0860  0.0683
   32CHL1   H14 2311   4.628   4.077   7.539 -0.7446 -0.8564  2.8602
   32CHL1   C15 2312   4.747   4.245   7.619  0.6035 -0.2255  0.0915
   32CHL1  H15A 2313   4.849   4.286   7.606 -0.2267  1.9849  0.1408
   32CHL1  H15B 2314   4.673   4.311   7.570 -1.1967 -3.1481 -1.4440
   32CHL1   C16 2315   4.731   4.205   7.773  0.1562 -0.6739  0.1699
   32CHL1  H16A 2316   4.814   4.260   7.822  0.6247  1.8211 -3.0591
   32CHL1  H16B 2317   4.642   4.249   7.822  1.1603  0.3398  1.1405
   32CHL1   C17 2318   4.709   4.057   7.786 -0.4925  1.0147 -0.4912
   32CHL1   H17 2319   4.601   4.031   7.780 -0.0220 -1.0135 -0.9254
   32CHL1   C13 2320   4.782   3.998   7.661 -0.9414  0.1240 -0.3333
   32CHL1   C18 2321   4.936   4.001   7.693  0.5925  0.8564 -0.1990
   32CHL1  H18A 2322   4.992   3.966   7.604  2.4058  0.2092  1.1278
   32CHL1  H18B 2323   4.977   4.101   7.716  1.2615  0.9482 -1.6634
   32CHL1  H18C 2324   4.950   3.928   7.776 -1.3185 -0.6658 -1.1387
   32CHL1   C12 2325   4.734   3.864   7.601 -0.2734 -0.3204  0.5935
   32CHL1  H12A 2326   4.766   3.783   7.670  1.1894  0.4790  0.8864
   32CHL1  H12B 2327   4.623   3.857   7.602 -0.2869 -0.2235  0.0604
   32CHL1   C11 2328   4.795   3.833   7.460 -0.0012  0.2481  0.6688
   32CHL1  H11A 2329   4.903   3.815   7.475  0.1089  1.1722  1.0180
   32CHL1  H11B 2330   4.746   3.742   7.419 -1.5499  0.9553  0.8817
   32CHL1    C9 2331   4.781   3.956   7.358 -0.4840 -0.3057 -0.1703
   32CHL1    H9 2332   4.671   3.960   7.339 -0.3781 -0.7821 -0.9016
   32CHL1   C10 2333   4.836   3.941   7.220 -0.3356 -0.6570  0.1576
   32CHL1   C19 2334   4.979   3.898   7.231 -0.4900 -0.5312 -0.2173
   32CHL1  H19A 2335   4.984   3.809   7.297  0.2064 -0.5765 -0.3239
   32CHL1  H19B 2336   5.014   3.860   7.133 -1.9327 -1.0281 -0.5593
   32CHL1  H19C 2337   5.052   3.975   7.264 -0.0472 -0.7009 -0.7811
   32CHL1    C1 2338   4.755   3.828   7.148  0.2164 -0.6321  0.2174
   32CHL1   H1A 2339   4.776   3.738   7.209  0.2611 -1.1819 -0.5942
   32CHL1   H1B 2340   4.645   3.841   7.158  0.0903 -1.3021 -0.2958
   32CHL1    C2 2341   4.769   3.822   6.991  0.1566  0.2959 -0.3048
   32CHL1   H2A 2342   4.694   3.746   6.961 -0.1418 -0.1038  1.3746
   32CHL1   H2B 2343   4.872   3.779   6.983 -0.4986 -1.4505  0.1821
   32CHL1   C20 2344   4.755   4.004   7.927  0.2614  0.5889  0.6600
   32CHL1   H20 2345   4.865   4.020   7.928  0.5070  0.4707 -3.7389
   32CHL1   C21 2346   4.717   3.856   7.954  0.8589 -0.1139  0.2723
   32CHL1  H21A 2347   4.758   3.785   7.879 -0.5040  0.1807 -0.8044
   32CHL1  H21B 2348   4.607   3.848   7.968  0.9348 -0.2137  0.8233
   32CHL1  H21C 2349   4.749   3.809   8.049 -0.4484 -1.0203  0.2901
   32CHL1   C22 2350   4.681   4.081   8.039  0.0179 -0.0416 -0.2810
   32CHL1  H22A 2351   4.694   4.190   8.023 -2.4202  0.2129 -0.8029
   32CHL1  H22B 2352   4.575   4.053   8.027  0.1667 -0.3029 -1.1051
   32CHL1   C23 2353   4.744   4.051   8.179 -0.2837  0.4651  0.3988
   32CHL1  H23A 2354   4.756   3.948   8.219  2.5210  0.6222  0.2017
   32CHL1  H23B 2355   4.852   4.076   8.163 -0.5332  0.9749 -0.5812
   32CHL1   C24 2356   4.688   4.138   8.287 -0.3710 -0.4500  0.4864
   32CHL1  H24A 2357   4.699   4.241   8.247  0.3295 -1.6445 -2.7358
   32CHL1  H24B 2358   4.581   4.107   8.285 -0.9826  1.5355 -0.0376
   32CHL1   C25 2359   4.753   4.119   8.427 -0.5129  0.0434  0.1807
   32CHL1   H25 2360   4.863   4.116   8.411 -0.6194  4.1779 -3.1708
   32CHL1   C26 2361   4.720   4.232   8.530 -0.3368  0.3643 -0.4381
   32CHL1  H26A 2362   4.776   4.224   8.626 -0.6817 -0.8053 -0.3243
   32CHL1  H26B 2363   4.743   4.335   8.496  0.2432  0.1227 -0.7770
   32CHL1  H26C 2364   4.612   4.223   8.557  0.1010  1.5333  2.0388
   32CHL1   C27 2365   4.726   3.985   8.497 -0.5295  0.2584  0.0485
   32CHL1  H27A 2366   4.618   3.962   8.489 -0.0178 -2.1066 -0.9164
   32CHL1  H27B 2367   4.781   3.904   8.444  0.8327  1.0801  0.1659
   32CHL1  H27C 2368   4.757   3.984   8.604 -0.9755 -0.2466  0.1785
   33CHL1    C3 2369   5.578   4.296   6.712 -0.2121  0.0587  0.1781
   33CHL1    H3 2370   5.521   4.204   6.687 -0.6357  0.4120 -0.1660
   33CHL1    O3 2371   5.614   4.366   6.595  0.4549  0.1714  0.7632
   33CHL1   H3' 2372   5.658   4.441   6.637 -0.9965  1.3278  0.2871
   33CHL1    C4 2373   5.479   4.386   6.788 -0.0580  0.1474  0.9624
   33CHL1   H4A 2374   5.529   4.484   6.804 -2.7784  1.6936  0.5525
   33CHL1   H4B 2375   5.389   4.409   6.727 -0.8425 -0.1218  1.9903
   33CHL1    C5 2376   5.437   4.345   6.923 -1.0333  0.5298 -0.0490
   33CHL1    C6 2377   5.306   4.336   6.961  0.1964  0.9878  0.2734
   33CHL1    H6 2378   5.233   4.358   6.881  0.7947 -0.6463 -0.7709
   33CHL1    C7 2379   5.259   4.300   7.097 -0.0325  0.2888 -0.3475
   33CHL1   H7A 2380   5.181   4.366   7.140  1.3876  1.3447  0.6884
   33CHL1   H7B 2381   5.217   4.199   7.077  0.7375  0.1241 -1.1593
   33CHL1    C8 2382   5.378   4.288   7.202  0.1251 -0.2143  0.0935
   33CHL1    H8 2383   5.389   4.394   7.234 -0.2505  0.2654 -1.3080
   33CHL1   C14 2384   5.332   4.208   7.318  0.0481  0.2608 -0.0817
   33CHL1   H14 2385   5.308   4.109   7.274 -0.8119 -0.1246  1.1927
   33CHL1   C15 2386   5.198   4.246   7.383  0.6068  0.2295  0.4689
   33CHL1  H15A 2387   5.202   4.350   7.422 -1.0311  0.9215 -1.0703
   33CHL1  H15B 2388   5.112   4.232   7.314  0.4526 -0.6826  0.8370
   33CHL1   C16 2389   5.195   4.134   7.494  0.8212 -0.0738  0.0149
   33CHL1  H16A 2390   5.131   4.178   7.573  0.6416  1.4187 -0.9204
   33CHL1  H16B 2391   5.148   4.044   7.450  2.6889 -0.9776 -0.2316
   33CHL1   C17 2392   5.338   4.098   7.536 -0.0636  0.3562  0.6974
   33CHL1   H17 2393   5.347   3.992   7.503  1.8800  0.8125 -0.4269
   33CHL1   C13 2394   5.425   4.172   7.430 -0.4795 -0.9372  0.7278
   33CHL1   C18 2395   5.461   4.302   7.495 -0.6572 -0.2215 -0.5526
   33CHL1  H18A 2396   5.531   4.290   7.581  1.3859 -1.3766 -2.2781
   33CHL1  H18B 2397   5.520   4.373   7.432  1.6442 -1.8560 -0.3828
   33CHL1  H18C 2398   5.370   4.350   7.537 -0.4824  1.4381 -1.9406
   33CHL1   C12 2399   5.543   4.106   7.363 -0.3697 -0.4923  0.1252
   33CHL1  H12A 2400   5.623   4.081   7.436  0.3952 -1.2585 -0.9541
   33CHL1  H12B 2401   5.506   4.008   7.328  0.6810 -0.1582 -2.1044
   33CHL1   C11 2402   5.603   4.190   7.257 -0.4926 -0.3077  0.2819
   33CHL1  H11A 2403   5.646   4.286   7.294 -0.7542  0.7025 -1.8778
   33CHL1  H11B 2404   5.682   4.128   7.212 -1.6550 -0.3801 -1.7889
   33CHL1    C9 2405   5.501   4.225   7.144 -0.5856  0.8140 -0.9191
   33CHL1    H9 2406   5.456   4.128   7.112 -0.6727 -0.2243  2.0819
   33CHL1   C10 2407   5.556   4.297   7.018 -0.0101 -0.5277 -0.6016
   33CHL1   C19 2408   5.635   4.428   7.063 -0.2561  0.0228 -0.4512
   33CHL1  H19A 2409   5.724   4.394   7.120  1.5877 -0.9838 -3.6708
   33CHL1  H19B 2410   5.667   4.497   6.983  0.5267 -1.0423 -1.0835
   33CHL1  H19C 2411   5.573   4.481   7.138  1.8972  2.2071 -0.1159
   33CHL1    C1 2412   5.643   4.204   6.938 -0.0676 -0.0226 -0.7052
   33CHL1   H1A 2413   5.730   4.166   6.996 -0.2878 -1.2767 -1.1565
   33CHL1   H1B 2414   5.582   4.112   6.921  0.2769 -0.2831 -0.5408
   33CHL1    C2 2415   5.691   4.251   6.798  0.6169 -0.1840 -0.4220
   33CHL1   H2A 2416   5.762   4.178   6.753 -1.0186 -3.4141  1.8030
   33CHL1   H2B 2417   5.744   4.345   6.822 -0.2644  0.2313 -0.0559
   33CHL1   C20 2418   5.375   4.100   7.684 -0.2142 -0.1259 -0.1544
   33CHL1   H20 2419   5.360   4.206   7.714 -0.8590  0.7041 -3.1040
   33CHL1   C21 2420   5.519   4.043   7.691 -0.3955 -0.0331  0.0492
   33CHL1  H21A 2421   5.525   3.941   7.648 -0.4865 -0.1800  0.3809
   33CHL1  H21B 2422   5.548   4.023   7.797  1.2611  0.5982 -0.2674
   33CHL1  H21C 2423   5.603   4.101   7.647 -1.5149  1.2134 -0.5426
   33CHL1   C22 2424   5.284   4.010   7.766  0.1820 -0.2212 -0.1004
   33CHL1  H22A 2425   5.178   4.041   7.753  0.4511  0.9999  0.4933
   33CHL1  H22B 2426   5.307   3.904   7.742 -1.2545 -0.4451 -0.6038
   33CHL1   C23 2427   5.300   4.011   7.919  0.4633  0.5225 -0.5539
   33CHL1  H23A 2428   5.407   3.985   7.934  0.9509  1.4434 -2.1445
   33CHL1  H23B 2429   5.264   4.110   7.954 -0.5704 -0.7054  2.0375
   33CHL1   C24 2430   5.204   3.904   7.989 -0.3786 -0.8295 -0.3500
   33CHL1  H24A 2431   5.110   3.891   7.932 -1.4134 -0.6778  1.2792
   33CHL1  H24B 2432   5.254   3.805   7.981 -0.4631 -0.8509 -0.6259
   33CHL1   C25 2433   5.174   3.933   8.139 -0.3355  0.1755  0.6261
   33CHL1   H25 2434   5.118   4.029   8.133 -1.7801 -0.6234  0.8064
   33CHL1   C26 2435   5.081   3.822   8.201  0.3353  0.2467  0.1266
   33CHL1  H26A 2436   5.001   3.798   8.127  0.4053 -1.6666  0.6061
   33CHL1  H26B 2437   5.138   3.728   8.214  1.2094  0.3863 -2.1940
   33CHL1  H26C 2438   5.032   3.856   8.295 -0.0308 -3.5221  1.4807
   33CHL1   C27 2439   5.303   3.954   8.225 -0.2814  0.5504 -0.9303
   33CHL1  H27A 2440   5.358   3.858   8.239 -0.8113  0.0810 -1.9623
   33CHL1  H27B 2441   5.373   4.032   8.189 -0.3597 -0.1401 -2.6453
   33CHL1  H27C 2442   5.268   3.988   8.325  0.7458  1.0411 -0.7187
   34CHL1    C3 2443   0.196   2.866   7.115 -0.4124 -0.9225 -0.9420
   34CHL1    H3 2444   0.296   2.917   7.116  0.0174 -1.7445  0.1592
   34CHL1    O3 2445   0.166   2.838   6.980  0.3932  0.0362 -0.2595
   34CHL1   H3' 2446   0.216   2.758   6.961  0.9221  0.1626  0.5652
   34CHL1    C4 2447   0.216   2.735   7.191 -0.3894  0.7397 -0.5321
   34CHL1   H4A 2448   0.134   2.660   7.186  1.5367 -1.6120  0.6492
   34CHL1   H4B 2449   0.303   2.683   7.143 -0.6452 -1.8740  1.5880
   34CHL1    C5 2450   0.239   2.763   7.337  0.4114  0.6883  0.4595
   34CHL1    C6 2451   0.350   2.717   7.401  0.2971  0.0830  0.4657
   34CHL1    H6 2452   0.417   2.650   7.344  0.4684 -0.3740  1.1904
   34CHL1    C7 2453   0.378   2.726   7.546 -0.5101 -0.1502  0.0317
   34CHL1   H7A 2454   0.433   2.636   7.582  0.3173  0.1587 -0.4225
   34CHL1   H7B 2455   0.456   2.805   7.558 -2.0765  2.1634 -3.2628
   34CHL1    C8 2456   0.247   2.759   7.627  0.2278 -0.1154 -0.1240
   34CHL1    H8 2457   0.184   2.669   7.639 -3.2709  1.7470 -2.7510
   34CHL1   C14 2458   0.288   2.820   7.761  0.5417  0.5123  0.1386
   34CHL1   H14 2459   0.328   2.919   7.733  0.9397  0.0971 -0.7943
   34CHL1   C15 2460   0.393   2.751   7.856  0.0853  0.4255 -0.0123
   34CHL1  H15A 2461   0.395   2.641   7.837  0.1799  0.3073  0.6321
   34CHL1  H15B 2462   0.489   2.802   7.839 -0.6937  1.6716 -0.7794
   34CHL1   C16 2463   0.357   2.781   8.002 -0.0577 -0.1953  0.3450
   34CHL1  H16A 2464   0.323   2.684   8.044 -0.5131  0.5677  1.8155
   34CHL1  H16B 2465   0.437   2.817   8.070  0.3000 -0.3213 -0.0036
   34CHL1   C17 2466   0.245   2.886   7.995  0.1362 -0.0977 -0.2892
   34CHL1   H17 2467   0.294   2.983   7.972 -0.8977  0.4036 -0.4467
   34CHL1   C13 2468   0.169   2.852   7.859 -0.5331 -0.4370  0.6264
   34CHL1   C18 2469   0.078   2.732   7.876 -0.2057  0.5234  0.0920
   34CHL1  H18A 2470  -0.012   2.773   7.927  0.1288 -1.0432  2.0747
   34CHL1  H18B 2471   0.058   2.678   7.781 -0.2592  2.4450 -1.0480
   34CHL1  H18C 2472   0.116   2.652   7.943 -0.3664  0.0195 -0.4086
   34CHL1   C12 2473   0.082   2.967   7.789  0.2412  0.5593 -0.8363
   34CHL1  H12A 2474  -0.012   2.984   7.845  1.0661  0.0845  0.7321
   34CHL1  H12B 2475   0.143   3.060   7.788  0.4018  0.4722  0.2327
   34CHL1   C11 2476   0.040   2.928   7.641  0.3595  0.0006 -0.4899
   34CHL1  H11A 2477  -0.033   2.847   7.661  0.8999 -0.1562  0.9787
   34CHL1  H11B 2478  -0.020   3.017   7.611 -1.5798 -0.1110  2.6402
   34CHL1    C9 2479   0.162   2.875   7.563 -0.6627 -0.1545 -0.2248
   34CHL1    H9 2480   0.226   2.966   7.563 -0.7903 -0.0508  0.6296
   34CHL1   C10 2481   0.124   2.843   7.410  0.2905  0.1707 -0.7137
   34CHL1   C19 2482  -0.005   2.759   7.409 -0.8609 -0.5128 -0.0787
   34CHL1  H19A 2483   0.003   2.681   7.488 -0.8145  0.0646  0.4891
   34CHL1  H19B 2484  -0.091   2.825   7.426  1.5096  2.9466 -0.5243
   34CHL1  H19C 2485  -0.021   2.706   7.312  1.0949 -1.3379 -0.0034
   34CHL1    C1 2486   0.108   2.973   7.325  0.2720  0.1731 -0.0081
   34CHL1   H1A 2487   0.026   3.038   7.364 -1.5792 -1.4344 -1.0161
   34CHL1   H1B 2488   0.204   3.027   7.341  0.0027  1.6711 -2.7164
   34CHL1    C2 2489   0.079   2.941   7.177 -0.5749  0.4504  0.0169
   34CHL1   H2A 2490   0.072   3.043   7.135  3.2633  0.3548 -1.1970
   34CHL1   H2B 2491  -0.011   2.878   7.159 -0.1567 -0.0650 -0.2965
   34CHL1   C20 2492   0.161   2.904   8.125  0.2425 -0.5810 -0.0671
   34CHL1   H20 2493   0.065   2.853   8.100  0.7374 -0.8861 -1.4017
   34CHL1   C21 2494   0.140   3.053   8.151  0.3562  0.0159  0.8921
   34CHL1  H21A 2495   0.120   3.106   8.055 -0.9486  2.0137  2.2020
   34CHL1  H21B 2496   0.229   3.104   8.193  1.7474 -1.9587  0.4565
   34CHL1  H21C 2497   0.048   3.076   8.208 -0.3800 -0.7041  0.0344
   34CHL1   C22 2498   0.209   2.834   8.263 -0.2414 -0.6698  0.4764
   34CHL1  H22A 2499   0.216   2.724   8.250  0.8545 -0.7217  1.2965
   34CHL1  H22B 2500   0.314   2.868   8.275  0.8940 -2.6751 -2.6260
   34CHL1   C23 2501   0.116   2.851   8.385  0.2511  0.2964  0.0275
   34CHL1  H23A 2502   0.009   2.862   8.355 -0.3583 -4.6142 -0.4832
   34CHL1  H23B 2503   0.131   2.754   8.438  2.7299 -0.7514 -2.3527
   34CHL1   C24 2504   0.166   2.963   8.474 -1.1446 -0.0457  0.5261
   34CHL1  H24A 2505   0.272   2.942   8.501 -1.5055 -0.9566  1.2832
   34CHL1  H24B 2506   0.171   3.062   8.422  1.1895 -0.6471 -0.5220
   34CHL1   C25 2507   0.094   2.982   8.604  1.3519  0.6149  0.2562
   34CHL1   H25 2508   0.110   2.886   8.658  2.6801  1.0744  0.7289
   34CHL1   C26 2509   0.150   3.089   8.701  0.1991 -0.4463  0.3486
   34CHL1  H26A 2510   0.252   3.064   8.738 -0.2924  0.7052  2.5825
   34CHL1  H26B 2511   0.151   3.187   8.647  1.7800 -0.4861  0.2471
   34CHL1  H26C 2512   0.084   3.097   8.789  2.7159  0.1350  2.2861
   34CHL1   C27 2513  -0.062   2.986   8.587 -0.7558 -0.9251 -0.3157
   34CHL1  H27A 2514  -0.097   3.052   8.505  1.7828  0.9147 -0.0298
   34CHL1  H27B 2515  -0.100   2.884   8.565 -0.2190 -1.4325  0.9970
   34CHL1  H27C 2516  -0.104   3.018   8.685  0.5107 -3.1046  1.0327
   35CHL1    C3 2517   3.136   3.877   7.281  0.3347  0.4942 -0.5854
   35CHL1    H3 2518   3.088   3.777   7.289  0.2094  0.6467  0.8451
   35CHL1    O3 2519   3.141   3.921   7.145 -0.1675  0.0012 -0.8166
   35CHL1   H3' 2520   3.222   3.973   7.138  0.8042 -1.1458  1.0293
   35CHL1    C4 2521   3.056   3.977   7.365 -0.0314  0.2007 -0.5484
   35CHL1   H4A 2522   3.090   4.083   7.354  0.0268 -0.0189 -3.4168
   35CHL1   H4B 2523   2.953   3.967   7.325 -0.3629  1.6719 -0.1373
   35CHL1    C5 2524   3.056   3.938   7.509 -0.2632  0.2611 -0.4976
   35CHL1    C6 2525   2.946   3.918   7.584 -0.0584  0.1516 -0.6325
   35CHL1    H6 2526   2.846   3.932   7.540  0.0990 -1.8144 -1.7239
   35CHL1    C7 2527   2.949   3.897   7.735 -0.0153 -0.8166  0.1837
   35CHL1   H7A 2528   2.876   3.966   7.783  0.9354  0.7843 -0.5736
   35CHL1   H7B 2529   2.938   3.788   7.748  0.4810 -0.7378  1.4346
   35CHL1    C8 2530   3.085   3.948   7.801  0.2792  0.4906  1.0359
   35CHL1    H8 2531   3.090   4.058   7.808  0.9806  0.5999 -0.6767
   35CHL1   C14 2532   3.092   3.898   7.940 -0.1112 -0.2332  0.2496
   35CHL1   H14 2533   3.073   3.788   7.939  0.5049 -0.4385 -3.4872
   35CHL1   C15 2534   2.983   3.953   8.034  0.8100 -0.6893  0.0974
   35CHL1  H15A 2535   2.969   4.062   8.017 -2.0410 -0.6706  1.8555
   35CHL1  H15B 2536   2.885   3.901   8.027  0.7370 -0.6305  0.6530
   35CHL1   C16 2537   3.035   3.917   8.170  0.4997  0.1827  0.0764
   35CHL1  H16A 2538   3.037   4.009   8.232  0.1087 -0.7845  1.5534
   35CHL1  H16B 2539   2.972   3.848   8.230 -0.0729  2.2692  2.0475
   35CHL1   C17 2540   3.179   3.859   8.146 -0.2482 -0.2529 -0.4589
   35CHL1   H17 2541   3.170   3.748   8.145 -1.2641 -0.3518  3.1974
   35CHL1   C13 2542   3.220   3.917   8.006  0.4867  0.1615 -0.2427
   35CHL1   C18 2543   3.254   4.073   8.011  0.4978  0.0148 -0.0035
   35CHL1  H18A 2544   3.312   4.098   7.919 -1.3524 -0.7865 -1.4491
   35CHL1  H18B 2545   3.168   4.143   8.020  2.5575  2.4148  2.7947
   35CHL1  H18C 2546   3.314   4.094   8.102 -1.6271 -0.0445  1.4994
   35CHL1   C12 2547   3.331   3.837   7.935  0.2084 -0.1512 -0.1260
   35CHL1  H12A 2548   3.430   3.853   7.984  0.9633  1.6211 -2.0757
   35CHL1  H12B 2549   3.304   3.729   7.933 -1.7450  0.2476  1.5222
   35CHL1   C11 2550   3.337   3.873   7.784 -0.3038  0.2155 -0.8008
   35CHL1  H11A 2551   3.393   3.969   7.777 -0.5654  0.4406 -0.0126
   35CHL1  H11B 2552   3.406   3.806   7.728  2.5996  1.9768  0.3949
   35CHL1    C9 2553   3.195   3.878   7.724 -1.1997 -0.3278 -0.3408
   35CHL1    H9 2554   3.164   3.772   7.717 -1.1786 -0.3182 -0.5744
   35CHL1   C10 2555   3.200   3.921   7.571 -0.1587  0.9366 -0.1560
   35CHL1   C19 2556   3.262   4.062   7.557  0.5523 -0.4161  0.1462
   35CHL1  H19A 2557   3.368   4.046   7.585 -0.1298 -1.9168  2.0878
   35CHL1  H19B 2558   3.268   4.093   7.450 -2.7693  1.1621  0.2782
   35CHL1  H19C 2559   3.209   4.135   7.622  0.5788 -0.8845  0.6979
   35CHL1    C1 2560   3.283   3.830   7.479 -0.4333 -0.1650  0.6034
   35CHL1   H1A 2561   3.387   3.843   7.514  0.0298 -1.8823  0.0136
   35CHL1   H1B 2562   3.266   3.721   7.494  0.4515 -0.2509  1.0283
   35CHL1    C2 2563   3.279   3.866   7.330 -0.3880  0.3827  0.3746
   35CHL1   H2A 2564   3.332   3.790   7.269  0.4955  2.2965 -1.3576
   35CHL1   H2B 2565   3.335   3.959   7.308  2.3727 -1.1487  0.4932
   35CHL1   C20 2566   3.265   3.875   8.277  0.3850 -0.2654  1.0287
   35CHL1   H20 2567   3.292   3.983   8.276 -1.3826  0.2202  1.3291
   35CHL1   C21 2568   3.390   3.789   8.261  0.1892 -0.5284 -0.1492
   35CHL1  H21A 2569   3.456   3.808   8.348 -0.0258  1.1342 -0.3221
   35CHL1  H21B 2570   3.453   3.815   8.174 -1.2789  2.3240 -0.4672
   35CHL1  H21C 2571   3.359   3.682   8.261  1.6686 -0.9888 -0.7923
   35CHL1   C22 2572   3.193   3.847   8.403 -0.1041 -0.1658 -0.6738
   35CHL1  H22A 2573   3.097   3.898   8.423 -0.2052 -1.5921  3.4807
   35CHL1  H22B 2574   3.175   3.738   8.392  2.8699 -1.0837  1.8182
   35CHL1   C23 2575   3.263   3.852   8.544 -0.3301 -0.7447  0.7205
   35CHL1  H23A 2576   3.177   3.833   8.612 -0.4965  2.1981  1.5096
   35CHL1  H23B 2577   3.339   3.778   8.575  3.2735  2.1136 -0.6394
   35CHL1   C24 2578   3.308   3.995   8.590  0.2810 -0.1440  0.5726
   35CHL1  H24A 2579   3.401   4.023   8.536 -0.5798 -3.2230 -2.9636
   35CHL1  H24B 2580   3.232   4.072   8.567  0.2375  0.4247  2.4778
   35CHL1   C25 2581   3.333   4.005   8.743  0.2828  0.8442  0.7337
   35CHL1   H25 2582   3.266   3.935   8.798 -2.4385  1.3210 -1.6920
   35CHL1   C26 2583   3.472   3.968   8.789 -0.2694  0.8049 -0.5582
   35CHL1  H26A 2584   3.499   3.975   8.897  1.5986 -0.8875 -0.8562
   35CHL1  H26B 2585   3.504   3.868   8.753 -0.2659  1.0710 -1.2918
   35CHL1  H26C 2586   3.542   4.040   8.743  0.5115  0.3771 -0.0686
   35CHL1   C27 2587   3.294   4.155   8.777 -0.2128 -0.4859 -0.2295
   35CHL1  H27A 2588   3.277   4.160   8.887  1.6280  0.6807  0.0420
   35CHL1  H27B 2589   3.193   4.166   8.731 -0.7478 -0.8509  0.8120
   35CHL1  H27C 2590   3.375   4.226   8.749 -0.7607  1.0984  1.9391
   36CHL1    C3 2591   3.673   3.203   7.111  0.0161  0.2730  0.4474
   36CHL1    H3 2592   3.778   3.240   7.107 -0.4129  1.7254  1.7003
   36CHL1    O3 2593   3.659   3.175   6.969  0.1250 -0.2487  0.5649
   36CHL1   H3' 2594   3.570   3.203   6.947  0.1438  1.4700  2.3510
   36CHL1    C4 2595   3.646   3.075   7.186  0.1224 -0.1853 -0.2399
   36CHL1   H4A 2596   3.548   3.030   7.160 -0.4324  0.5007  0.6262
   36CHL1   H4B 2597   3.719   2.996   7.156 -1.3989 -2.6454  2.0699
   36CHL1    C5 2598   3.648   3.105   7.339 -0.4332  0.4973 -1.2260
   36CHL1    C6 2599   3.738   3.035   7.412 -0.3132 -0.4307  0.4968
   36CHL1    H6 2600   3.799   2.955   7.367  1.4519  0.4945  1.1459
   36CHL1    C7 2601   3.741   3.056   7.559  0.6698 -0.0127 -0.0433
   36CHL1   H7A 2602   3.729   2.955   7.604  1.5738 -0.9968 -1.9352
   36CHL1   H7B 2603   3.840   3.095   7.592 -0.3084  0.0396  3.2548
   36CHL1    C8 2604   3.625   3.144   7.619  0.7058  0.1521  0.6758
   36CHL1    H8 2605   3.536   3.077   7.621 -0.7033  1.9173 -0.3405
   36CHL1   C14 2606   3.658   3.193   7.765 -1.0734  0.7743  0.2046
   36CHL1   H14 2607   3.738   3.268   7.750 -1.2082  0.9426  0.3323
   36CHL1   C15 2608   3.712   3.099   7.870 -0.2051  0.2966  0.6510
   36CHL1  H15A 2609   3.659   3.002   7.874  0.4132 -0.0663  0.2973
   36CHL1  H15B 2610   3.819   3.072   7.852 -0.1093  0.1181  1.4247
   36CHL1   C16 2611   3.689   3.173   7.998 -0.6722  0.4895 -1.6474
   36CHL1  H16A 2612   3.631   3.104   8.064 -0.1930  2.5011  1.0224
   36CHL1  H16B 2613   3.784   3.200   8.047 -1.0895  0.5197 -0.8404
   36CHL1   C17 2614   3.604   3.304   7.973 -0.6653  0.1794  0.0218
   36CHL1   H17 2615   3.668   3.394   7.960 -0.7611  0.0460 -1.6249
   36CHL1   C13 2616   3.549   3.276   7.834  0.7784  0.0049  0.3303
   36CHL1   C18 2617   3.426   3.184   7.840  0.2452 -0.7381  0.3579
   36CHL1  H18A 2618   3.403   3.125   7.749  0.4976  1.0797 -0.9405
   36CHL1  H18B 2619   3.430   3.111   7.924  1.0749  0.2505  1.2195
   36CHL1  H18C 2620   3.341   3.251   7.864 -0.7540 -2.2016  1.0560
   36CHL1   C12 2621   3.527   3.398   7.746  0.4457 -0.1863  0.1427
   36CHL1  H12A 2622   3.447   3.460   7.792  1.0696  1.0377 -0.3837
   36CHL1  H12B 2623   3.613   3.468   7.749  0.9921 -0.7029 -1.7589
   36CHL1   C11 2624   3.486   3.364   7.600  0.1000  0.1023  1.4101
   36CHL1  H11A 2625   3.390   3.308   7.606  0.6982 -0.9335  1.5658
   36CHL1  H11B 2626   3.481   3.457   7.540 -0.8207 -0.0006  1.3140
   36CHL1    C9 2627   3.586   3.266   7.533  0.2396 -0.7787  0.4305
   36CHL1    H9 2628   3.687   3.312   7.532  0.0821 -0.4254  0.7024
   36CHL1   C10 2629   3.565   3.228   7.388  0.4790 -0.2755  0.3555
   36CHL1   C19 2630   3.419   3.165   7.378 -0.3117 -0.1495  0.2014
   36CHL1  H19A 2631   3.419   3.080   7.450  0.9241 -0.6988 -0.4212
   36CHL1  H19B 2632   3.339   3.237   7.407 -0.5331 -0.7882  1.2496
   36CHL1  H19C 2633   3.394   3.128   7.276  1.2267 -2.3443  0.5301
   36CHL1    C1 2634   3.583   3.348   7.287  0.1970 -0.2136 -0.3971
   36CHL1   H1A 2635   3.502   3.423   7.295  0.0641 -0.4307  0.3661
   36CHL1   H1B 2636   3.671   3.412   7.307 -0.4464  0.1863  1.3165
   36CHL1    C2 2637   3.571   3.312   7.142 -0.5184 -0.0175 -0.2633
   36CHL1   H2A 2638   3.591   3.401   7.080 -0.5950  1.1088  1.2652
   36CHL1   H2B 2639   3.471   3.275   7.112 -0.1593  0.5216 -2.2002
   36CHL1   C20 2640   3.508   3.327   8.089 -0.1403  0.2961  0.1120
   36CHL1   H20 2641   3.424   3.255   8.079 -0.0721  0.1132  0.8325
   36CHL1   C21 2642   3.454   3.470   8.074  0.0105  0.1575  0.2439
   36CHL1  H21A 2643   3.393   3.472   7.981  0.4316 -2.6224 -0.1832
   36CHL1  H21B 2644   3.534   3.547   8.076 -1.0582  1.3081  0.9704
   36CHL1  H21C 2645   3.386   3.481   8.162  1.3717 -1.6296  1.5882
   36CHL1   C22 2646   3.572   3.297   8.231  0.3746  0.6694 -0.1432
   36CHL1  H22A 2647   3.567   3.188   8.254 -0.0282  0.8950  0.8639
   36CHL1  H22B 2648   3.680   3.320   8.214  0.3776 -0.9530 -3.0575
   36CHL1   C23 2649   3.533   3.385   8.348  0.6284 -0.1859 -0.7175
   36CHL1  H23A 2650   3.552   3.493   8.331 -1.8275  0.8361  2.1503
   36CHL1  H23B 2651   3.424   3.378   8.366  0.6569 -1.9775 -1.0470
   36CHL1   C24 2652   3.596   3.347   8.485 -0.0124  0.7214 -0.1965
   36CHL1  H24A 2653   3.539   3.256   8.516 -1.3922  0.9148 -2.0281
   36CHL1  H24B 2654   3.697   3.311   8.460 -0.4411 -1.1009  0.5205
   36CHL1   C25 2655   3.603   3.445   8.602  0.1001  0.1330  0.2175
   36CHL1   H25 2656   3.664   3.531   8.567  0.6656  0.1617  1.2261
   36CHL1   C26 2657   3.466   3.481   8.657 -0.6813  0.4195 -0.0449
   36CHL1  H26A 2658   3.408   3.394   8.694  1.2625 -1.0146 -0.2343
   36CHL1  H26B 2659   3.485   3.549   8.742 -2.0317 -0.7001  1.2162
   36CHL1  H26C 2660   3.404   3.540   8.586 -0.6599  1.9863  1.1953
   36CHL1   C27 2661   3.687   3.383   8.712  0.2515 -0.2060 -0.2891
   36CHL1  H27A 2662   3.792   3.369   8.679  0.3112  0.9175 -0.6324
   36CHL1  H27B 2663   3.694   3.453   8.798  0.9730 -0.5101 -0.0933
   36CHL1  H27C 2664   3.641   3.285   8.736 -1.1166  0.8076  1.5240
   37CHL1    C3 2665   0.649   5.340   6.954  0.5225  0.9286  0.1582
   37CHL1    H3 2666   0.757   5.349   6.976  0.1825  0.4709  2.3064
   37CHL1    O3 2667   0.621   5.347   6.823  0.3558 -0.6325  0.5050
   37CHL1   H3' 2668   0.528   5.335   6.805  0.9569 -2.3267 -1.9453
   37CHL1    C4 2669   0.596   5.200   7.014 -0.9358  0.1439  0.4771
   37CHL1   H4A 2670   0.495   5.176   6.976  0.0678 -1.9671 -1.0621
   37CHL1   H4B 2671   0.665   5.119   6.983 -0.2409  0.0939  2.0371
   37CHL1    C5 2672   0.603   5.203   7.168 -0.5042  0.7582  0.5374
   37CHL1    C6 2673   0.665   5.110   7.235 -0.4756  0.4155 -0.6950
   37CHL1    H6 2674   0.728   5.032   7.190  1.4075  1.0195  0.7297
   37CHL1    C7 2675   0.657   5.106   7.386 -0.4983 -0.0918 -0.3504
   37CHL1   H7A 2676   0.634   5.003   7.423  2.7341 -0.6594  0.3540
   37CHL1   H7B 2677   0.756   5.137   7.425 -1.1385  0.4752  0.8778
   37CHL1    C8 2678   0.552   5.194   7.455  0.3542  0.3102  0.4167
   37CHL1    H8 2679   0.451   5.149   7.447  0.4563 -0.0050  0.8966
   37CHL1   C14 2680   0.578   5.208   7.602  0.7090 -0.1123  0.0936
   37CHL1   H14 2681   0.670   5.270   7.611  0.1566  1.1075 -1.8316
   37CHL1   C15 2682   0.610   5.084   7.686  0.4620  0.5569 -0.5010
   37CHL1  H15A 2683   0.549   5.004   7.640 -2.1060 -0.1109  3.5986
   37CHL1  H15B 2684   0.719   5.063   7.679  0.7473  1.9918 -0.8291
   37CHL1   C16 2685   0.558   5.118   7.825  0.0520  0.1794  0.2316
   37CHL1  H16A 2686   0.462   5.064   7.842 -0.0451  0.8929  2.1296
   37CHL1  H16B 2687   0.623   5.091   7.910 -1.4282  1.4227  1.8285
   37CHL1   C17 2688   0.524   5.272   7.831 -0.2689  0.0298 -0.3256
   37CHL1   H17 2689   0.621   5.325   7.840  0.5637 -1.3365 -0.9682
   37CHL1   C13 2690   0.483   5.298   7.681  0.8857  0.0428  0.0707
   37CHL1   C18 2691   0.335   5.252   7.665 -0.1093  0.2243  0.6204
   37CHL1  H18A 2692   0.309   5.232   7.559  1.0880 -2.7156  0.7881
   37CHL1  H18B 2693   0.312   5.161   7.725  1.2786  0.4869  1.5929
   37CHL1  H18C 2694   0.270   5.328   7.714 -0.6737  0.3831 -0.3623
   37CHL1   C12 2695   0.507   5.435   7.613  0.0908 -0.9558 -0.2311
   37CHL1  H12A 2696   0.446   5.513   7.663 -0.2782  1.1143 -3.6106
   37CHL1  H12B 2697   0.616   5.456   7.614 -0.0462 -0.2448 -0.4012
   37CHL1   C11 2698   0.474   5.436   7.461  0.2194  0.3048  0.1474
   37CHL1  H11A 2699   0.365   5.439   7.439 -0.2715 -1.9120  1.8973
   37CHL1  H11B 2700   0.512   5.536   7.432  0.2063  0.6241  1.1962
   37CHL1    C9 2701   0.556   5.329   7.388  0.3969 -0.9444 -0.5539
   37CHL1    H9 2702   0.662   5.364   7.390  1.3241 -3.5770  0.2488
   37CHL1   C10 2703   0.531   5.312   7.237  0.0998  0.0104 -0.1488
   37CHL1   C19 2704   0.384   5.307   7.212  0.0789  0.0452  0.1640
   37CHL1  H19A 2705   0.356   5.307   7.104 -0.5671 -1.2477  0.3261
   37CHL1  H19B 2706   0.345   5.212   7.252  4.9741 -1.5226  1.9076
   37CHL1  H19C 2707   0.327   5.395   7.251  1.7078  0.9330  0.6256
   37CHL1    C1 2708   0.579   5.440   7.169 -0.1031 -0.2783 -0.0969
   37CHL1   H1A 2709   0.502   5.513   7.201 -2.3601 -0.3975 -4.5165
   37CHL1   H1B 2710   0.681   5.475   7.199 -0.0525 -0.3627 -0.1685
   37CHL1    C2 2711   0.571   5.451   7.023  0.2627 -0.4632  0.8583
   37CHL1   H2A 2712   0.616   5.549   6.995  1.2457 -0.5981  1.8893
   37CHL1   H2B 2713   0.471   5.448   6.975  1.5491 -1.4847 -1.9703
   37CHL1   C20 2714   0.429   5.314   7.944  0.1092  0.1985 -0.0470
   37CHL1   H20 2715   0.327   5.273   7.930 -0.3936  1.4998 -0.3396
   37CHL1   C21 2716   0.421   5.470   7.969  0.6633 -0.3462 -0.2353
   37CHL1  H21A 2717   0.366   5.527   7.890  1.3332 -0.6949 -0.9687
   37CHL1  H21B 2718   0.528   5.500   7.958  1.1292 -2.1902 -1.1684
   37CHL1  H21C 2719   0.377   5.496   8.067  0.1036 -3.0067  0.2907
   37CHL1   C22 2720   0.477   5.244   8.076  0.6871  0.1601 -0.4993
   37CHL1  H22A 2721   0.405   5.280   8.152  2.1903  0.4839  0.8306
   37CHL1  H22B 2722   0.459   5.135   8.062  0.4823  0.1773 -0.3759
   37CHL1   C23 2723   0.623   5.273   8.122  0.5988  0.3872  0.3538
   37CHL1  H23A 2724   0.685   5.200   8.067 -3.3885 -1.2142 -2.5562
   37CHL1  H23B 2725   0.647   5.375   8.086 -2.1943  0.2207 -2.4125
   37CHL1   C24 2726   0.649   5.263   8.271 -0.2550 -0.0198  0.1810
   37CHL1  H24A 2727   0.758   5.280   8.287 -0.3181 -0.5234  1.2035
   37CHL1  H24B 2728   0.586   5.342   8.316 -0.2608  0.7089 -1.0621
   37CHL1   C25 2729   0.620   5.125   8.332 -0.1117 -0.3627  1.1251
   37CHL1   H25 2730   0.510   5.118   8.345 -0.3882  2.2933  0.6850
   37CHL1   C26 2731   0.687   5.009   8.252  0.4956  0.0299  0.3891
   37CHL1  H26A 2732   0.651   4.911   8.291  0.6951 -0.2251 -0.0688
   37CHL1  H26B 2733   0.648   5.008   8.148 -1.9087 -1.7095  1.2083
   37CHL1  H26C 2734   0.797   5.001   8.263  0.7592  0.5717 -1.4980
   37CHL1   C27 2735   0.662   5.119   8.481  0.5901 -0.4085 -0.1076
   37CHL1  H27A 2736   0.611   5.203   8.534 -0.7370  0.2482 -2.2657
   37CHL1  H27B 2737   0.638   5.021   8.526 -1.2269  0.6304  1.3603
   37CHL1  H27C 2738   0.771   5.138   8.478  0.3585  1.1711  0.3450
   38CHL1    C3 2739   3.633   6.482   6.663  0.6188  0.4599 -0.3667
   38CHL1    H3 2740   3.720   6.550   6.681  0.7614  0.3470 -0.6260
   38CHL1    O3 2741   3.589   6.493   6.522 -0.7615 -0.1663  0.5339
   38CHL1   H3' 2742   3.512   6.436   6.520 -0.6786 -0.2604 -1.2024
   38CHL1    C4 2743   3.691   6.343   6.702  0.0012 -1.0499  1.1152
   38CHL1   H4A 2744   3.625   6.259   6.671  0.6278 -0.1356 -3.4436
   38CHL1   H4B 2745   3.776   6.322   6.633 -1.2109  0.7724 -1.0894
   38CHL1    C5 2746   3.722   6.325   6.851  0.6641  0.0164 -0.0904
   38CHL1    C6 2747   3.844   6.284   6.897 -0.0776  0.3289  0.0985
   38CHL1    H6 2748   3.923   6.256   6.826 -0.1243 -1.0555  0.5752
   38CHL1    C7 2749   3.884   6.258   7.044 -0.4786 -0.2107  0.2788
   38CHL1   H7A 2750   3.941   6.163   7.052  1.6777  1.0593  0.8724
   38CHL1   H7B 2751   3.952   6.338   7.080 -0.3428 -0.5448  0.7663
   38CHL1    C8 2752   3.758   6.250   7.125  0.3346 -0.7562  0.0259
   38CHL1    H8 2753   3.706   6.155   7.103  1.8534 -1.3135 -1.2972
   38CHL1   C14 2754   3.794   6.258   7.271 -0.0393 -0.4043 -0.5705
   38CHL1   H14 2755   3.842   6.358   7.282 -1.9899  0.7207 -1.7691
   38CHL1   C15 2756   3.897   6.160   7.328 -0.4552  0.4494 -0.8088
   38CHL1  H15A 2757   3.865   6.062   7.288  0.7664 -0.7599  1.0564
   38CHL1  H15B 2758   3.999   6.199   7.304 -0.7560  1.2762 -0.8021
   38CHL1   C16 2759   3.877   6.159   7.483 -0.2460  0.2359  0.6036
   38CHL1  H16A 2760   3.843   6.057   7.512  0.6653 -0.2707 -0.0270
   38CHL1  H16B 2761   3.967   6.188   7.542 -0.2529  0.2667  0.5994
   38CHL1   C17 2762   3.759   6.255   7.504  0.4621 -0.2890  0.5511
   38CHL1   H17 2763   3.814   6.351   7.514  1.2647 -0.6365 -0.3945
   38CHL1   C13 2764   3.685   6.262   7.369  0.5222 -0.3312 -0.2128
   38CHL1   C18 2765   3.596   6.135   7.359  0.4600 -0.2658  0.3099
   38CHL1  H18A 2766   3.626   6.036   7.400 -1.0052 -0.0151  2.1074
   38CHL1  H18B 2767   3.498   6.160   7.404  0.7346 -0.8227  1.2333
   38CHL1  H18C 2768   3.562   6.116   7.255 -1.7801  0.9611  0.7713
   38CHL1   C12 2769   3.602   6.394   7.345 -0.8757 -0.3314 -0.2265
   38CHL1  H12A 2770   3.515   6.394   7.414 -1.0391  1.1097 -0.4177
   38CHL1  H12B 2771   3.671   6.481   7.350  0.3393 -1.2271 -0.6650
   38CHL1   C11 2772   3.544   6.397   7.204 -0.5069  0.3312  0.5996
   38CHL1  H11A 2773   3.465   6.319   7.201  0.2546 -0.6129  2.7397
   38CHL1  H11B 2774   3.503   6.500   7.191 -0.5979  0.4233  1.5330
   38CHL1    C9 2775   3.658   6.362   7.099  0.0121 -0.2135 -0.6285
   38CHL1    H9 2776   3.716   6.456   7.111  0.1374 -0.5683  1.9128
   38CHL1   C10 2777   3.605   6.366   6.946 -0.1498  0.4696 -0.2963
   38CHL1   C19 2778   3.488   6.262   6.917 -0.2942 -0.1914 -0.0543
   38CHL1  H19A 2779   3.428   6.290   6.828  0.4040 -1.1403 -0.8496
   38CHL1  H19B 2780   3.523   6.158   6.899 -1.2250 -0.5919  0.3924
   38CHL1  H19C 2781   3.420   6.254   7.004 -1.0495 -0.4263 -0.6569
   38CHL1    C1 2782   3.553   6.506   6.914 -0.8017  0.3067 -0.1136
   38CHL1   H1A 2783   3.460   6.528   6.971 -0.5655  0.7957  0.0829
   38CHL1   H1B 2784   3.638   6.575   6.931  0.1191 -1.0150  0.8549
   38CHL1    C2 2785   3.512   6.523   6.757 -0.7026  0.4159 -0.3466
   38CHL1   H2A 2786   3.484   6.631   6.750  1.4709  1.2620  2.2319
   38CHL1   H2B 2787   3.423   6.465   6.724 -1.4391  1.4771 -0.2713
   38CHL1   C20 2788   3.674   6.246   7.636  0.4313  0.4240  0.9779
   38CHL1   H20 2789   3.578   6.195   7.612 -0.4611  2.8129 -0.8602
   38CHL1   C21 2790   3.638   6.384   7.696 -0.1413  0.3579  0.0233
   38CHL1  H21A 2791   3.595   6.459   7.626  0.6634  1.4092  0.6203
   38CHL1  H21B 2792   3.727   6.426   7.748  0.1444 -0.9972  0.6502
   38CHL1  H21C 2793   3.556   6.369   7.770  0.3272 -2.3271  0.0794
   38CHL1   C22 2794   3.734   6.143   7.736  0.2001  0.1140 -1.2356
   38CHL1  H22A 2795   3.736   6.037   7.701  1.7702 -0.2074 -0.2493
   38CHL1  H22B 2796   3.841   6.166   7.757  0.0844 -0.8821  0.6979
   38CHL1   C23 2797   3.669   6.136   7.881  0.1616 -0.0910  0.1079
   38CHL1  H23A 2798   3.712   6.226   7.929  0.6454  0.4403 -1.2576
   38CHL1  H23B 2799   3.558   6.145   7.882  0.1640 -0.0556  0.0812
   38CHL1   C24 2800   3.695   6.006   7.955 -0.3569  1.2042  0.0943
   38CHL1  H24A 2801   3.630   5.923   7.922 -2.1045  2.0028  1.3651
   38CHL1  H24B 2802   3.797   5.974   7.926 -0.3599  2.9349 -2.0715
   38CHL1   C25 2803   3.711   6.020   8.110 -0.2926 -0.2931 -0.6222
   38CHL1   H25 2804   3.743   5.923   8.155  1.7039  1.1284  1.2898
   38CHL1   C26 2805   3.819   6.126   8.150  0.9919  0.6511  0.2654
   38CHL1  H26A 2806   3.871   6.112   8.247 -1.6780  0.3633  1.7472
   38CHL1  H26B 2807   3.902   6.129   8.077  2.6866  2.4894  2.1107
   38CHL1  H26C 2808   3.772   6.226   8.161 -1.8752 -0.7372  1.6659
   38CHL1   C27 2809   3.574   6.050   8.169 -0.1673 -0.0437 -0.0174
   38CHL1  H27A 2810   3.569   6.057   8.280 -0.4064 -1.7252  0.0997
   38CHL1  H27B 2811   3.546   6.152   8.134  0.6899 -0.4564 -2.0390
   38CHL1  H27C 2812   3.492   5.982   8.136 -1.7456  1.1500  1.2277
   39CHL1    C3 2813   3.055   5.446   6.879  0.3563 -0.3312 -0.5594
   39CHL1    H3 2814   2.946   5.425   6.888  0.7751 -2.0859  1.2013
   39CHL1    O3 2815   3.082   5.493   6.748  0.3600  0.4690 -0.4631
   39CHL1   H3' 2816   3.042   5.580   6.758 -1.3147 -0.2503 -0.4968
   39CHL1    C4 2817   3.082   5.554   6.989 -0.0555  0.4635 -0.2652
   39CHL1   H4A 2818   3.186   5.587   6.968 -0.1060  0.0325 -1.2824
   39CHL1   H4B 2819   3.026   5.647   6.963  1.6006  1.6797  0.3443
   39CHL1    C5 2820   3.077   5.518   7.133  0.4255  0.2054 -0.0333
   39CHL1    C6 2821   3.005   5.579   7.227  0.0645  0.8385 -0.0215
   39CHL1    H6 2822   2.955   5.676   7.212 -0.6285  0.7205  1.3508
   39CHL1    C7 2823   2.994   5.536   7.375 -0.0256  0.3934 -0.0705
   39CHL1   H7A 2824   3.012   5.617   7.449  0.4852 -0.5283  0.8421
   39CHL1   H7B 2825   2.901   5.488   7.410  0.9246 -0.7720  0.9578
   39CHL1    C8 2826   3.102   5.431   7.410  0.5245 -0.0166 -0.0637
   39CHL1    H8 2827   3.200   5.482   7.418  0.9574 -0.7944 -0.2705
   39CHL1   C14 2828   3.080   5.362   7.548  0.5468 -0.2429 -0.4690
   39CHL1   H14 2829   2.988   5.300   7.542  1.6883 -2.5000  2.7566
   39CHL1   C15 2830   3.044   5.452   7.670  0.5796 -0.1295 -0.2055
   39CHL1  H15A 2831   3.105   5.544   7.662  0.9671 -0.5332 -2.8619
   39CHL1  H15B 2832   2.936   5.478   7.667 -0.0300 -2.3631  0.1565
   39CHL1   C16 2833   3.079   5.359   7.791 -0.1301 -1.2767 -0.3420
   39CHL1  H16A 2834   3.158   5.410   7.850  0.1661 -1.1717 -0.8215
   39CHL1  H16B 2835   2.990   5.335   7.852 -0.2210  0.7334  0.4096
   39CHL1   C17 2836   3.138   5.227   7.732  0.0974  0.2769  0.6004
   39CHL1   H17 2837   3.049   5.166   7.706  1.4533 -0.2987 -3.2480
   39CHL1   C13 2838   3.198   5.263   7.587  0.4179 -0.3412  0.3208
   39CHL1   C18 2839   3.342   5.329   7.604  0.4343  0.0446  0.3052
   39CHL1  H18A 2840   3.417   5.251   7.624  1.4351  1.2713  1.5030
   39CHL1  H18B 2841   3.372   5.384   7.512 -0.0259  0.8722  0.6380
   39CHL1  H18C 2842   3.330   5.399   7.690 -1.7825 -0.3533  0.3873
   39CHL1   C12 2843   3.204   5.153   7.480  0.4377  0.5182  0.4760
   39CHL1  H12A 2844   3.260   5.060   7.502  0.6972  0.4660 -0.3815
   39CHL1  H12B 2845   3.101   5.115   7.500  0.0783  0.0211 -1.9518
   39CHL1   C11 2846   3.227   5.213   7.336  0.5202 -0.0128 -0.4422
   39CHL1  H11A 2847   3.333   5.245   7.324 -0.0538  1.7790 -1.0401
   39CHL1  H11B 2848   3.211   5.126   7.268 -1.9875  0.0643 -0.0579
   39CHL1    C9 2849   3.126   5.327   7.296  0.5493  0.3525  0.1330
   39CHL1    H9 2850   3.027   5.278   7.287  0.1110  1.3806 -0.7528
   39CHL1   C10 2851   3.149   5.378   7.157 -0.1626 -0.3844  0.3232
   39CHL1   C19 2852   3.300   5.407   7.131 -0.9201  0.5523 -0.3653
   39CHL1  H19A 2853   3.352   5.455   7.217  0.2814 -0.4174 -0.5266
   39CHL1  H19B 2854   3.344   5.307   7.111  0.0011  0.9850 -0.5511
   39CHL1  H19C 2855   3.324   5.454   7.034 -1.4730 -2.2277 -1.9448
   39CHL1    C1 2856   3.111   5.270   7.051 -0.3118 -0.5008  0.3096
   39CHL1   H1A 2857   3.176   5.182   7.066 -2.7846 -2.3266  0.9656
   39CHL1   H1B 2858   3.009   5.235   7.077 -0.2917 -0.3871  0.5480
   39CHL1    C2 2859   3.113   5.309   6.901 -1.1251  0.2265  0.2336
   39CHL1   H2A 2860   3.067   5.231   6.837  0.3574 -0.9106  0.4896
   39CHL1   H2B 2861   3.221   5.318   6.877 -0.2994  0.4035  3.4935
   39CHL1   C20 2862   3.220   5.143   7.831  0.3629  0.2754 -0.2885
   39CHL1   H20 2863   3.309   5.202   7.863  1.5916 -2.0807  0.8871
   39CHL1   C21 2864   3.290   5.018   7.774  0.2778  0.1748 -0.0371
   39CHL1  H21A 2865   3.215   4.969   7.708 -0.6074  2.1628 -0.5663
   39CHL1  H21B 2866   3.317   4.942   7.851  1.0628 -0.9485 -1.3720
   39CHL1  H21C 2867   3.375   5.046   7.710  1.6623  1.0493  2.0692
   39CHL1   C22 2868   3.146   5.099   7.956 -0.3256 -0.0482 -0.2150
   39CHL1  H22A 2869   3.084   5.185   7.991  0.3823 -0.6201  2.6704
   39CHL1  H22B 2870   3.093   5.003   7.941 -0.8828  0.0740  0.8351
   39CHL1   C23 2871   3.238   5.081   8.083 -1.1461  0.4582  0.6884
   39CHL1  H23A 2872   3.301   4.990   8.081 -0.8080  0.6126  2.2775
   39CHL1  H23B 2873   3.295   5.174   8.101 -0.8748 -0.0220  2.5762
   39CHL1   C24 2874   3.157   5.070   8.215 -0.3224  0.6779 -0.6958
   39CHL1  H24A 2875   3.121   5.175   8.225  0.2461  0.7852  0.2876
   39CHL1  H24B 2876   3.077   4.996   8.193  0.8525 -1.8182  2.6499
   39CHL1   C25 2877   3.237   5.013   8.337 -0.1519 -0.7515  0.5298
   39CHL1   H25 2878   3.274   4.917   8.295 -0.1015  0.0461 -1.3326
   39CHL1   C26 2879   3.351   5.110   8.374 -0.4798  0.7025 -1.0477
   39CHL1  H26A 2880   3.408   5.077   8.463  1.6019  1.4306 -2.0386
   39CHL1  H26B 2881   3.425   5.110   8.291  1.3631  2.5146  0.4917
   39CHL1  H26C 2882   3.318   5.213   8.398 -0.7525  0.0289  1.7248
   39CHL1   C27 2883   3.141   4.995   8.457  0.7018 -0.1149  0.3609
   39CHL1  H27A 2884   3.057   4.942   8.408 -0.1505  1.6287 -0.1273
   39CHL1  H27B 2885   3.185   4.949   8.548 -1.2970 -0.8053  1.0101
   39CHL1  H27C 2886   3.095   5.090   8.492  0.0812  0.0288 -0.7761
   40CHL1    C3 2887   6.031   4.424   6.964 -0.0580  0.3751 -0.0619
   40CHL1    H3 2888   5.933   4.473   6.984 -0.9526 -1.4609  0.2670
   40CHL1    O3 2889   6.062   4.458   6.829  0.4965 -0.0506  0.2481
   40CHL1   H3' 2890   6.157   4.474   6.830  1.1181 -3.0471 -0.6773
   40CHL1    C4 2891   6.138   4.481   7.053 -0.1440  0.2504 -0.1452
   40CHL1   H4A 2892   6.228   4.423   7.023  0.5152 -0.2305  2.5336
   40CHL1   H4B 2893   6.168   4.587   7.034  2.7721 -0.1562  1.6058
   40CHL1    C5 2894   6.101   4.451   7.198 -0.2327 -0.0087 -0.1891
   40CHL1    C6 2895   6.068   4.543   7.289  0.5612 -0.3426  0.3516
   40CHL1    H6 2896   6.078   4.650   7.268  0.3892 -0.1353  1.2912
   40CHL1    C7 2897   6.017   4.511   7.425 -0.4188 -0.5155 -0.7928
   40CHL1   H7A 2898   6.063   4.589   7.489 -3.2235 -0.1216  0.9190
   40CHL1   H7B 2899   5.907   4.521   7.412 -0.4842 -0.1766 -0.0074
   40CHL1    C8 2900   6.055   4.368   7.479  0.0894  0.0912  0.3196
   40CHL1    H8 2901   6.166   4.368   7.486  0.0773  0.3705  0.5072
   40CHL1   C14 2902   5.997   4.337   7.611  0.7539 -0.2156  0.0714
   40CHL1   H14 2903   5.894   4.377   7.607  1.2679  1.6472  2.6141
   40CHL1   C15 2904   6.056   4.429   7.720  0.0208  0.0431  0.9794
   40CHL1  H15A 2905   6.167   4.419   7.725 -0.0670 -2.6854 -0.6360
   40CHL1  H15B 2906   6.023   4.534   7.712  0.2431 -0.0042 -0.9559
   40CHL1   C16 2907   5.997   4.360   7.848  0.4821 -0.2847 -0.2765
   40CHL1  H16A 2908   6.075   4.333   7.922  2.1190 -0.2125 -1.8977
   40CHL1  H16B 2909   5.924   4.435   7.886  2.0312  1.1993 -0.1080
   40CHL1   C17 2910   5.933   4.224   7.803  0.7402  0.2096 -0.3121
   40CHL1   H17 2911   5.829   4.261   7.789  1.0381  1.0083 -0.4175
   40CHL1   C13 2912   5.993   4.200   7.662  0.4111 -0.2685  0.2075
   40CHL1   C18 2913   6.138   4.143   7.687 -0.3643 -0.0679  0.3219
   40CHL1  H18A 2914   6.133   4.036   7.718  0.3797 -0.6207 -1.3106
   40CHL1  H18B 2915   6.199   4.133   7.595  0.6075 -2.2416  1.1405
   40CHL1  H18C 2916   6.192   4.205   7.761  0.4267  0.2102 -0.4744
   40CHL1   C12 2917   5.926   4.109   7.554 -0.5586 -0.2144 -0.2080
   40CHL1  H12A 2918   5.949   4.004   7.582  0.9452 -0.0019 -0.5285
   40CHL1  H12B 2919   5.816   4.121   7.544 -0.5679 -1.3381 -1.7899
   40CHL1   C11 2920   6.001   4.127   7.417  0.4282 -0.2747  0.4142
   40CHL1  H11A 2921   6.105   4.091   7.432  1.3536  1.1323 -2.0489
   40CHL1  H11B 2922   5.956   4.056   7.345  1.9375 -2.6973  1.7207
   40CHL1    C9 2923   6.004   4.273   7.370 -0.3632 -0.3814 -0.3921
   40CHL1    H9 2924   5.893   4.285   7.362 -0.6375 -2.5554 -0.3688
   40CHL1   C10 2925   6.080   4.299   7.231 -0.4595  0.4281  0.1092
   40CHL1   C19 2926   6.224   4.236   7.243  0.0862  0.6016 -0.1213
   40CHL1  H19A 2927   6.282   4.261   7.151 -1.4219 -2.1060 -1.9480
   40CHL1  H19B 2928   6.290   4.284   7.318 -2.0120 -0.1136  2.3089
   40CHL1  H19C 2929   6.230   4.125   7.250 -0.8528  0.5689  0.2757
   40CHL1    C1 2930   6.001   4.227   7.118 -0.4172 -0.5226 -0.7008
   40CHL1   H1A 2931   6.017   4.117   7.112  0.7617 -0.3278 -1.5117
   40CHL1   H1B 2932   5.894   4.244   7.144 -0.0347 -0.5163  0.9088
   40CHL1    C2 2933   6.028   4.276   6.976  1.1401 -0.0263 -0.4485
   40CHL1   H2A 2934   5.968   4.230   6.895  0.7864 -1.6503  0.6742
   40CHL1   H2B 2935   6.130   4.236   6.957  1.3711  0.9479 -1.3132
   40CHL1   C20 2936   5.937   4.118   7.915  0.2546 -0.2252 -0.3206
   40CHL1   H20 2937   6.041   4.100   7.950  0.1185  1.8984  1.3836
   40CHL1   C21 2938   5.873   3.994   7.860 -0.4095 -0.1347  0.2438
   40CHL1  H21A 2939   5.938   3.956   7.778  1.9275  0.1623  1.8325
   40CHL1  H21B 2940   5.768   4.000   7.827  0.0128 -1.9562 -1.6491
   40CHL1  H21C 2941   5.892   3.917   7.939 -0.6976 -1.6305 -1.0950
   40CHL1   C22 2942   5.868   4.164   8.042 -0.4243 -0.1161 -0.1215
   40CHL1  H22A 2943   5.928   4.252   8.075  1.0119 -0.3588 -1.9561
   40CHL1  H22B 2944   5.768   4.197   8.007  0.5996  3.1856 -0.3165
   40CHL1   C23 2945   5.873   4.075   8.162 -0.0100  0.2512 -0.7193
   40CHL1  H23A 2946   5.834   3.972   8.142  0.1313  0.1989 -0.7285
   40CHL1  H23B 2947   5.980   4.059   8.188 -0.1144 -0.4344 -0.6972
   40CHL1   C24 2948   5.777   4.119   8.275 -0.1671 -0.1254  0.6425
   40CHL1  H24A 2949   5.792   4.228   8.291  2.3536 -0.1222 -1.1155
   40CHL1  H24B 2950   5.677   4.084   8.241 -0.3913  0.3702  0.7783
   40CHL1   C25 2951   5.810   4.065   8.415  0.5768  0.0784 -0.4193
   40CHL1   H25 2952   5.907   4.097   8.458  1.5058 -1.4768 -1.2659
   40CHL1   C26 2953   5.701   4.101   8.515  0.3111  0.1839  0.4144
   40CHL1  H26A 2954   5.683   4.211   8.517  4.2272  1.0826 -1.8216
   40CHL1  H26B 2955   5.609   4.055   8.474  0.2831  0.0470  0.6324
   40CHL1  H26C 2956   5.715   4.062   8.618 -0.8447 -2.1863 -0.2658
   40CHL1   C27 2957   5.837   3.912   8.415  0.4182 -0.3518 -0.4839
   40CHL1  H27A 2958   5.928   3.883   8.359 -0.5224 -0.2989 -2.1195
   40CHL1  H27B 2959   5.861   3.878   8.517 -0.1728 -1.0069 -0.5530
   40CHL1  H27C 2960   5.752   3.858   8.367 -0.3690 -1.1584  1.7231
   41CHL1    C3 2961   0.144   4.408   6.995  0.3736  0.4104 -0.3757
   41CHL1    H3 2962   0.232   4.374   7.055 -0.2676  1.1423  1.0215
   41CHL1    O3 2963   0.154   4.398   6.859 -0.4434 -0.2611  0.3775
   41CHL1   H3' 2964   0.197   4.313   6.853 -0.1314 -0.1674  1.2327
   41CHL1    C4 2965   0.050   4.285   7.029 -0.3073  0.3801  0.5726
   41CHL1   H4A 2966  -0.045   4.300   6.974  0.4575  1.1575 -0.5975
   41CHL1   H4B 2967   0.098   4.196   6.984  1.1086  0.3953  1.9673
   41CHL1    C5 2968   0.027   4.279   7.179  0.5595  0.7752  0.4901
   41CHL1    C6 2969   0.063   4.173   7.250  0.1488 -0.2598  1.0177
   41CHL1    H6 2970   0.100   4.085   7.197 -4.0914 -0.7080 -1.7145
   41CHL1    C7 2971   0.034   4.156   7.393  0.1532  0.3491  0.9868
   41CHL1   H7A 2972  -0.003   4.051   7.402 -0.1253  0.3720  0.1661
   41CHL1   H7B 2973   0.123   4.174   7.456  0.8970  0.0292  0.0523
   41CHL1    C8 2974  -0.078   4.251   7.442 -0.2254  0.2149 -0.4689
   41CHL1    H8 2975  -0.174   4.215   7.400 -0.0046 -0.2941 -0.5455
   41CHL1   C14 2976  -0.079   4.250   7.598  0.0760  0.5215 -0.1285
   41CHL1   H14 2977   0.025   4.284   7.621  0.5998 -1.8519  1.3135
   41CHL1   C15 2978  -0.094   4.117   7.677 -0.1019  0.0066  0.6112
   41CHL1  H15A 2979  -0.178   4.057   7.637  0.1378  0.1631 -0.1401
   41CHL1  H15B 2980  -0.001   4.056   7.682 -1.3498 -1.9302  1.7742
   41CHL1   C16 2981  -0.139   4.172   7.816 -0.2892 -0.3512  0.1979
   41CHL1  H16A 2982  -0.240   4.136   7.846 -0.4855  0.0956  0.0799
   41CHL1  H16B 2983  -0.059   4.157   7.892 -0.1754  0.5793  0.2798
   41CHL1   C17 2984  -0.153   4.324   7.803 -0.4448 -0.1523 -0.3422
   41CHL1   H17 2985  -0.057   4.376   7.825 -1.2671  1.2711 -0.0366
   41CHL1   C13 2986  -0.178   4.351   7.660 -0.7076 -0.2075  0.2815
   41CHL1   C18 2987  -0.316   4.303   7.614  0.2238 -0.8772 -0.0049
   41CHL1  H18A 2988  -0.314   4.253   7.515 -0.7900  2.4229 -1.8261
   41CHL1  H18B 2989  -0.359   4.227   7.684 -1.4491  0.3177  0.3203
   41CHL1  H18C 2990  -0.386   4.388   7.606  1.1891 -0.0636 -0.0448
   41CHL1   C12 2991  -0.153   4.495   7.605 -0.5582 -0.8627  0.1764
   41CHL1  H12A 2992  -0.234   4.563   7.636 -1.2732 -0.4317 -2.4090
   41CHL1  H12B 2993  -0.055   4.539   7.633 -1.1725  1.6926 -1.3550
   41CHL1   C11 2994  -0.156   4.500   7.450 -0.4080  0.6442 -0.0213
   41CHL1  H11A 2995  -0.259   4.477   7.417 -0.3922 -1.0821  1.0413
   41CHL1  H11B 2996  -0.125   4.603   7.421  0.5676  0.4671  0.3567
   41CHL1    C9 2997  -0.053   4.396   7.391 -0.4377 -0.6741 -0.4326
   41CHL1    H9 2998   0.044   4.427   7.434 -0.1721  0.8466 -2.0018
   41CHL1   C10 2999  -0.039   4.404   7.234 -0.5141 -0.4180  0.5623
   41CHL1   C19 3000  -0.186   4.417   7.177 -0.7115  0.1388  0.3311
   41CHL1  H19A 3001  -0.190   4.433   7.067  1.1492  0.2406  0.2516
   41CHL1  H19B 3002  -0.246   4.325   7.196  0.7406 -1.0101 -0.4783
   41CHL1  H19C 3003  -0.230   4.509   7.221 -2.2082 -0.3491 -0.0575
   41CHL1    C1 3004   0.053   4.527   7.196 -0.3090 -0.3129  0.2258
   41CHL1   H1A 3005  -0.007   4.618   7.219 -0.9800 -1.0784  1.6212
   41CHL1   H1B 3006   0.154   4.521   7.242  0.2394 -0.6210 -0.9861
   41CHL1    C2 3007   0.082   4.530   7.041  0.5471 -0.1815 -0.9595
   41CHL1   H2A 3008   0.146   4.616   7.012  1.0754 -0.9322 -2.1203
   41CHL1   H2B 3009  -0.016   4.544   6.991  0.3797  1.4588 -0.2332
   41CHL1   C20 3010  -0.254   4.379   7.909  0.0404  0.3326  0.1324
   41CHL1   H20 3011  -0.357   4.343   7.888 -0.4814  0.9884  1.4550
   41CHL1   C21 3012  -0.261   4.531   7.921 -0.1027 -0.2028 -0.4738
   41CHL1  H21A 3013  -0.169   4.580   7.961 -1.1759  1.8291 -0.3695
   41CHL1  H21B 3014  -0.335   4.548   8.003  0.7180 -1.2639  0.5248
   41CHL1  H21C 3015  -0.302   4.578   7.829  0.3114  1.6247  0.2311
   41CHL1   C22 3016  -0.213   4.330   8.055  0.0828  0.9411 -0.1136
   41CHL1  H22A 3017  -0.124   4.265   8.062 -0.3406  0.5212  4.4138
   41CHL1  H22B 3018  -0.193   4.419   8.118  0.3793  0.1216  0.9830
   41CHL1   C23 3019  -0.325   4.250   8.128  0.2602  0.1392  0.2735
   41CHL1  H23A 3020  -0.371   4.188   8.048 -1.1460  0.8787  0.4805
   41CHL1  H23B 3021  -0.287   4.177   8.202  0.1164 -2.3220 -1.9384
   41CHL1   C24 3022  -0.435   4.334   8.195  0.4578 -0.1800  0.6068
   41CHL1  H24A 3023  -0.398   4.385   8.287 -0.3889  0.5179  0.5673
   41CHL1  H24B 3024  -0.458   4.414   8.122 -2.0551 -1.7157 -0.3943
   41CHL1   C25 3025  -0.551   4.250   8.249  0.7310  0.2008 -0.2794
   41CHL1   H25 3026  -0.584   4.184   8.167  1.0028  0.5997 -0.7184
   41CHL1   C26 3027  -0.509   4.154   8.366 -0.2294  0.1493  0.0479
   41CHL1  H26A 3028  -0.453   4.068   8.323 -0.3485 -0.7978  1.7093
   41CHL1  H26B 3029  -0.442   4.207   8.437 -2.2144 -0.0795  2.2011
   41CHL1  H26C 3030  -0.601   4.112   8.413 -0.0008 -0.4014  0.0128
   41CHL1   C27 3031  -0.669   4.343   8.292 -0.0689 -0.6785 -0.1901
   41CHL1  H27A 3032  -0.649   4.385   8.393 -1.0148 -2.1010  0.6368
   41CHL1  H27B 3033  -0.669   4.434   8.228 -0.0644 -0.2260  0.4471
   41CHL1  H27C 3034  -0.771   4.298   8.296 -1.0681  1.3804 -0.8972
   42CHL1    C3 3035   1.306   1.814   6.984  1.1709 -0.4663  0.0174
   42CHL1    H3 3036   1.411   1.798   7.016  1.7110 -2.2759 -2.3070
   42CHL1    O3 3037   1.320   1.886   6.864 -0.5940  0.2617  0.1937
   42CHL1   H3' 3038   1.319   1.979   6.886  1.5590  0.2265  0.7013
   42CHL1    C4 3039   1.227   1.683   6.957  0.5384 -0.4181 -0.2883
   42CHL1   H4A 3040   1.125   1.710   6.924 -0.4252 -1.7875  1.3854
   42CHL1   H4B 3041   1.267   1.630   6.868 -4.6899  0.9037 -3.8827
   42CHL1    C5 3042   1.223   1.604   7.080  0.3329  0.3910 -0.5784
   42CHL1    C6 3043   1.269   1.471   7.091  0.2087  0.1560  0.6274
   42CHL1    H6 3044   1.302   1.426   6.996 -1.1104  0.8225 -0.1851
   42CHL1    C7 3045   1.245   1.385   7.204 -0.2279 -0.3538 -0.3171
   42CHL1   H7A 3046   1.204   1.285   7.176 -2.2335  0.5206 -0.6616
   42CHL1   H7B 3047   1.343   1.364   7.252 -0.4409  0.4925  0.5133
   42CHL1    C8 3048   1.146   1.435   7.309  0.6791  0.3530 -0.1238
   42CHL1    H8 3049   1.046   1.411   7.268 -0.7430  0.9096  2.7294
   42CHL1   C14 3050   1.158   1.356   7.446 -0.8889  0.2997  0.8019
   42CHL1   H14 3051   1.258   1.370   7.491 -1.3955  0.7839  1.8070
   42CHL1   C15 3052   1.126   1.202   7.444 -0.2258  0.6481  0.4751
   42CHL1  H15A 3053   1.028   1.182   7.395 -0.3741  0.9848  0.6285
   42CHL1  H15B 3054   1.216   1.146   7.411 -0.1002  1.2905 -0.2959
   42CHL1   C16 3055   1.098   1.172   7.591  0.0850  0.0891 -0.7128
   42CHL1  H16A 3056   0.999   1.122   7.601 -0.0841  0.9312  3.9757
   42CHL1  H16B 3057   1.182   1.117   7.640  0.5476  1.4678  0.0745
   42CHL1   C17 3058   1.089   1.306   7.670  0.3611 -0.2142  0.7948
   42CHL1   H17 3059   1.196   1.329   7.691  0.4982 -0.2577  0.1681
   42CHL1   C13 3060   1.064   1.410   7.556  0.1455  0.5460  0.5530
   42CHL1   C18 3061   0.913   1.399   7.520  0.2960 -0.3593 -0.0835
   42CHL1  H18A 3062   0.885   1.472   7.441  0.1647 -0.0900  0.2103
   42CHL1  H18B 3063   0.889   1.298   7.481  1.0612 -1.3174  1.8242
   42CHL1  H18C 3064   0.844   1.421   7.604  1.7376  2.0142  0.5701
   42CHL1   C12 3065   1.108   1.554   7.587 -0.6118 -0.3282 -0.0757
   42CHL1  H12A 3066   1.055   1.602   7.672 -1.2137 -1.0524 -0.0337
   42CHL1  H12B 3067   1.216   1.562   7.611 -0.6257 -1.8361  0.6096
   42CHL1   C11 3068   1.094   1.635   7.455  0.6414  0.1311 -0.1378
   42CHL1  H11A 3069   0.984   1.641   7.441 -0.0586 -1.4837  3.3544
   42CHL1  H11B 3070   1.128   1.738   7.479 -2.0257  0.9682  0.4127
   42CHL1    C9 3071   1.167   1.582   7.333 -0.5331 -0.0366 -0.7143
   42CHL1    H9 3072   1.274   1.593   7.361 -0.3830 -0.7297 -1.0034
   42CHL1   C10 3073   1.158   1.672   7.202 -0.1764  1.0215 -0.3050
   42CHL1   C19 3074   1.003   1.691   7.179 -0.2581  0.0353  0.4814
   42CHL1  H19A 3075   0.984   1.752   7.089 -1.6389  1.6288  1.7786
   42CHL1  H19B 3076   0.947   1.595   7.172 -1.0456  0.5750 -1.0417
   42CHL1  H19C 3077   0.954   1.749   7.260  2.6213  1.6161  1.1848
   42CHL1    C1 3078   1.229   1.812   7.223 -0.0529 -0.2904 -0.3409
   42CHL1   H1A 3079   1.183   1.872   7.304  4.4761  1.8494  0.9192
   42CHL1   H1B 3080   1.330   1.780   7.257 -0.1826 -2.3295 -1.6667
   42CHL1    C2 3081   1.237   1.901   7.095 -0.7095 -0.0919  0.0113
   42CHL1   H2A 3082   1.296   1.994   7.109  0.4799 -0.3573 -2.6829
   42CHL1   H2B 3083   1.136   1.933   7.061 -0.3144  0.7772 -0.3677
   42CHL1   C20 3084   1.008   1.291   7.790 -0.1442  0.3546 -0.8752
   42CHL1   H20 3085   0.906   1.260   7.758  1.1005 -3.8908 -1.3541
   42CHL1   C21 3086   0.992   1.421   7.871  0.4848 -0.0267  0.5877
   42CHL1  H21A 3087   0.947   1.407   7.971  1.1594  2.9882  1.4343
   42CHL1  H21B 3088   0.929   1.493   7.814 -0.9377  0.0288  2.1560
   42CHL1  H21C 3089   1.091   1.466   7.895  1.5136 -1.4460 -0.7633
   42CHL1   C22 3090   1.062   1.169   7.885 -0.1034 -0.6337 -0.1843
   42CHL1  H22A 3091   1.051   1.074   7.829 -0.0560 -0.1677 -1.0066
   42CHL1  H22B 3092   1.171   1.177   7.908 -0.1630 -1.8138  0.5815
   42CHL1   C23 3093   0.982   1.146   8.012  0.1069  0.3802  0.1735
   42CHL1  H23A 3094   1.025   1.217   8.086  4.1815 -2.2449  0.6660
   42CHL1  H23B 3095   0.877   1.177   7.995  0.6434  1.8380 -0.6696
   42CHL1   C24 3096   0.989   0.999   8.068  0.0901  0.3847 -0.3853
   42CHL1  H24A 3097   0.941   0.933   7.993 -0.6065 -0.5396  0.8379
   42CHL1  H24B 3098   1.098   0.980   8.068  0.1785  0.8758  0.1604
   42CHL1   C25 3099   0.933   0.966   8.208  0.1918 -0.1619  0.1779
   42CHL1   H25 3100   0.823   0.985   8.211 -0.4494 -2.5472 -2.8951
   42CHL1   C26 3101   0.945   0.819   8.246  0.3440 -0.1990 -0.2142
   42CHL1  H26A 3102   0.906   0.755   8.164 -0.8564 -3.1218  2.4212
   42CHL1  H26B 3103   1.054   0.802   8.259  1.0760  3.2749 -0.8682
   42CHL1  H26C 3104   0.884   0.793   8.335  1.4161  1.5532  1.0950
   42CHL1   C27 3105   1.007   1.057   8.309  0.0557  0.3279  0.1971
   42CHL1  H27A 3106   0.990   1.029   8.415  0.6975  2.6850  0.9726
   42CHL1  H27B 3107   0.991   1.167   8.304 -1.1447  0.1386 -0.4187
   42CHL1  H27C 3108   1.117   1.042   8.304 -0.1809 -1.2607 -2.1151
   43CHL1    C3 3109   1.071   5.652   6.906  0.1411 -0.0082 -0.1038
   43CHL1    H3 3110   0.988   5.723   6.925  0.9109  1.2332 -1.1678
   43CHL1    O3 3111   1.125   5.664   6.770 -0.2485 -0.0417 -0.3638
   43CHL1   H3' 3112   1.197   5.601   6.773  0.3395  0.6574  0.9835
   43CHL1    C4 3113   1.198   5.674   6.997 -0.6387 -0.1129  0.3925
   43CHL1   H4A 3114   1.279   5.608   6.961 -0.1314  0.9186 -0.4090
   43CHL1   H4B 3115   1.235   5.777   6.979 -0.3719 -0.6902 -3.1553
   43CHL1    C5 3116   1.174   5.639   7.142 -0.5770  0.2102 -0.2415
   43CHL1    C6 3117   1.202   5.730   7.239 -0.4937 -0.1493 -0.4326
   43CHL1    H6 3118   1.268   5.809   7.202 -0.0397 -0.6801 -0.7736
   43CHL1    C7 3119   1.175   5.703   7.388  0.4552 -0.8134 -0.3236
   43CHL1   H7A 3120   1.255   5.730   7.460 -0.8027  0.9879  0.4695
   43CHL1   H7B 3121   1.094   5.769   7.425  1.2921 -0.5983  1.2275
   43CHL1    C8 3122   1.151   5.551   7.412 -0.5396 -0.0769 -0.4102
   43CHL1    H8 3123   1.251   5.503   7.418 -0.0346  0.9644 -0.2645
   43CHL1   C14 3124   1.087   5.543   7.556 -0.4057  0.3764 -0.3053
   43CHL1   H14 3125   0.993   5.602   7.548 -0.5797  0.3679  1.3740
   43CHL1   C15 3126   1.163   5.615   7.669 -1.1505  0.7195  0.1486
   43CHL1  H15A 3127   1.270   5.588   7.669 -1.6953 -1.6786  1.1719
   43CHL1  H15B 3128   1.162   5.726   7.660  1.1590  0.7406 -0.3232
   43CHL1   C16 3129   1.089   5.572   7.798  0.2521  0.6911  0.1240
   43CHL1  H16A 3130   1.169   5.551   7.872 -0.0907 -0.6200  0.1466
   43CHL1  H16B 3131   1.026   5.653   7.840 -1.7387 -0.2330 -0.9605
   43CHL1   C17 3132   1.010   5.441   7.758 -0.6060  0.5665 -0.7878
   43CHL1   H17 3133   0.903   5.467   7.756 -0.6843  0.5150  1.1312
   43CHL1   C13 3134   1.057   5.407   7.612  0.2558 -0.5886 -0.3592
   43CHL1   C18 3135   1.185   5.323   7.614  0.0319  0.3170 -0.8772
   43CHL1  H18A 3136   1.268   5.388   7.648 -0.2446  0.2427 -0.0467
   43CHL1  H18B 3137   1.165   5.235   7.679  0.8307  0.3710 -0.5481
   43CHL1  H18C 3138   1.207   5.277   7.515 -0.2874 -1.7119 -0.0645
   43CHL1   C12 3139   0.950   5.349   7.512  0.1573 -0.1029 -0.1656
   43CHL1  H12A 3140   0.913   5.253   7.553 -1.3278  0.6218  0.2778
   43CHL1  H12B 3141   0.861   5.416   7.508 -1.0026 -1.6312 -0.5753
   43CHL1   C11 3142   1.002   5.349   7.364  0.3865 -0.5284  0.2561
   43CHL1  H11A 3143   1.083   5.275   7.352 -0.9937 -2.0181 -0.1378
   43CHL1  H11B 3144   0.927   5.307   7.294  1.2433 -2.0623  0.2186
   43CHL1    C9 3145   1.060   5.488   7.314  0.8621 -0.2057  0.0682
   43CHL1    H9 3146   0.967   5.549   7.310  0.6537 -0.5532 -2.3453
   43CHL1   C10 3147   1.110   5.504   7.165  0.4607  0.4036 -0.1506
   43CHL1   C19 3148   1.224   5.395   7.137  0.3143 -0.4938  0.4038
   43CHL1  H19A 3149   1.158   5.307   7.148 -0.8882  0.2656 -0.4745
   43CHL1  H19B 3150   1.276   5.400   7.038  0.0396  0.1111  0.2845
   43CHL1  H19C 3151   1.298   5.392   7.220 -1.8829 -0.0647  2.4695
   43CHL1    C1 3152   0.996   5.482   7.072  1.0422  0.0542 -0.0745
   43CHL1   H1A 3153   0.969   5.375   7.082 -0.6570  0.5761  1.2576
   43CHL1   H1B 3154   0.913   5.551   7.097 -1.0468 -2.6617  1.0126
   43CHL1    C2 3155   1.016   5.509   6.922  0.3471  0.1761  0.1023
   43CHL1   H2A 3156   0.923   5.498   6.863  0.0525 -0.7157  0.7066
   43CHL1   H2B 3157   1.090   5.436   6.880 -0.8304 -1.9358  1.4968
   43CHL1   C20 3158   1.036   5.342   7.875  0.4525  0.1760 -0.6816
   43CHL1   H20 3159   1.145   5.326   7.879  0.5133  0.1367 -2.0564
   43CHL1   C21 3160   0.957   5.202   7.865  0.5592 -0.0326 -0.0809
   43CHL1  H21A 3161   1.016   5.125   7.921 -0.8344 -2.1229 -1.3721
   43CHL1  H21B 3162   0.938   5.167   7.762  0.7952  0.0577 -0.1558
   43CHL1  H21C 3163   0.858   5.215   7.913  0.1232 -3.5210  0.2524
   43CHL1   C22 3164   0.970   5.409   8.003 -0.3602  0.5772 -0.0178
   43CHL1  H22A 3165   1.026   5.501   8.032 -1.9289  0.9864  1.8955
   43CHL1  H22B 3166   0.870   5.451   7.976 -0.3181 -0.9067 -2.8578
   43CHL1   C23 3167   0.979   5.323   8.129 -1.1249  0.6986  0.2795
   43CHL1  H23A 3168   0.934   5.389   8.206 -1.8866  0.9641 -0.3738
   43CHL1  H23B 3169   0.917   5.231   8.121 -0.8985  0.6114 -0.4687
   43CHL1   C24 3170   1.116   5.267   8.166  0.0553  0.3998 -0.2676
   43CHL1  H24A 3171   1.148   5.194   8.088 -1.1836 -0.8840  0.3879
   43CHL1  H24B 3172   1.190   5.350   8.167 -2.0387  2.4922  3.4019
   43CHL1   C25 3173   1.123   5.192   8.306 -0.4516  0.1900  0.1273
   43CHL1   H25 3174   1.050   5.109   8.294 -1.1345  0.2686  3.0133
   43CHL1   C26 3175   1.268   5.137   8.325  0.0822  0.0836  0.2578
   43CHL1  H26A 3176   1.302   5.075   8.239  1.0467  0.4271  0.3805
   43CHL1  H26B 3177   1.334   5.226   8.335 -2.1539  1.8757 -0.1385
   43CHL1  H26C 3178   1.279   5.085   8.423 -0.4816  0.5136  0.5554
   43CHL1   C27 3179   1.097   5.286   8.422  0.0255  0.3755 -0.7896
   43CHL1  H27A 3180   1.000   5.340   8.425 -0.0677  0.1588  0.5176
   43CHL1  H27B 3181   1.116   5.222   8.511  3.1296  0.0695 -1.5524
   43CHL1  H27C 3182   1.183   5.351   8.447  1.3857 -1.7097  0.3216
   44CHL1    C3 3183   1.171   4.325   6.609 -0.4973 -0.1872  0.0082
   44CHL1    H3 3184   1.093   4.403   6.596 -0.6834 -0.4693 -0.6228
   44CHL1    O3 3185   1.218   4.297   6.479  0.0811  0.6265  0.6352
   44CHL1   H3' 3186   1.215   4.379   6.430  1.3735 -0.3879 -1.2494
   44CHL1    C4 3187   1.293   4.379   6.687  0.6067  0.2782 -0.3392
   44CHL1   H4A 3188   1.378   4.312   6.663 -0.4323 -0.2707 -2.7284
   44CHL1   H4B 3189   1.329   4.477   6.648 -0.4316  1.0685  0.6201
   44CHL1    C5 3190   1.260   4.399   6.837 -0.6517  0.2579 -0.4113
   44CHL1    C6 3191   1.292   4.508   6.905  0.2729 -0.7747  0.0389
   44CHL1    H6 3192   1.323   4.593   6.843  0.2814  0.2356  1.4019
   44CHL1    C7 3193   1.272   4.532   7.054  0.6037 -0.4236  0.2026
   44CHL1   H7A 3194   1.353   4.581   7.110  0.7450  1.7872 -1.7682
   44CHL1   H7B 3195   1.182   4.597   7.059  1.2656  0.4369  1.2279
   44CHL1    C8 3196   1.235   4.403   7.128 -0.3348 -0.2415  0.0736
   44CHL1    H8 3197   1.337   4.359   7.132 -0.4359 -0.4728  0.1349
   44CHL1   C14 3198   1.192   4.434   7.279  0.4159  0.9077  0.8245
   44CHL1   H14 3199   1.093   4.483   7.271  0.1951  0.2391 -1.0401
   44CHL1   C15 3200   1.254   4.536   7.364 -0.1401 -0.1512  0.1219
   44CHL1  H15A 3201   1.364   4.532   7.347 -0.4008  0.7453 -2.2596
   44CHL1  H15B 3202   1.227   4.641   7.339 -0.9482 -0.2469  0.5710
   44CHL1   C16 3203   1.230   4.486   7.507  0.4127 -0.0618 -0.0300
   44CHL1  H16A 3204   1.330   4.449   7.538 -0.6791 -1.9888  1.4119
   44CHL1  H16B 3205   1.192   4.550   7.589 -2.0457 -0.6446 -0.6138
   44CHL1   C17 3206   1.133   4.365   7.494 -0.8388  0.9357 -0.1517
   44CHL1   H17 3207   1.034   4.413   7.478 -0.9138  1.1047  0.7893
   44CHL1   C13 3208   1.164   4.305   7.357 -0.0563 -0.2226 -0.5450
   44CHL1   C18 3209   1.305   4.235   7.364 -0.1860  0.3569  0.5448
   44CHL1  H18A 3210   1.334   4.187   7.268  0.6949 -1.4789  1.6659
   44CHL1  H18B 3211   1.381   4.313   7.384  2.3346 -1.6126 -0.8766
   44CHL1  H18C 3212   1.318   4.152   7.437 -2.6316  2.7790  4.0701
   44CHL1   C12 3213   1.050   4.224   7.282 -0.4248 -0.4066 -0.4073
   44CHL1  H12A 3214   1.033   4.130   7.339 -1.7924  0.8879  1.4412
   44CHL1  H12B 3215   0.952   4.275   7.270 -1.5613 -2.4970 -0.5786
   44CHL1   C11 3216   1.095   4.190   7.136  0.1674  0.6199  0.1609
   44CHL1  H11A 3217   1.181   4.120   7.136 -1.4440 -1.5042 -2.4685
   44CHL1  H11B 3218   1.020   4.128   7.083  1.6086 -3.3377  2.3499
   44CHL1    C9 3219   1.141   4.311   7.050  0.5267  1.0140  0.1475
   44CHL1    H9 3220   1.043   4.362   7.039  0.0905  0.1497 -0.0377
   44CHL1   C10 3221   1.193   4.278   6.908 -1.1796 -0.0580 -0.0618
   44CHL1   C19 3222   1.306   4.174   6.908  0.2856  0.5439 -0.3011
   44CHL1  H19A 3223   1.257   4.088   6.957 -0.9750  1.9848  1.0925
   44CHL1  H19B 3224   1.344   4.148   6.807 -0.1911  2.6619 -1.0814
   44CHL1  H19C 3225   1.392   4.206   6.971 -1.4066 -0.7403  2.8583
   44CHL1    C1 3226   1.079   4.232   6.821  0.6155  0.0966 -0.4942
   44CHL1   H1A 3227   1.046   4.137   6.866 -0.2206  0.0495 -1.1903
   44CHL1   H1B 3228   0.994   4.303   6.833  1.1522  0.7818 -0.6644
   44CHL1    C2 3229   1.107   4.206   6.671  0.2257  0.6036 -0.6308
   44CHL1   H2A 3230   1.014   4.173   6.620  2.1591 -1.9026 -2.7924
   44CHL1   H2B 3231   1.165   4.112   6.671 -0.5542  0.0872  0.4903
   44CHL1   C20 3232   1.110   4.262   7.611  0.4627  0.7503 -0.4209
   44CHL1   H20 3233   1.177   4.174   7.601 -1.2757 -0.7295  0.4651
   44CHL1   C21 3234   0.963   4.215   7.613  0.5174  0.0425  0.5844
   44CHL1  H21A 3235   0.896   4.296   7.650  1.3745  0.3266  1.5509
   44CHL1  H21B 3236   0.947   4.137   7.690 -0.1667  1.3631  1.8352
   44CHL1  H21C 3237   0.931   4.177   7.513  1.8867  0.4896 -0.0582
   44CHL1   C22 3238   1.154   4.321   7.748  0.3438  0.4906  0.2092
   44CHL1  H22A 3239   1.265   4.328   7.750  0.4163 -0.4411  2.3447
   44CHL1  H22B 3240   1.102   4.417   7.769 -0.6572  0.4673 -1.8630
   44CHL1   C23 3241   1.134   4.227   7.866  0.5493  0.1213  0.0115
   44CHL1  H23A 3242   1.025   4.222   7.887  0.2769 -1.5762 -1.4797
   44CHL1  H23B 3243   1.164   4.125   7.833 -0.2321  1.0548 -4.0579
   44CHL1   C24 3244   1.202   4.264   7.994  0.1072  0.2472 -0.1920
   44CHL1  H24A 3245   1.312   4.266   7.977 -0.2756 -0.1117 -3.4297
   44CHL1  H24B 3246   1.183   4.370   8.021 -2.1036 -0.1640  0.0648
   44CHL1   C25 3247   1.189   4.164   8.112 -0.1938 -0.0537  0.0233
   44CHL1   H25 3248   1.182   4.063   8.067 -1.3577  0.6208 -1.3881
   44CHL1   C26 3249   1.308   4.174   8.217 -0.6320  0.1125  0.3173
   44CHL1  H26A 3250   1.336   4.277   8.245  1.7484  0.1379 -1.7306
   44CHL1  H26B 3251   1.283   4.102   8.298 -1.3087 -1.0498 -0.8850
   44CHL1  H26C 3252   1.392   4.115   8.173 -1.0376 -0.8303  0.7631
   44CHL1   C27 3253   1.055   4.171   8.180  0.1257  0.4698  0.0674
   44CHL1  H27A 3254   1.017   4.273   8.203  0.8014  1.1482 -1.6181
   44CHL1  H27B 3255   0.977   4.129   8.112  0.0996  2.4594 -1.2327
   44CHL1  H27C 3256   1.049   4.114   8.275 -1.2290 -0.9122 -0.7977
   45CHL1    C3 3257   2.105   2.615   6.686 -0.4937  0.1924  0.5984
   45CHL1    H3 3258   2.028   2.690   6.715 -0.5427  0.9366 -1.3037
   45CHL1    O3 3259   2.123   2.634   6.545 -0.5878  1.0376 -0.5125
   45CHL1   H3' 3260   2.207   2.677   6.529  3.1906 -5.0308  0.0620
   45CHL1    C4 3261   2.230   2.646   6.777 -0.2837 -0.4700 -0.2724
   45CHL1   H4A 3262   2.321   2.593   6.741  1.9591  0.6586  3.2470
   45CHL1   H4B 3263   2.253   2.752   6.756 -1.7439 -0.1072 -0.1709
   45CHL1    C5 3264   2.191   2.622   6.921  0.1680  0.1432  0.1351
   45CHL1    C6 3265   2.208   2.717   7.010 -0.4821 -1.0675  0.0678
   45CHL1    H6 3266   2.244   2.815   6.978 -0.2698 -1.3228 -0.4868
   45CHL1    C7 3267   2.189   2.704   7.155  0.3510 -0.1210  0.8799
   45CHL1   H7A 3268   2.263   2.765   7.211  2.2889 -0.2414 -1.3764
   45CHL1   H7B 3269   2.087   2.740   7.181  0.0256 -0.9404  0.7646
   45CHL1    C8 3270   2.179   2.554   7.200 -0.0496 -0.1281  0.6382
   45CHL1    H8 3271   2.280   2.510   7.198 -0.9983 -2.3973 -0.7544
   45CHL1   C14 3272   2.122   2.541   7.343  0.9393 -0.2547 -0.0510
   45CHL1   H14 3273   2.017   2.576   7.343  0.3264 -1.8980  1.8884
   45CHL1   C15 3274   2.182   2.642   7.446  0.2724 -0.1482 -0.0352
   45CHL1  H15A 3275   2.292   2.643   7.432  0.3434  2.0702  0.3114
   45CHL1  H15B 3276   2.139   2.741   7.423  0.2413 -0.5961 -2.0913
   45CHL1   C16 3277   2.139   2.577   7.571 -0.3181  0.5232 -0.2750
   45CHL1  H16A 3278   2.224   2.572   7.642  0.7436  0.3929 -1.5174
   45CHL1  H16B 3279   2.064   2.638   7.625  0.5187  0.8652  0.5300
   45CHL1   C17 3280   2.080   2.434   7.537 -0.0647 -0.1262 -0.0632
   45CHL1   H17 3281   1.974   2.467   7.529 -0.2104 -0.5888 -0.0664
   45CHL1   C13 3282   2.124   2.403   7.402  0.9006 -0.1713 -0.0464
   45CHL1   C18 3283   2.267   2.340   7.393 -0.2100 -0.9277  0.0648
   45CHL1  H18A 3284   2.289   2.256   7.463  0.2484 -0.6615  0.2421
   45CHL1  H18B 3285   2.303   2.300   7.295  0.4588 -0.8063  0.2537
   45CHL1  H18C 3286   2.341   2.422   7.403  0.6199 -1.5260 -0.9113
   45CHL1   C12 3287   2.031   2.316   7.312  0.4138  0.2959  0.4442
   45CHL1  H12A 3288   2.019   2.213   7.351  0.9095 -0.0034 -0.1925
   45CHL1  H12B 3289   1.927   2.356   7.318  1.1631  2.3755  0.4971
   45CHL1   C11 3290   2.072   2.312   7.157  0.4387 -0.2306 -0.9039
   45CHL1  H11A 3291   2.163   2.251   7.138  0.3115 -0.6353 -0.2527
   45CHL1  H11B 3292   1.997   2.263   7.092 -0.8009  1.9219 -1.2075
   45CHL1    C9 3293   2.088   2.465   7.112 -0.1314 -0.6015  0.7284
   45CHL1    H9 3294   1.989   2.515   7.118  0.0396  0.4977 -3.0123
   45CHL1   C10 3295   2.140   2.482   6.969  0.3119  0.3996 -0.0656
   45CHL1   C19 3296   2.247   2.375   6.934 -0.0131 -0.2904 -0.1774
   45CHL1  H19A 3297   2.210   2.271   6.921 -1.5013  0.5739 -3.8202
   45CHL1  H19B 3298   2.277   2.393   6.829  0.3029 -2.2741 -0.4651
   45CHL1  H19C 3299   2.322   2.375   7.016  1.0209 -1.2572 -1.1023
   45CHL1    C1 3300   2.024   2.449   6.870 -0.2368 -0.3955  0.8264
   45CHL1   H1A 3301   1.989   2.344   6.883 -0.0446 -0.4237  1.1236
   45CHL1   H1B 3302   1.945   2.520   6.904  1.7173  0.7627  3.2878
   45CHL1    C2 3303   2.050   2.475   6.717 -0.4461 -0.3796  0.5205
   45CHL1   H2A 3304   1.962   2.461   6.652  0.2047 -1.1077 -0.2370
   45CHL1   H2B 3305   2.117   2.399   6.670 -0.0104  2.0117 -3.1497
   45CHL1   C20 3306   2.091   2.332   7.650 -1.1597 -0.5713 -0.4861
   45CHL1   H20 3307   2.197   2.299   7.657 -1.3636 -0.9640  1.2798
   45CHL1   C21 3308   1.994   2.216   7.626  0.3991  0.7395 -0.3084
   45CHL1  H21A 3309   2.015   2.160   7.532 -0.0420 -0.7925  0.4702
   45CHL1  H21B 3310   1.885   2.238   7.632 -0.8288 -3.7442 -1.7460
   45CHL1  H21C 3311   2.010   2.146   7.711 -2.2589  0.2667 -0.0990
   45CHL1   C22 3312   2.076   2.380   7.798  0.0480 -0.8261 -0.5602
   45CHL1  H22A 3313   2.120   2.299   7.860  1.5893  0.8549  0.6248
   45CHL1  H22B 3314   2.130   2.475   7.814  1.6586 -2.2311  3.4962
   45CHL1   C23 3315   1.941   2.423   7.835  0.0049 -0.6248 -0.3929
   45CHL1  H23A 3316   1.910   2.499   7.759 -0.0616 -0.6561 -0.3966
   45CHL1  H23B 3317   1.872   2.336   7.830 -1.0829  0.1241  0.8789
   45CHL1   C24 3318   1.927   2.497   7.970 -0.5581  0.2564 -0.1018
   45CHL1  H24A 3319   1.988   2.455   8.053  0.5738  0.0122 -1.0276
   45CHL1  H24B 3320   1.979   2.593   7.951  1.7836 -0.7800  0.5885
   45CHL1   C25 3321   1.782   2.504   8.029  0.1163  0.4819  1.6230
   45CHL1   H25 3322   1.723   2.563   7.955 -1.3153  0.7533  2.9210
   45CHL1   C26 3323   1.699   2.373   8.041  0.3184  0.6745  0.4714
   45CHL1  H26A 3324   1.701   2.327   7.940 -0.8287  0.8720  0.3479
   45CHL1  H26B 3325   1.751   2.305   8.112  2.1769  1.3752 -0.1466
   45CHL1  H26C 3326   1.592   2.372   8.072  0.2128  0.5448  0.1059
   45CHL1   C27 3327   1.795   2.571   8.167 -0.0440 -0.7154  0.1215
   45CHL1  H27A 3328   1.876   2.519   8.222  0.6753 -2.3642 -2.3113
   45CHL1  H27B 3329   1.833   2.675   8.173  2.3144 -1.5383  1.0264
   45CHL1  H27C 3330   1.700   2.559   8.223  0.6259  1.1868  1.7916
   46CHL1    C3 3331   2.153   3.573   6.998  0.1171  0.4188  0.3603
   46CHL1    H3 3332   2.106   3.477   6.969  0.6278  0.0612  0.7080
   46CHL1    O3 3333   2.190   3.632   6.874  0.3106  0.4589  0.2779
   46CHL1   H3' 3334   2.232   3.559   6.827 -0.1562 -0.3161  1.0201
   46CHL1    C4 3335   2.058   3.667   7.067  0.4109  0.4864 -0.0828
   46CHL1   H4A 3336   2.111   3.765   7.067  1.7376 -0.0950  3.0228
   46CHL1   H4B 3337   1.964   3.677   7.010  0.2141 -1.5686 -0.1950
   46CHL1    C5 3338   2.025   3.633   7.212 -0.2659 -0.4366  0.4080
   46CHL1    C6 3339   1.900   3.618   7.247 -0.5344  0.3087  0.6020
   46CHL1    H6 3340   1.817   3.640   7.178 -0.9479  2.4201  1.6775
   46CHL1    C7 3341   1.857   3.588   7.389  0.5973  0.6709  0.1824
   46CHL1   H7A 3342   1.771   3.650   7.423 -1.2785 -1.1719 -0.9233
   46CHL1   H7B 3343   1.828   3.481   7.389  1.4031  0.4500 -0.0220
   46CHL1    C8 3344   1.970   3.605   7.494  0.4804 -1.1037  0.3216
   46CHL1    H8 3345   1.978   3.713   7.519 -0.0791 -1.3930  1.8746
   46CHL1   C14 3346   1.922   3.531   7.614 -0.6096  0.3705 -0.2376
   46CHL1   H14 3347   1.930   3.423   7.587  2.0216 -0.4608  3.0690
   46CHL1   C15 3348   1.782   3.554   7.662  0.0279 -0.6509  0.0285
   46CHL1  H15A 3349   1.755   3.661   7.656  0.3577 -0.6363 -2.4748
   46CHL1  H15B 3350   1.706   3.505   7.597 -0.4800  1.3725 -0.9683
   46CHL1   C16 3351   1.772   3.497   7.800 -1.0737  0.0540  0.5782
   46CHL1  H16A 3352   1.728   3.570   7.871  0.8641  0.0619  1.8356
   46CHL1  H16B 3353   1.712   3.404   7.810 -0.7469 -0.4034 -1.3225
   46CHL1   C17 3354   1.925   3.474   7.841 -0.5870  0.0559  0.8194
   46CHL1   H17 3355   1.928   3.365   7.816 -0.0879  0.1182  0.5848
   46CHL1   C13 3356   2.015   3.543   7.738  0.2888 -0.5871  0.1560
   46CHL1   C18 3357   2.044   3.690   7.791 -0.4502 -0.7166  0.5205
   46CHL1  H18A 3358   1.948   3.729   7.830 -2.3009 -4.4783  0.0953
   46CHL1  H18B 3359   2.121   3.676   7.870  0.5094  0.4673 -0.1641
   46CHL1  H18C 3360   2.086   3.749   7.706 -0.3455 -0.3421  0.8279
   46CHL1   C12 3361   2.148   3.480   7.700  0.4280  0.8170 -0.0833
   46CHL1  H12A 3362   2.223   3.495   7.780  1.4894 -1.5492 -0.5668
   46CHL1  H12B 3363   2.135   3.370   7.693  1.3857  0.4182  2.8964
   46CHL1   C11 3364   2.198   3.541   7.566 -0.1077 -0.4298  0.3607
   46CHL1  H11A 3365   2.236   3.638   7.604 -0.7693 -0.7998  2.0764
   46CHL1  H11B 3366   2.270   3.462   7.535  0.1515 -0.7380  1.7031
   46CHL1    C9 3367   2.103   3.552   7.449  0.1448 -0.1941  0.6019
   46CHL1    H9 3368   2.074   3.446   7.428 -0.3514 -0.3040  1.7898
   46CHL1   C10 3369   2.148   3.612   7.312 -0.5871  0.1543 -0.5094
   46CHL1   C19 3370   2.234   3.738   7.341  0.4169  0.8312 -0.1983
   46CHL1  H19A 3371   2.334   3.713   7.384  0.4098  1.7162  0.3611
   46CHL1  H19B 3372   2.259   3.796   7.249 -0.9020  1.2334 -0.3213
   46CHL1  H19C 3373   2.180   3.808   7.408 -0.0964  1.3183 -1.1082
   46CHL1    C1 3374   2.241   3.510   7.231  0.0052  0.3575 -0.1899
   46CHL1   H1A 3375   2.319   3.478   7.304  0.2152 -2.2367 -1.4520
   46CHL1   H1B 3376   2.178   3.421   7.208 -2.6573  2.1904 -0.4557
   46CHL1    C2 3377   2.279   3.556   7.091  0.5442 -0.1687 -0.2053
   46CHL1   H2A 3378   2.348   3.478   7.053 -0.3129 -0.2618 -1.6558
   46CHL1   H2B 3379   2.329   3.654   7.106 -0.6488  0.2359  1.4914
   46CHL1   C20 3380   1.954   3.482   7.988 -0.1748  0.9070 -0.1503
   46CHL1   H20 3381   1.930   3.586   8.018 -2.1767  0.2473  0.7028
   46CHL1   C21 3382   2.093   3.442   8.038  0.3279  1.0792  0.2106
   46CHL1  H21A 3383   2.096   3.438   8.149 -3.2448 -2.2263  0.3779
   46CHL1  H21B 3384   2.180   3.505   8.009  0.1744  1.7675  1.1990
   46CHL1  H21C 3385   2.109   3.341   7.994  0.0762  0.2089  2.0662
   46CHL1   C22 3386   1.855   3.400   8.075 -0.3827 -0.1623 -0.6348
   46CHL1  H22A 3387   1.748   3.413   8.048 -0.6976 -4.8089 -2.5420
   46CHL1  H22B 3388   1.877   3.292   8.060  0.4504 -0.0329 -0.3694
   46CHL1   C23 3389   1.848   3.429   8.221 -0.2159 -0.5354  0.9516
   46CHL1  H23A 3390   1.934   3.375   8.265  0.2415 -1.0878 -0.5607
   46CHL1  H23B 3391   1.852   3.537   8.247  0.0277 -0.7070  1.6558
   46CHL1   C24 3392   1.726   3.370   8.288 -0.2472  0.1572  0.0843
   46CHL1  H24A 3393   1.637   3.418   8.244 -2.2645 -1.8917  1.6747
   46CHL1  H24B 3394   1.733   3.264   8.257 -1.6437 -0.5268  1.9553
   46CHL1   C25 3395   1.715   3.383   8.442  1.0747 -0.2514 -0.4980
   46CHL1   H25 3396   1.811   3.340   8.477 -0.0357 -3.7251 -1.3487
   46CHL1   C26 3397   1.682   3.526   8.483  0.1806 -0.0872  0.0158
   46CHL1  H26A 3398   1.582   3.558   8.447  0.3336 -0.5678 -0.8651
   46CHL1  H26B 3399   1.690   3.523   8.594 -1.3867 -2.4453  0.1458
   46CHL1  H26C 3400   1.751   3.608   8.454  0.7920  0.0950  1.8613
   46CHL1   C27 3401   1.611   3.283   8.503  0.2973 -0.2132 -0.0106
   46CHL1  H27A 3402   1.521   3.311   8.444 -0.0978  3.1091  1.9263
   46CHL1  H27B 3403   1.658   3.184   8.482  2.1564  0.7885 -0.8696
   46CHL1  H27C 3404   1.597   3.297   8.612  0.8365  0.0453  0.0284
   47CHL1    C3 3405   1.364   3.861   6.606  0.0542 -0.1335  0.0019
   47CHL1    H3 3406   1.355   3.968   6.633  1.5522  0.4537 -1.6576
   47CHL1    O3 3407   1.375   3.847   6.464  0.1175 -0.0944  0.2349
   47CHL1   H3' 3408   1.367   3.753   6.446 -2.5623  0.1606 -0.3782
   47CHL1    C4 3409   1.484   3.804   6.667  0.1352  0.8610 -0.2512
   47CHL1   H4A 3410   1.510   3.697   6.652  0.8029  1.2374 -1.9924
   47CHL1   H4B 3411   1.570   3.863   6.629  0.3351  0.3788 -0.5549
   47CHL1    C5 3412   1.469   3.822   6.821 -0.0382 -0.5094  0.1053
   47CHL1    C6 3413   1.567   3.891   6.886  0.3693 -0.7180  0.0720
   47CHL1    H6 3414   1.653   3.935   6.836  0.1036  0.5619  0.6964
   47CHL1    C7 3415   1.571   3.900   7.039 -0.0134 -0.1438  0.3597
   47CHL1   H7A 3416   1.666   3.862   7.081  0.1715 -1.4784 -1.1358
   47CHL1   H7B 3417   1.548   4.006   7.059 -1.2131 -0.1452 -0.8366
   47CHL1    C8 3418   1.461   3.802   7.109 -0.3336  0.2328  0.2031
   47CHL1    H8 3419   1.499   3.698   7.107 -0.8295  0.0215  1.0497
   47CHL1   C14 3420   1.434   3.849   7.252  0.3115 -0.7207 -0.2029
   47CHL1   H14 3421   1.378   3.944   7.239 -0.5645 -0.8252  2.1825
   47CHL1   C15 3422   1.549   3.889   7.347 -1.0447  1.1461 -0.0759
   47CHL1  H15A 3423   1.631   3.813   7.353 -0.3397  1.9522  0.8665
   47CHL1  H15B 3424   1.599   3.987   7.332  0.3797  0.2122 -1.8600
   47CHL1   C16 3425   1.482   3.887   7.493 -0.4622  0.1638  0.9711
   47CHL1  H16A 3426   1.517   3.797   7.548  2.2094  0.4329 -0.0967
   47CHL1  H16B 3427   1.516   3.973   7.554 -1.7678  1.1036  0.4109
   47CHL1   C17 3428   1.332   3.853   7.467  0.1791  0.2627  0.2852
   47CHL1   H17 3429   1.267   3.942   7.454 -1.7884 -1.0068  0.9814
   47CHL1   C13 3430   1.331   3.765   7.334 -0.0010 -0.4327  0.7439
   47CHL1   C18 3431   1.404   3.626   7.367  0.2682 -0.0650  0.1515
   47CHL1  H18A 3432   1.497   3.629   7.429  0.0141  0.7315  0.5064
   47CHL1  H18B 3433   1.329   3.555   7.409 -1.4220  2.3279  1.4000
   47CHL1  H18C 3434   1.432   3.583   7.269  0.7141 -2.5868  1.2826
   47CHL1   C12 3435   1.198   3.745   7.251 -0.0471  0.3602  0.5548
   47CHL1  H12A 3436   1.117   3.681   7.293 -1.5383  0.9542 -1.3085
   47CHL1  H12B 3437   1.152   3.845   7.238 -1.0674 -0.0009  1.2315
   47CHL1   C11 3438   1.229   3.695   7.110  0.0360  1.2901  0.2008
   47CHL1  H11A 3439   1.277   3.596   7.126  0.1865  1.1740 -0.8782
   47CHL1  H11B 3440   1.132   3.679   7.057  0.1447  1.5702 -0.0870
   47CHL1    C9 3441   1.324   3.788   7.037 -0.7588 -0.2353  0.5845
   47CHL1    H9 3442   1.265   3.882   7.035 -1.1354 -0.4618  1.1164
   47CHL1   C10 3443   1.352   3.750   6.888  0.3934 -0.0070  0.0851
   47CHL1   C19 3444   1.370   3.595   6.873  0.8299 -0.6496  0.1970
   47CHL1  H19A 3445   1.276   3.543   6.903 -0.4032  0.6079 -1.3142
   47CHL1  H19B 3446   1.381   3.558   6.769 -0.5271 -0.3491 -0.0738
   47CHL1  H19C 3447   1.451   3.558   6.940 -1.1380 -0.4877  2.8676
   47CHL1    C1 3448   1.227   3.786   6.805 -0.5216 -0.2746  0.2628
   47CHL1   H1A 3449   1.143   3.714   6.816  1.3588 -2.7685 -0.6420
   47CHL1   H1B 3450   1.194   3.890   6.827  1.2186  0.6597 -1.2166
   47CHL1    C2 3451   1.248   3.778   6.656  0.6004  0.4692  0.1462
   47CHL1   H2A 3452   1.156   3.819   6.610  0.9048  2.2683  1.0339
   47CHL1   H2B 3453   1.273   3.672   6.632  2.1276  0.5642  1.1399
   47CHL1   C20 3454   1.255   3.783   7.590 -0.8011 -0.7406 -0.2699
   47CHL1   H20 3455   1.277   3.674   7.582  2.1169 -0.3019  0.6203
   47CHL1   C21 3456   1.106   3.805   7.576  0.0602  0.0322  0.3296
   47CHL1  H21A 3457   1.075   3.764   7.477  1.0447  2.3436 -1.0161
   47CHL1  H21B 3458   1.083   3.914   7.577  0.5077  0.1258  0.5744
   47CHL1  H21C 3459   1.043   3.765   7.658 -0.7932 -0.0242 -0.3357
   47CHL1   C22 3460   1.305   3.824   7.733  0.0663 -0.0521  0.3168
   47CHL1  H22A 3461   1.416   3.813   7.735  0.1665 -0.4557 -2.7314
   47CHL1  H22B 3462   1.261   3.924   7.749 -1.6068 -0.5482 -0.8948
   47CHL1   C23 3463   1.246   3.735   7.849 -0.1083 -0.0461 -0.0338
   47CHL1  H23A 3464   1.136   3.748   7.851 -0.2917 -0.3335 -3.3449
   47CHL1  H23B 3465   1.277   3.629   7.844 -0.5162 -0.1153 -1.3427
   47CHL1   C24 3466   1.303   3.793   7.983 -0.2648  0.2191 -0.2793
   47CHL1  H24A 3467   1.412   3.774   7.982 -0.4354 -0.8519 -0.3355
   47CHL1  H24B 3468   1.286   3.902   7.987  1.7035  0.5904 -0.9311
   47CHL1   C25 3469   1.242   3.740   8.111  0.7655  0.6880 -0.0514
   47CHL1   H25 3470   1.142   3.787   8.124  1.4325  1.8389  1.2144
   47CHL1   C26 3471   1.249   3.584   8.114 -0.0510 -0.4933  0.2752
   47CHL1  H26A 3472   1.234   3.541   8.216  0.0025  1.5522  1.1947
   47CHL1  H26B 3473   1.166   3.553   8.047 -0.1788  0.2786  0.0710
   47CHL1  H26C 3474   1.348   3.550   8.077  0.5839  1.4082  0.1272
   47CHL1   C27 3475   1.333   3.791   8.224  0.3943 -0.3565  0.4646
   47CHL1  H27A 3476   1.291   3.771   8.325  1.5716 -0.7158  0.9005
   47CHL1  H27B 3477   1.434   3.745   8.220  0.7101  0.2006 -4.6790
   47CHL1  H27C 3478   1.355   3.899   8.208 -0.1182 -0.3320 -0.0891
   48CHL1    C3 3479   4.641   6.095   6.270  0.0598  0.5429 -0.2400
   48CHL1    H3 3480   4.726   6.166   6.280  0.3085 -0.0070  2.2753
   48CHL1    O3 3481   4.615   6.082   6.133 -0.0511  0.1313 -0.0704
   48CHL1   H3' 3482   4.524   6.053   6.122  0.0813  0.0748 -1.2139
   48CHL1    C4 3483   4.696   5.958   6.313  0.2823  0.3091 -0.3615
   48CHL1   H4A 3484   4.617   5.883   6.291  2.8237 -2.4283 -0.8207
   48CHL1   H4B 3485   4.782   5.941   6.244  0.3747 -1.0810  0.0616
   48CHL1    C5 3486   4.726   5.949   6.459 -0.4346  0.0434 -0.0542
   48CHL1    C6 3487   4.845   5.908   6.502  0.3531  0.1098 -0.0266
   48CHL1    H6 3488   4.916   5.859   6.434  1.1300  0.7527  0.2898
   48CHL1    C7 3489   4.878   5.893   6.646  0.2968 -0.3438  0.1455
   48CHL1   H7A 3490   4.934   5.799   6.667 -0.7464 -0.7163  1.4118
   48CHL1   H7B 3491   4.958   5.966   6.667  0.4986 -1.1071  2.2094
   48CHL1    C8 3492   4.763   5.894   6.735  0.1198  0.6288  0.2645
   48CHL1    H8 3493   4.710   5.798   6.716 -0.5314  1.2911 -1.5519
   48CHL1   C14 3494   4.803   5.907   6.882 -0.5966 -0.2528 -1.0022
   48CHL1   H14 3495   4.875   5.991   6.878  0.3869 -0.8840  1.5250
   48CHL1   C15 3496   4.860   5.786   6.948 -0.0194  0.3539  0.6710
   48CHL1  H15A 3497   4.801   5.697   6.918 -0.5503  1.1081 -0.5852
   48CHL1  H15B 3498   4.964   5.761   6.918  0.2736 -0.4656  2.2347
   48CHL1   C16 3499   4.861   5.825   7.095 -0.5200  0.1617 -0.0603
   48CHL1  H16A 3500   4.827   5.735   7.150  1.9797 -0.2004  1.0180
   48CHL1  H16B 3501   4.960   5.863   7.127 -0.3260 -1.8403  1.9131
   48CHL1   C17 3502   4.763   5.942   7.105  0.3558 -0.4787 -0.4433
   48CHL1   H17 3503   4.825   6.034   7.096 -1.2380  0.7708  0.7101
   48CHL1   C13 3504   4.688   5.943   6.979 -0.7828 -0.0448  0.1313
   48CHL1   C18 3505   4.580   5.832   6.982 -0.6992 -0.1399  0.0144
   48CHL1  H18A 3506   4.549   5.822   6.876  1.9032 -1.3169 -0.7276
   48CHL1  H18B 3507   4.616   5.730   7.007  0.5502  0.6059  1.5200
   48CHL1  H18C 3508   4.492   5.856   7.046 -0.7276  0.3617 -0.2060
   48CHL1   C12 3509   4.631   6.080   6.942  0.2891  1.1816  0.3823
   48CHL1  H12A 3510   4.541   6.094   7.007 -1.3008 -1.2011 -1.1580
   48CHL1  H12B 3511   4.698   6.169   6.944  0.7187  0.9392 -1.3344
   48CHL1   C11 3512   4.575   6.067   6.798  0.0978  0.0933  0.6941
   48CHL1  H11A 3513   4.485   6.002   6.800  0.4193 -0.5797 -2.1508
   48CHL1  H11B 3514   4.537   6.168   6.770  0.7718  0.3018  0.5087
   48CHL1    C9 3515   4.681   6.019   6.692  0.5208  0.3259 -0.4300
   48CHL1    H9 3516   4.761   6.096   6.692  2.5157 -1.5836  2.0269
   48CHL1   C10 3517   4.622   6.008   6.554  0.0354  0.0373 -0.0174
   48CHL1   C19 3518   4.509   5.905   6.563  0.3832  0.0013  0.4265
   48CHL1  H19A 3519   4.466   5.881   6.463  0.7463 -1.5621  0.6134
   48CHL1  H19B 3520   4.545   5.807   6.600  3.9551  0.9642 -0.0254
   48CHL1  H19C 3521   4.426   5.937   6.629  1.6795  0.5289  1.8650
   48CHL1    C1 3522   4.563   6.143   6.507 -0.4922  0.1528  0.1756
   48CHL1   H1A 3523   4.478   6.176   6.569 -0.6775 -0.4862  0.2659
   48CHL1   H1B 3524   4.635   6.226   6.521  0.9205 -0.9487 -0.3013
   48CHL1    C2 3525   4.524   6.147   6.355 -1.0677  0.2108  0.4516
   48CHL1   H2A 3526   4.494   6.252   6.332  2.2008  1.7202  2.2926
   48CHL1   H2B 3527   4.436   6.081   6.343  0.3998 -1.6687 -0.6994
   48CHL1   C20 3528   4.688   5.942   7.237  0.3023 -0.4263 -0.2238
   48CHL1   H20 3529   4.599   5.878   7.225  0.8518 -1.1542 -0.4927
   48CHL1   C21 3530   4.642   6.083   7.270  0.0837 -0.3529  0.0771
   48CHL1  H21A 3531   4.568   6.087   7.353  0.1431 -0.4515  0.1356
   48CHL1  H21B 3532   4.578   6.136   7.198 -0.1959 -1.8811 -0.8423
   48CHL1  H21C 3533   4.737   6.141   7.278 -0.0193  0.1983 -2.1158
   48CHL1   C22 3534   4.758   5.877   7.361  0.5597 -0.2613  0.0126
   48CHL1  H22A 3535   4.789   5.772   7.343  2.8672  0.4777 -0.6488
   48CHL1  H22B 3536   4.849   5.940   7.373 -0.1227  0.6248  0.7349
   48CHL1   C23 3537   4.682   5.873   7.490  0.1150  0.0766  0.2596
   48CHL1  H23A 3538   4.636   5.969   7.522  1.7376  0.7565  0.6237
   48CHL1  H23B 3539   4.598   5.801   7.476  1.0452 -1.1157  0.6420
   48CHL1   C24 3540   4.759   5.811   7.603 -0.2950  0.5418  0.0301
   48CHL1  H24A 3541   4.693   5.766   7.681  0.3644 -1.8044 -0.6879
   48CHL1  H24B 3542   4.808   5.721   7.562 -1.2014  0.1855 -0.2960
   48CHL1   C25 3543   4.861   5.904   7.667  0.3537  0.3660  0.1505
   48CHL1   H25 3544   4.907   5.963   7.584 -1.8683  1.6523 -0.2319
   48CHL1   C26 3545   4.782   6.003   7.757 -0.1886 -0.1490 -0.0953
   48CHL1  H26A 3546   4.864   6.067   7.797  0.5230 -1.1667  0.1077
   48CHL1  H26B 3547   4.701   6.054   7.700  0.2031 -0.4941 -0.9868
   48CHL1  H26C 3548   4.730   5.953   7.841  0.2712 -0.5851 -0.0660
   48CHL1   C27 3549   4.955   5.827   7.746  0.0838 -0.1488  0.7250
   48CHL1  H27A 3550   4.900   5.757   7.813 -2.2544  0.1559 -0.7804
   48CHL1  H27B 3551   5.014   5.767   7.673  0.7443 -1.7779  2.5032
   48CHL1  H27C 3552   5.029   5.884   7.806 -0.8490  0.8537  0.9534
   49CHL1    C3 3553   3.260   0.571   6.656 -0.1716  0.4149 -0.3532
   49CHL1    H3 3554   3.177   0.518   6.707  0.7192 -0.6681  0.0056
   49CHL1    O3 3555   3.204   0.606   6.528 -0.3809 -0.0930 -0.2505
   49CHL1   H3' 3556   3.170   0.525   6.490 -0.9863 -0.1460  0.3994
   49CHL1    C4 3557   3.300   0.700   6.737 -0.3308  0.5816  0.5632
   49CHL1   H4A 3558   3.384   0.752   6.684 -0.3734 -0.4271 -0.5487
   49CHL1   H4B 3559   3.220   0.776   6.741  0.0078  1.1158 -1.4555
   49CHL1    C5 3560   3.342   0.661   6.876 -0.7951 -0.0463 -0.4281
   49CHL1    C6 3561   3.292   0.721   6.986  0.3869  0.7343 -0.0879
   49CHL1    H6 3562   3.225   0.808   6.984  0.6921  1.2868  4.0867
   49CHL1    C7 3563   3.338   0.691   7.127 -0.6307  0.5998 -1.1676
   49CHL1   H7A 3564   3.346   0.781   7.191 -0.0099  0.2973 -0.8160
   49CHL1   H7B 3565   3.255   0.631   7.170 -0.1687  1.1638  0.5921
   49CHL1    C8 3566   3.469   0.606   7.136  0.4706 -0.2601 -0.3126
   49CHL1    H8 3567   3.550   0.682   7.122  1.0810 -0.7639  0.3811
   49CHL1   C14 3568   3.490   0.554   7.276 -0.5090  0.3941  0.2092
   49CHL1   H14 3569   3.397   0.494   7.292 -0.9782  1.2869  0.9180
   49CHL1   C15 3570   3.509   0.662   7.387 -0.2075 -0.0962  0.2742
   49CHL1  H15A 3571   3.569   0.751   7.359 -1.7683  0.5659 -1.1161
   49CHL1  H15B 3572   3.403   0.692   7.404 -0.7627 -0.9070 -1.5130
   49CHL1   C16 3573   3.552   0.579   7.505  1.1005  0.4553  0.2956
   49CHL1  H16A 3574   3.633   0.640   7.550  2.2523 -0.7137 -0.1274
   49CHL1  H16B 3575   3.467   0.562   7.575  2.5860  0.5372  2.1718
   49CHL1   C17 3576   3.608   0.444   7.448 -0.7723  0.4442 -0.8686
   49CHL1   H17 3577   3.532   0.369   7.478  1.3775  0.3528  5.8186
   49CHL1   C13 3578   3.610   0.462   7.297 -0.4257  0.3998  0.0780
   49CHL1   C18 3579   3.739   0.541   7.258  0.0853  0.0264  0.5799
   49CHL1  H18A 3580   3.735   0.572   7.151 -1.2953 -3.3929 -0.5086
   49CHL1  H18B 3581   3.761   0.634   7.315  2.0855  2.6253 -3.8127
   49CHL1  H18C 3582   3.827   0.474   7.258 -1.5776 -2.2906 -0.1325
   49CHL1   C12 3583   3.593   0.336   7.205 -0.7485 -0.2119 -0.6470
   49CHL1  H12A 3584   3.680   0.267   7.210  0.0458  0.7761 -0.4515
   49CHL1  H12B 3585   3.510   0.272   7.241  0.1547  0.2759  2.6735
   49CHL1   C11 3586   3.587   0.387   7.061 -0.7686  0.9327 -0.3361
   49CHL1  H11A 3587   3.688   0.425   7.033 -0.2948  0.1113  0.1773
   49CHL1  H11B 3588   3.582   0.294   7.000  0.3731  0.4642  0.2332
   49CHL1    C9 3589   3.475   0.488   7.037 -0.3592  0.6638  0.8092
   49CHL1    H9 3590   3.382   0.427   7.049  0.3882 -0.7009 -0.0307
   49CHL1   C10 3591   3.449   0.541   6.887 -0.0208 -0.3615  0.3330
   49CHL1   C19 3592   3.581   0.622   6.854 -0.0236 -0.7211  0.0049
   49CHL1  H19A 3593   3.670   0.556   6.868  1.6490  1.4187  0.0742
   49CHL1  H19B 3594   3.580   0.653   6.748  1.9716 -0.1370  0.1156
   49CHL1  H19C 3595   3.589   0.703   6.929  1.7723  0.7932 -1.7060
   49CHL1    C1 3596   3.416   0.416   6.797  0.3709 -0.6542  0.3493
   49CHL1   H1A 3597   3.505   0.350   6.781  0.6184 -0.3755  0.5534
   49CHL1   H1B 3598   3.331   0.361   6.843 -1.0743  1.1288 -0.1042
   49CHL1    C2 3599   3.380   0.466   6.650 -0.0719  0.3355 -0.0479
   49CHL1   H2A 3600   3.366   0.384   6.575  1.0804  2.3970 -2.6888
   49CHL1   H2B 3601   3.468   0.516   6.604 -0.0794  0.8452  0.4845
   49CHL1   C20 3602   3.735   0.402   7.527  0.2805  0.0684  0.4721
   49CHL1   H20 3603   3.815   0.478   7.540  1.3431 -0.7959 -0.8143
   49CHL1   C21 3604   3.802   0.275   7.462 -0.2984 -0.0156 -0.2645
   49CHL1  H21A 3605   3.886   0.236   7.524 -2.4683 -3.8526  0.6486
   49CHL1  H21B 3606   3.841   0.279   7.358  0.8118 -2.5807 -0.0470
   49CHL1  H21C 3607   3.730   0.190   7.458  2.0152 -2.1692  0.7531
   49CHL1   C22 3608   3.696   0.367   7.671 -0.6464  0.7968 -0.6345
   49CHL1  H22A 3609   3.618   0.439   7.703 -3.2089 -0.9263 -2.5822
   49CHL1  H22B 3610   3.650   0.266   7.665 -1.9176  1.3770 -0.8307
   49CHL1   C23 3611   3.820   0.362   7.773  0.7824 -0.1408  0.0122
   49CHL1  H23A 3612   3.900   0.307   7.720  2.0070  2.2331 -0.7490
   49CHL1  H23B 3613   3.861   0.462   7.800  1.1060 -0.5980  1.2738
   49CHL1   C24 3614   3.781   0.289   7.906 -0.2375 -0.1916  0.7110
   49CHL1  H24A 3615   3.695   0.343   7.951 -2.7356 -1.8265 -1.8300
   49CHL1  H24B 3616   3.770   0.180   7.889 -0.3400  0.2183 -2.2633
   49CHL1   C25 3617   3.886   0.303   8.020 -0.0696 -0.0776  0.3306
   49CHL1   H25 3618   3.890   0.413   8.035  0.3883  0.3773 -2.5095
   49CHL1   C26 3619   3.850   0.228   8.156 -0.0994  0.0448  0.5780
   49CHL1  H26A 3620   3.761   0.281   8.196  0.2769  1.1183  0.0210
   49CHL1  H26B 3621   3.829   0.121   8.132  3.0930 -0.8481  1.3145
   49CHL1  H26C 3622   3.936   0.223   8.226 -0.6310 -1.3108  1.1695
   49CHL1   C27 3623   4.026   0.255   7.968  0.1598 -0.6074 -0.3580
   49CHL1  H27A 3624   4.058   0.331   7.895 -1.7049 -1.2753 -1.9552
   49CHL1  H27B 3625   4.095   0.249   8.055  0.0174 -2.8106 -0.3253
   49CHL1  H27C 3626   4.016   0.156   7.919  1.6237  0.0759 -2.1563
   50CHL1    C3 3627   4.406   1.772   6.826  0.7299 -0.3763 -0.2763
   50CHL1    H3 3628   4.353   1.861   6.865 -1.3215 -0.7718 -1.9829
   50CHL1    O3 3629   4.423   1.779   6.687 -0.1114  0.3427  0.2009
   50CHL1   H3' 3630   4.457   1.864   6.658  2.1290 -1.2102 -2.1476
   50CHL1    C4 3631   4.543   1.766   6.893  0.0037  0.1121 -0.0287
   50CHL1   H4A 3632   4.612   1.683   6.870  0.2056 -0.0621  1.1592
   50CHL1   H4B 3633   4.585   1.860   6.851 -0.4173  0.0613 -0.5771
   50CHL1    C5 3634   4.523   1.788   7.046 -0.1640 -0.6546  0.2231
   50CHL1    C6 3635   4.584   1.894   7.106  0.8004  1.0742 -0.2544
   50CHL1    H6 3636   4.638   1.967   7.045  1.1105  1.2696  0.2420
   50CHL1    C7 3637   4.576   1.927   7.250 -0.0223  0.2741  0.3700
   50CHL1   H7A 3638   4.675   1.959   7.288 -0.7839  1.4211  1.4845
   50CHL1   H7B 3639   4.510   2.016   7.260 -2.1967 -0.8685 -2.4207
   50CHL1    C8 3640   4.513   1.808   7.328 -0.8415 -0.2013 -0.3559
   50CHL1    H8 3641   4.603   1.743   7.329  0.6345  1.7365 -1.0204
   50CHL1   C14 3642   4.467   1.856   7.464 -0.1365  0.4993  1.1804
   50CHL1   H14 3643   4.380   1.921   7.437  2.0569  2.3595 -2.0078
   50CHL1   C15 3644   4.556   1.937   7.555  0.3080  0.4220 -0.2424
   50CHL1  H15A 3645   4.657   1.890   7.549  0.7720  1.5435 -2.2784
   50CHL1  H15B 3646   4.562   2.042   7.520 -1.2370  0.6699  0.1994
   50CHL1   C16 3647   4.495   1.932   7.699  0.2364  0.1363  0.3487
   50CHL1  H16A 3648   4.562   1.892   7.779  1.8093  1.7937 -0.0724
   50CHL1  H16B 3649   4.469   2.031   7.741  1.1494  0.4096  0.3129
   50CHL1   C17 3650   4.367   1.836   7.678 -0.5201  0.0923  0.4837
   50CHL1   H17 3651   4.284   1.904   7.648 -0.8607 -1.6658 -3.0239
   50CHL1   C13 3652   4.402   1.745   7.557 -0.3337 -0.0165 -0.3145
   50CHL1   C18 3653   4.514   1.643   7.609  0.4032  0.1792  0.0925
   50CHL1  H18A 3654   4.582   1.602   7.532 -1.0491 -0.4757 -0.9004
   50CHL1  H18B 3655   4.579   1.687   7.687  0.2290 -1.0540  0.9600
   50CHL1  H18C 3656   4.453   1.563   7.657  0.0268  1.0590  1.1307
   50CHL1   C12 3657   4.288   1.676   7.490  0.6329  0.2853  0.0344
   50CHL1  H12A 3658   4.254   1.590   7.550  0.9601  1.1845  1.5606
   50CHL1  H12B 3659   4.205   1.750   7.484 -2.0466 -2.2372  2.4125
   50CHL1   C11 3660   4.326   1.635   7.345  0.7262  0.0972  0.3171
   50CHL1  H11A 3661   4.388   1.544   7.360  1.3631  0.9443  3.7945
   50CHL1  H11B 3662   4.230   1.612   7.295  1.1038  1.3741 -1.0996
   50CHL1    C9 3663   4.395   1.749   7.257 -0.3153  0.3308  0.0809
   50CHL1    H9 3664   4.314   1.824   7.243  0.2414  1.1173  0.9545
   50CHL1   C10 3665   4.431   1.691   7.110 -0.3056 -0.2558  0.0780
   50CHL1   C19 3666   4.518   1.568   7.126  0.3532 -0.0339  0.4717
   50CHL1  H19A 3667   4.557   1.536   7.027  1.2308  0.5706  0.6169
   50CHL1  H19B 3668   4.612   1.595   7.178  1.0891 -0.6065 -0.5118
   50CHL1  H19C 3669   4.463   1.485   7.176 -0.3536 -0.0551 -0.3114
   50CHL1    C1 3670   4.304   1.670   7.028  0.3520 -0.1615  0.6101
   50CHL1   H1A 3671   4.252   1.576   7.056 -1.3043  0.2219 -0.9678
   50CHL1   H1B 3672   4.235   1.757   7.033 -0.3254 -0.5206 -1.4572
   50CHL1    C2 3673   4.324   1.652   6.877 -0.0855 -0.0743  0.5302
   50CHL1   H2A 3674   4.233   1.636   6.816  1.9106  0.7105 -2.8879
   50CHL1   H2B 3675   4.394   1.567   6.861 -0.1413  0.0231 -0.2434
   50CHL1   C20 3676   4.314   1.773   7.810  0.8264  0.3805  0.0670
   50CHL1   H20 3677   4.367   1.680   7.835  0.8627  0.3773 -0.0223
   50CHL1   C21 3678   4.165   1.749   7.797 -0.5509 -0.3312  0.4079
   50CHL1  H21A 3679   4.118   1.844   7.763  0.7368  0.7487  1.5196
   50CHL1  H21B 3680   4.128   1.710   7.894  1.8462  0.7211  1.8236
   50CHL1  H21C 3681   4.151   1.661   7.730  3.0249 -1.1706  0.5750
   50CHL1   C22 3682   4.330   1.864   7.931  0.5403 -0.7299 -0.4766
   50CHL1  H22A 3683   4.433   1.905   7.934 -0.2336  1.2638  1.3150
   50CHL1  H22B 3684   4.263   1.952   7.925  0.1947 -0.8147  1.4766
   50CHL1   C23 3685   4.293   1.803   8.072 -0.1437  0.3379  0.3038
   50CHL1  H23A 3686   4.183   1.796   8.081  0.0273 -1.6826  1.3504
   50CHL1  H23B 3687   4.339   1.702   8.062 -0.4038  0.4348 -2.9885
   50CHL1   C24 3688   4.349   1.886   8.185 -0.2998  0.1660 -0.1673
   50CHL1  H24A 3689   4.459   1.875   8.191 -0.3020  0.1223 -0.2071
   50CHL1  H24B 3690   4.324   1.992   8.164 -0.9269 -0.2989 -2.0310
   50CHL1   C25 3691   4.299   1.846   8.327 -0.3936 -0.3924  0.3843
   50CHL1   H25 3692   4.271   1.738   8.320  3.2379 -1.7310  3.0699
   50CHL1   C26 3693   4.420   1.838   8.428  1.0375 -0.1016  0.3710
   50CHL1  H26A 3694   4.445   1.938   8.467  1.7211  0.2883 -1.0273
   50CHL1  H26B 3695   4.392   1.771   8.512 -2.2290  0.2669 -0.2900
   50CHL1  H26C 3696   4.510   1.797   8.377  0.4108  1.8044 -2.4785
   50CHL1   C27 3697   4.193   1.936   8.366  0.5056 -0.0270 -0.7125
   50CHL1  H27A 3698   4.148   1.903   8.463 -1.5400 -0.3438 -1.7073
   50CHL1  H27B 3699   4.234   2.037   8.385  1.8521 -0.4153 -1.4631
   50CHL1  H27C 3700   4.117   1.935   8.284  2.4834  0.4204 -2.6316
   51CHL1    C3 3701   4.000   0.652   6.917  0.2688  0.1945  0.0336
   51CHL1    H3 3702   3.900   0.612   6.946 -0.5873  2.5134  0.5241
   51CHL1    O3 3703   4.020   0.635   6.775 -0.2808  0.1337  0.3849
   51CHL1   H3' 3704   4.111   0.662   6.763 -0.4327  0.8492  0.8143
   51CHL1    C4 3705   4.003   0.798   6.969  0.3834  0.2310  0.5540
   51CHL1   H4A 3706   4.101   0.834   6.929  1.6397 -2.3942  1.0521
   51CHL1   H4B 3707   3.918   0.849   6.918 -0.0120 -1.4735 -0.5706
   51CHL1    C5 3708   4.006   0.811   7.119 -0.3052 -0.4441 -0.0913
   51CHL1    C6 3709   3.916   0.883   7.181  0.8286 -0.4426  0.4170
   51CHL1    H6 3710   3.841   0.938   7.123  1.0010 -1.5779 -0.9623
   51CHL1    C7 3711   3.910   0.905   7.333  0.6441 -0.3236 -0.2611
   51CHL1   H7A 3712   3.913   1.015   7.348 -0.4561 -0.2015 -0.8124
   51CHL1   H7B 3713   3.816   0.883   7.388  1.7223  0.1767  1.8915
   51CHL1    C8 3714   4.025   0.850   7.405 -0.0192  0.4924 -0.1695
   51CHL1    H8 3715   4.110   0.920   7.391 -1.6218  2.2582 -1.4396
   51CHL1   C14 3716   3.994   0.830   7.553  0.1332 -0.5446  0.0459
   51CHL1   H14 3717   3.917   0.750   7.558 -0.0389 -0.3123  2.4376
   51CHL1   C15 3718   3.939   0.959   7.624 -0.0952  0.1591  0.2341
   51CHL1  H15A 3719   3.979   1.054   7.582 -2.3181  0.7591 -0.6779
   51CHL1  H15B 3720   3.830   0.964   7.607 -0.6090  1.2905  3.2148
   51CHL1   C16 3721   3.969   0.927   7.769  0.2521  0.8431 -1.0601
   51CHL1  H16A 3722   4.025   1.007   7.822 -1.1838  1.0206  0.2721
   51CHL1  H16B 3723   3.869   0.934   7.818  0.2592  0.7596 -1.0343
   51CHL1   C17 3724   4.053   0.790   7.774  0.4104  1.2100  0.1161
   51CHL1   H17 3725   3.978   0.708   7.783  1.9885 -0.5865 -2.1505
   51CHL1   C13 3726   4.118   0.781   7.630  0.3818  0.3588  0.6339
   51CHL1   C18 3727   4.233   0.881   7.614 -0.1455  0.3124  0.3998
   51CHL1  H18A 3728   4.195   0.979   7.649 -3.4593 -1.6165  2.7224
   51CHL1  H18B 3729   4.319   0.846   7.674  0.4890  2.2366  0.7089
   51CHL1  H18C 3730   4.266   0.892   7.508 -0.0395 -2.2110  0.1238
   51CHL1   C12 3731   4.155   0.641   7.578 -0.3096  0.6470 -0.3180
   51CHL1  H12A 3732   4.246   0.597   7.623 -0.9031 -0.8436 -0.5273
   51CHL1  H12B 3733   4.064   0.583   7.606  0.6368 -0.3267  0.8117
   51CHL1   C11 3734   4.170   0.631   7.429  0.2954  0.0074  0.3753
   51CHL1  H11A 3735   4.268   0.681   7.412 -0.1603  0.2044 -1.9701
   51CHL1  H11B 3736   4.169   0.532   7.380  0.7523  1.2026 -2.2349
   51CHL1    C9 3737   4.067   0.714   7.344  0.4971 -0.4019 -0.5899
   51CHL1    H9 3738   3.973   0.654   7.337 -0.2121  0.7667 -1.3399
   51CHL1   C10 3739   4.110   0.721   7.193  0.1876  1.2006 -0.0910
   51CHL1   C19 3740   4.249   0.787   7.175  0.1370 -0.0730 -0.7772
   51CHL1  H19A 3741   4.320   0.718   7.225 -0.1980 -0.7669 -1.2337
   51CHL1  H19B 3742   4.297   0.805   7.076 -0.6307  1.8047 -0.8500
   51CHL1  H19C 3743   4.245   0.880   7.234  0.5926  0.0135 -0.8781
   51CHL1    C1 3744   4.116   0.575   7.134 -0.3616  0.4266  0.8549
   51CHL1   H1A 3745   4.212   0.528   7.165  0.0584  2.3256  2.6671
   51CHL1   H1B 3746   4.030   0.520   7.178  0.0578  0.6336  1.9615
   51CHL1    C2 3747   4.111   0.564   6.982  0.1845 -0.3866  0.0288
   51CHL1   H2A 3748   4.105   0.460   6.943  0.0767  0.1960 -1.5704
   51CHL1   H2B 3749   4.209   0.603   6.947  1.1407 -0.6729  2.1833
   51CHL1   C20 3750   4.157   0.770   7.891  0.2429 -0.4545  0.1419
   51CHL1   H20 3751   4.259   0.808   7.869  0.3885 -0.7492  0.3092
   51CHL1   C21 3752   4.172   0.629   7.924  0.6487  0.1985  0.2158
   51CHL1  H21A 3753   4.088   0.598   7.991 -1.1186  0.0084 -1.9884
   51CHL1  H21B 3754   4.268   0.607   7.977  0.4314 -0.5399  0.3191
   51CHL1  H21C 3755   4.169   0.566   7.832 -1.7396 -0.3030  0.5850
   51CHL1   C22 3756   4.117   0.848   8.021  0.2136 -0.5816 -0.0069
   51CHL1  H22A 3757   4.140   0.955   8.004  0.7190 -0.7999 -0.7483
   51CHL1  H22B 3758   4.009   0.839   8.045  0.4509 -1.7966  0.6997
   51CHL1   C23 3759   4.197   0.815   8.144 -0.1523 -0.1817  0.5071
   51CHL1  H23A 3760   4.146   0.886   8.213  1.7159  0.8970  0.8372
   51CHL1  H23B 3761   4.184   0.717   8.195 -1.1396  0.8978  2.4512
   51CHL1   C24 3762   4.342   0.850   8.120 -0.1111 -0.3094 -0.1354
   51CHL1  H24A 3763   4.393   0.781   8.049 -1.2839 -1.9369  0.5188
   51CHL1  H24B 3764   4.343   0.957   8.093 -3.2510  0.0871  0.8707
   51CHL1   C25 3765   4.428   0.842   8.250  0.3244 -0.0521 -0.4744
   51CHL1   H25 3766   4.367   0.906   8.318 -2.6285 -0.1871 -2.8163
   51CHL1   C26 3767   4.422   0.700   8.316  0.4910 -0.8107  0.2572
   51CHL1  H26A 3768   4.462   0.635   8.236  2.3156  3.4232 -2.6867
   51CHL1  H26B 3769   4.494   0.707   8.401 -1.9399  0.7855  2.3576
   51CHL1  H26C 3770   4.319   0.684   8.354  0.2919 -0.2554 -0.0322
   51CHL1   C27 3771   4.567   0.905   8.241  0.4572 -0.4409 -0.3407
   51CHL1  H27A 3772   4.631   0.834   8.184  1.3550  1.2557 -1.5141
   51CHL1  H27B 3773   4.561   0.999   8.183  0.1724 -0.7535 -0.8279
   51CHL1  H27C 3774   4.613   0.939   8.336  1.2178 -1.4237 -0.3411
   52CHL1    C3 3775   6.365   1.818   6.961  0.9926  0.2934  0.0535
   52CHL1    H3 3776   6.292   1.737   6.978  1.7735 -0.3058  0.6186
   52CHL1    O3 3777   6.377   1.825   6.819  0.5469 -0.6397  0.4830
   52CHL1   H3' 3778   6.444   1.892   6.806  1.4315 -1.8352 -1.6617
   52CHL1    C4 3779   6.329   1.957   7.011 -0.0093  0.1676 -0.0530
   52CHL1   H4A 3780   6.413   2.027   6.994  0.7403 -1.0146 -1.4497
   52CHL1   H4B 3781   6.235   1.993   6.963  1.6858  3.1393 -1.4018
   52CHL1    C5 3782   6.310   1.948   7.163 -0.0715 -0.1414 -0.4214
   52CHL1    C6 3783   6.196   1.978   7.229  0.0684  0.1910 -0.3643
   52CHL1    H6 3784   6.118   2.020   7.165 -0.1872 -0.0287 -0.1983
   52CHL1    C7 3785   6.169   1.967   7.380  0.1198 -0.2748  0.9609
   52CHL1   H7A 3786   6.133   2.058   7.433 -0.2498  0.3604 -0.3335
   52CHL1   H7B 3787   6.094   1.885   7.391 -1.0273  0.7129  0.7183
   52CHL1    C8 3788   6.293   1.917   7.456 -0.1922  0.0746  0.3002
   52CHL1    H8 3789   6.355   2.005   7.484  0.8037 -1.1723  2.2821
   52CHL1   C14 3790   6.260   1.840   7.588 -0.6796  0.0367  1.3042
   52CHL1   H14 3791   6.220   1.739   7.563 -0.6766  0.2591  0.3770
   52CHL1   C15 3792   6.151   1.887   7.679 -0.4723  0.7231  0.1153
   52CHL1  H15A 3793   6.150   1.997   7.691 -0.5186  0.8925 -1.3213
   52CHL1  H15B 3794   6.053   1.855   7.637 -0.8718  0.2986  1.3257
   52CHL1   C16 3795   6.180   1.811   7.808 -0.3304  0.9632  0.3371
   52CHL1  H16A 3796   6.189   1.885   7.891 -1.6002  2.0475 -0.4691
   52CHL1  H16B 3797   6.089   1.754   7.834 -0.5532  0.7305 -0.9161
   52CHL1   C17 3798   6.314   1.736   7.788  0.1224 -0.4097  1.1053
   52CHL1   H17 3799   6.288   1.632   7.760  1.9104 -0.4011 -0.7853
   52CHL1   C13 3800   6.385   1.803   7.668  0.0841  0.2015 -0.0113
   52CHL1   C18 3801   6.463   1.931   7.725  0.1624  0.0732  0.1567
   52CHL1  H18A 3802   6.550   1.885   7.775  0.8971  0.9434 -0.2921
   52CHL1  H18B 3803   6.502   2.004   7.651  0.4003  0.4688  0.6645
   52CHL1  H18C 3804   6.404   1.991   7.798  0.6227  0.0553  0.5463
   52CHL1   C12 3805   6.479   1.710   7.585  1.0895  0.4160  0.3867
   52CHL1  H12A 3806   6.567   1.681   7.646 -0.0628  0.2686  2.0441
   52CHL1  H12B 3807   6.423   1.617   7.562  1.0439  0.4824  0.2262
   52CHL1   C11 3808   6.517   1.783   7.454  0.1384 -0.1962  0.8089
   52CHL1  H11A 3809   6.592   1.862   7.477 -0.5518  0.4092  0.9931
   52CHL1  H11B 3810   6.582   1.713   7.397 -1.0607 -1.3786  0.8536
   52CHL1    C9 3811   6.391   1.826   7.373 -0.3554  0.2868 -0.6002
   52CHL1    H9 3812   6.321   1.742   7.353 -1.3040  1.0525 -0.6284
   52CHL1   C10 3813   6.433   1.876   7.233  0.6344 -0.1672  0.0933
   52CHL1   C19 3814   6.544   1.977   7.245 -0.2522  0.4748  0.5294
   52CHL1  H19A 3815   6.589   2.006   7.148 -1.4677 -0.4533 -0.3406
   52CHL1  H19B 3816   6.524   2.069   7.304  0.1437 -0.4010  2.0837
   52CHL1  H19C 3817   6.638   1.934   7.284  0.6522  1.2953 -0.6779
   52CHL1    C1 3818   6.482   1.742   7.156 -0.4142 -0.4842  0.7047
   52CHL1   H1A 3819   6.579   1.713   7.202  0.3691  2.9331  1.4314
   52CHL1   H1B 3820   6.406   1.662   7.168 -0.2395 -0.4904  1.8405
   52CHL1    C2 3821   6.499   1.770   7.006  0.1099  0.3756 -0.2847
   52CHL1   H2A 3822   6.527   1.669   6.967 -2.2975 -0.6487  0.4442
   52CHL1   H2B 3823   6.581   1.839   6.978 -0.7812  1.2305 -0.8160
   52CHL1   C20 3824   6.387   1.716   7.922  0.2721 -0.2823 -0.2380
   52CHL1   H20 3825   6.435   1.807   7.965  1.4473 -1.5998  1.3492
   52CHL1   C21 3826   6.502   1.615   7.899 -0.0105  0.0883 -0.2920
   52CHL1  H21A 3827   6.551   1.587   7.995 -0.2163  0.0861 -0.1850
   52CHL1  H21B 3828   6.580   1.650   7.829 -1.3754  0.7228 -1.5414
   52CHL1  H21C 3829   6.456   1.520   7.862 -2.7437  0.8729  0.7990
   52CHL1   C22 3830   6.298   1.658   8.039 -0.2787 -0.4198 -0.2738
   52CHL1  H22A 3831   6.212   1.722   8.067  0.6813  0.6705  0.2819
   52CHL1  H22B 3832   6.273   1.555   8.008 -1.1213 -0.9128  1.8461
   52CHL1   C23 3833   6.387   1.643   8.170 -0.0693 -0.7212 -0.0238
   52CHL1  H23A 3834   6.454   1.555   8.163  3.1805  1.1687  3.5116
   52CHL1  H23B 3835   6.450   1.733   8.184  1.3457 -1.5460 -0.8576
   52CHL1   C24 3836   6.302   1.628   8.295 -0.1391 -0.0627  0.0507
   52CHL1  H24A 3837   6.265   1.732   8.306  0.6626  0.0950  1.4772
   52CHL1  H24B 3838   6.228   1.552   8.261  1.3459 -1.7413  0.4176
   52CHL1   C25 3839   6.379   1.605   8.427  0.6646 -0.1794  0.5470
   52CHL1   H25 3840   6.468   1.671   8.428 -0.4112  1.3676  2.6363
   52CHL1   C26 3841   6.301   1.634   8.551  0.2691 -0.7011 -0.2727
   52CHL1  H26A 3842   6.264   1.736   8.575  1.2899 -0.4241  0.2063
   52CHL1  H26B 3843   6.217   1.562   8.558  0.1639 -0.6062 -0.5665
   52CHL1  H26C 3844   6.367   1.602   8.635  1.8351 -2.4634 -2.0487
   52CHL1   C27 3845   6.425   1.459   8.439  0.4088 -0.3248  0.8574
   52CHL1  H27A 3846   6.473   1.445   8.539  1.2740  1.7071  0.7813
   52CHL1  H27B 3847   6.337   1.392   8.434  0.1184  0.0424  1.0500
   52CHL1  H27C 3848   6.496   1.433   8.357  0.2771  0.4508  0.4932
   53CHL1    C3 3849   2.255   5.282   7.071  0.0675 -0.3549 -0.0886
   53CHL1    H3 3850   2.252   5.387   7.036  0.8928  0.7765  2.9159
   53CHL1    O3 3851   2.253   5.196   6.958  0.8436 -0.1672 -0.1296
   53CHL1   H3' 3852   2.248   5.252   6.881  2.8720  0.0286 -0.1607
   53CHL1    C4 3853   2.368   5.249   7.169  0.5136 -0.2016 -0.2350
   53CHL1   H4A 3854   2.387   5.140   7.173  1.6924 -0.1404 -2.5614
   53CHL1   H4B 3855   2.461   5.283   7.119 -1.7837  2.2671 -3.2589
   53CHL1    C5 3856   2.359   5.290   7.314  0.6437 -0.6462  0.7769
   53CHL1    C6 3857   2.456   5.358   7.371 -0.5736 -0.6883 -0.6175
   53CHL1    H6 3858   2.548   5.375   7.314 -0.0766  2.1811  0.8933
   53CHL1    C7 3859   2.450   5.399   7.519  0.0865  0.6194 -0.4504
   53CHL1   H7A 3860   2.549   5.380   7.565  0.0738 -0.9501 -1.0080
   53CHL1   H7B 3861   2.424   5.507   7.527 -0.2391  0.8504 -3.4123
   53CHL1    C8 3862   2.347   5.317   7.597 -0.3081 -0.2921  0.0957
   53CHL1    H8 3863   2.391   5.217   7.619  1.0118  0.5266  1.4087
   53CHL1   C14 3864   2.320   5.374   7.736  0.2702  0.8068  0.2496
   53CHL1   H14 3865   2.272   5.474   7.727  0.9500  1.3110  1.8280
   53CHL1   C15 3866   2.443   5.417   7.819  0.2222 -0.0657 -0.2372
   53CHL1  H15A 3867   2.510   5.330   7.800 -1.9020 -1.5464 -1.4752
   53CHL1  H15B 3868   2.485   5.514   7.786  1.5608 -0.7902 -0.7375
   53CHL1   C16 3869   2.398   5.412   7.964 -0.0016  0.0957 -0.0802
   53CHL1  H16A 3870   2.451   5.333   8.021 -2.5050  1.0915  4.1101
   53CHL1  H16B 3871   2.420   5.508   8.016  1.6430  0.3804 -1.2284
   53CHL1   C17 3872   2.241   5.389   7.962  0.8922 -0.1055  0.6514
   53CHL1   H17 3873   2.195   5.484   7.929 -1.1688 -1.6690 -1.2969
   53CHL1   C13 3874   2.218   5.304   7.830  0.1891 -0.4955  0.4547
   53CHL1   C18 3875   2.269   5.164   7.850  0.1139 -0.0636  0.2967
   53CHL1  H18A 3876   2.261   5.098   7.762  1.6240 -1.9749  1.5030
   53CHL1  H18B 3877   2.376   5.168   7.882 -0.0156  1.1303  0.6310
   53CHL1  H18C 3878   2.222   5.110   7.935  0.2369  0.1789  0.5241
   53CHL1   C12 3879   2.081   5.312   7.746  0.4649 -0.1604 -0.4653
   53CHL1  H12A 3880   2.005   5.253   7.801 -0.0122 -0.6609 -1.6185
   53CHL1  H12B 3881   2.044   5.417   7.741 -2.0899 -0.9787 -0.2268
   53CHL1   C11 3882   2.093   5.242   7.602  0.7887 -0.1821  0.2883
   53CHL1  H11A 3883   2.108   5.137   7.633 -0.1566  0.4911  3.4785
   53CHL1  H11B 3884   1.994   5.243   7.550  1.9432 -1.6198 -2.1097
   53CHL1    C9 3885   2.215   5.307   7.520  0.3298  0.4534 -1.1243
   53CHL1    H9 3886   2.182   5.411   7.502  0.1502  0.6434  0.1658
   53CHL1   C10 3887   2.225   5.249   7.378  0.3850  0.7884  0.3961
   53CHL1   C19 3888   2.223   5.093   7.386  0.1089 -0.5336  0.7575
   53CHL1  H19A 3889   2.116   5.063   7.387 -0.7586  2.1855  0.0025
   53CHL1  H19B 3890   2.264   5.044   7.296 -2.6747 -2.6948  0.5369
   53CHL1  H19C 3891   2.269   5.045   7.475 -0.9407 -2.2299  0.4185
   53CHL1    C1 3892   2.116   5.313   7.286  0.0423  0.4554 -0.5166
   53CHL1   H1A 3893   2.019   5.283   7.332  1.3708 -3.5138  0.0956
   53CHL1   H1B 3894   2.118   5.423   7.297 -2.0962  0.5754 -0.8920
   53CHL1    C2 3895   2.116   5.257   7.144 -0.5583  0.3134 -0.3255
   53CHL1   H2A 3896   2.054   5.321   7.078  0.4569  0.9514 -0.6881
   53CHL1   H2B 3897   2.085   5.151   7.142 -0.3480  0.1851  1.4748
   53CHL1   C20 3898   2.183   5.338   8.093  0.2214 -0.1454  0.4999
   53CHL1   H20 3899   2.201   5.228   8.096  1.1013 -0.0510 -0.6185
   53CHL1   C21 3900   2.030   5.330   8.076  0.0223 -0.4994  0.3951
   53CHL1  H21A 3901   1.981   5.426   8.047 -0.6698 -0.6325  1.0855
   53CHL1  H21B 3902   1.980   5.295   8.168  0.7695 -2.2467  0.1661
   53CHL1  H21C 3903   1.996   5.246   8.012 -1.8503  0.2114  0.3783
   53CHL1   C22 3904   2.247   5.399   8.222 -0.0823  0.1577  0.4916
   53CHL1  H22A 3905   2.358   5.399   8.227 -0.0021  0.8206 -0.8607
   53CHL1  H22B 3906   2.229   5.508   8.217  0.5790  0.3464  1.7655
   53CHL1   C23 3907   2.190   5.338   8.351 -0.4159  0.3156 -0.4634
   53CHL1  H23A 3908   2.250   5.362   8.441 -0.2766 -1.7113  0.0443
   53CHL1  H23B 3909   2.084   5.364   8.371 -1.1461 -1.6933 -1.3607
   53CHL1   C24 3910   2.207   5.182   8.358 -0.6199 -0.6951  0.1156
   53CHL1  H24A 3911   2.109   5.150   8.316  0.2126 -1.3196 -1.4032
   53CHL1  H24B 3912   2.293   5.146   8.298  1.5588  2.6053  0.9365
   53CHL1   C25 3913   2.212   5.134   8.501  0.2699  0.5376 -0.0870
   53CHL1   H25 3914   2.297   5.190   8.547 -0.7764  1.1756  1.1361
   53CHL1   C26 3915   2.077   5.159   8.567 -0.2951  0.5051 -0.0648
   53CHL1  H26A 3916   2.063   5.269   8.559 -0.5100  0.4108 -1.2086
   53CHL1  H26B 3917   1.996   5.101   8.517 -1.1103  0.6617  1.0319
   53CHL1  H26C 3918   2.091   5.131   8.673 -0.0796 -0.1972 -0.2715
   53CHL1   C27 3919   2.254   4.982   8.506 -0.1004  0.9323  0.6327
   53CHL1  H27A 3920   2.173   4.931   8.450  0.8015  1.2832 -1.0663
   53CHL1  H27B 3921   2.353   4.975   8.456 -1.0009 -1.9068 -0.9759
   53CHL1  H27C 3922   2.267   4.939   8.607 -2.4018  0.3981  0.7415
   54CHL1    C3 3923   2.452   0.108   6.966 -0.5668 -0.3449  0.7567
   54CHL1    H3 3924   2.357   0.067   7.007 -0.3978 -0.6982  0.8031
   54CHL1    O3 3925   2.435   0.154   6.833  0.2409  0.1968  0.9331
   54CHL1   H3' 3926   2.527   0.174   6.814 -0.1570  2.1590  0.7875
   54CHL1    C4 3927   2.509   0.232   7.045 -0.2517  0.0434 -0.3283
   54CHL1   H4A 3928   2.595   0.286   7.000 -0.8018  2.1029  0.9854
   54CHL1   H4B 3929   2.427   0.306   7.037 -1.9871 -1.0545  4.1905
   54CHL1    C5 3930   2.539   0.198   7.188  0.6710  0.1999  0.5321
   54CHL1    C6 3931   2.492   0.263   7.294  0.3990 -0.0864  0.5230
   54CHL1    H6 3932   2.431   0.354   7.282  1.4569  0.4046 -1.9145
   54CHL1    C7 3933   2.528   0.224   7.436 -0.3685 -0.1575  0.1455
   54CHL1   H7A 3934   2.544   0.311   7.503 -1.2416 -0.5498  0.8668
   54CHL1   H7B 3935   2.433   0.183   7.475 -0.6006  0.1018 -0.1405
   54CHL1    C8 3936   2.648   0.123   7.441 -0.0266 -0.0209 -0.2711
   54CHL1    H8 3937   2.736   0.190   7.431 -0.3997  0.3171 -1.4212
   54CHL1   C14 3938   2.661   0.068   7.583  0.2387  0.0034  0.1669
   54CHL1   H14 3939   2.562   0.020   7.594 -0.3906  0.8209 -1.5975
   54CHL1   C15 3940   2.658   0.171   7.695 -0.2181  0.3164 -0.4327
   54CHL1  H15A 3941   2.737   0.246   7.674 -0.0923  0.5722  0.8803
   54CHL1  H15B 3942   2.556   0.216   7.701 -0.7673 -0.9958  0.5427
   54CHL1   C16 3943   2.687   0.085   7.820 -0.2591  0.8021  0.1467
   54CHL1  H16A 3944   2.773   0.133   7.870  0.9283 -0.8480 -0.2349
   54CHL1  H16B 3945   2.598   0.071   7.885 -0.5958  1.7684 -0.0848
   54CHL1   C17 3946   2.736  -0.047   7.762  0.3376 -0.2831  0.8142
   54CHL1   H17 3947   2.646  -0.112   7.755 -0.0525  0.2841  0.5217
   54CHL1   C13 3948   2.766  -0.024   7.617 -0.3736 -0.1233  0.1219
   54CHL1   C18 3949   2.901   0.040   7.594 -0.4326 -0.3117 -0.4250
   54CHL1  H18A 3950   2.906   0.084   7.492 -0.9780 -0.5589 -0.5604
   54CHL1  H18B 3951   2.925   0.113   7.674  0.2668 -0.2756 -0.6635
   54CHL1  H18C 3952   2.981  -0.037   7.590  3.0295  2.9037  0.5188
   54CHL1   C12 3953   2.752  -0.139   7.512  0.1321 -0.4389  0.1024
   54CHL1  H12A 3954   2.816  -0.228   7.528  1.9041  0.6692 -0.5267
   54CHL1  H12B 3955   2.656  -0.196   7.521  0.1281 -0.3512  0.6201
   54CHL1   C11 3956   2.751  -0.091   7.364 -0.0928 -0.0594  0.4352
   54CHL1  H11A 3957   2.853  -0.052   7.343  0.4309 -1.0638  1.0446
   54CHL1  H11B 3958   2.727  -0.174   7.294 -2.4011 -0.2248  1.3274
   54CHL1    C9 3959   2.640   0.013   7.345  0.3914 -0.8100  0.7245
   54CHL1    H9 3960   2.545  -0.044   7.352  1.0081 -1.9231  0.2867
   54CHL1   C10 3961   2.630   0.075   7.204 -0.2835 -0.1413 -0.1742
   54CHL1   C19 3962   2.769   0.123   7.162  0.3476  0.5053  0.2444
   54CHL1  H19A 3963   2.817   0.190   7.236 -3.4883  4.8387 -0.7446
   54CHL1  H19B 3964   2.833   0.033   7.151 -0.0652 -0.0525  2.0640
   54CHL1  H19C 3965   2.779   0.183   7.069 -0.1915 -1.3397 -1.0742
   54CHL1    C1 3966   2.576  -0.047   7.116  0.0816 -0.3259 -0.9260
   54CHL1   H1A 3967   2.644  -0.134   7.130  0.8148  0.3752  0.0085
   54CHL1   H1B 3968   2.474  -0.072   7.152  0.5540 -0.9387  0.0334
   54CHL1    C2 3969   2.553  -0.009   6.971 -0.2143 -0.3700  0.1773
   54CHL1   H2A 3970   2.522  -0.097   6.910  1.3483  0.0809 -1.3553
   54CHL1   H2B 3971   2.652   0.025   6.934 -0.8167  1.6344  0.3110
   54CHL1   C20 3972   2.835  -0.118   7.848 -0.8971  0.0322  0.0024
   54CHL1   H20 3973   2.930  -0.060   7.847 -0.0433 -1.2982 -1.8559
   54CHL1   C21 3974   2.882  -0.258   7.793  0.5295  0.1137  0.2822
   54CHL1  H21A 3975   2.791  -0.317   7.768 -1.1777  1.8075  2.1546
   54CHL1  H21B 3976   2.940  -0.306   7.875  1.9554  1.2745 -0.0083
   54CHL1  H21C 3977   2.951  -0.254   7.705  0.9914  0.9269  0.6736
   54CHL1   C22 3978   2.788  -0.126   7.994  0.2282 -0.1052  0.6720
   54CHL1  H22A 3979   2.725  -0.043   8.032 -1.9748 -0.7242 -1.3650
   54CHL1  H22B 3980   2.719  -0.213   7.990  0.1216 -0.0223  0.7168
   54CHL1   C23 3981   2.915  -0.148   8.085  0.0101  0.1136 -0.1208
   54CHL1  H23A 3982   2.948  -0.254   8.078  0.2647  0.1849 -0.0121
   54CHL1  H23B 3983   2.992  -0.071   8.062  0.5199  0.0323  1.2130
   54CHL1   C24 3984   2.876  -0.117   8.235 -0.2964  0.2465  1.1846
   54CHL1  H24A 3985   2.842  -0.011   8.237  2.0689  1.0679  1.7054
   54CHL1  H24B 3986   2.798  -0.192   8.258 -0.1864 -0.2158  0.1419
   54CHL1   C25 3987   2.984  -0.149   8.343  0.6556 -0.0068  0.4319
   54CHL1   H25 3988   2.990  -0.260   8.338 -1.4926 -0.0965 -2.0954
   54CHL1   C26 3989   3.121  -0.100   8.314 -0.5169 -0.5967 -0.0978
   54CHL1  H26A 3990   3.122   0.011   8.320 -1.9775 -0.4022 -2.1928
   54CHL1  H26B 3991   3.190  -0.138   8.392 -1.2453 -0.2060  0.7587
   54CHL1  H26C 3992   3.163  -0.127   8.214  0.4481 -0.3001  0.2173
   54CHL1   C27 3993   2.939  -0.096   8.483  0.5087 -0.4891  0.0621
   54CHL1  H27A 3994   2.854  -0.158   8.519  1.7682 -0.6991  2.9303
   54CHL1  H27B 3995   3.010  -0.097   8.569  0.5278 -1.3483  0.0414
   54CHL1  H27C 3996   2.895   0.006   8.475 -1.2249 -0.8797  2.9604
   55CHL1    C3 3997   2.231   1.848   7.024  0.0163  0.7843  0.3632
   55CHL1    H3 3998   2.324   1.909   7.023  0.6435  0.1356 -3.9981
   55CHL1    O3 3999   2.188   1.842   6.885  0.2055  0.2073 -0.1699
   55CHL1   H3' 4000   2.105   1.794   6.885 -0.1248  0.7415  1.0476
   55CHL1    C4 4001   2.254   1.712   7.071  0.1098  0.0975 -0.6074
   55CHL1   H4A 4002   2.162   1.650   7.058 -0.5791  1.1086 -0.6322
   55CHL1   H4B 4003   2.333   1.655   7.016  0.1276 -0.7177  0.2353
   55CHL1    C5 4004   2.281   1.704   7.218 -0.4406  0.7177  0.2909
   55CHL1    C6 4005   2.391   1.638   7.255 -0.2408  0.2611  0.4817
   55CHL1    H6 4006   2.453   1.580   7.184 -0.3352  1.5407 -0.6962
   55CHL1    C7 4007   2.432   1.611   7.401  0.7887 -0.6387 -0.0746
   55CHL1   H7A 4008   2.454   1.505   7.429  1.5694  0.0375  2.0270
   55CHL1   H7B 4009   2.518   1.671   7.436 -0.6192  1.9368 -0.8004
   55CHL1    C8 4010   2.313   1.662   7.500 -0.1484  0.2595 -0.5174
   55CHL1    H8 4011   2.239   1.580   7.493  0.8494 -0.5185 -2.6791
   55CHL1   C14 4012   2.363   1.672   7.644  0.3744  0.1197  0.2582
   55CHL1   H14 4013   2.447   1.744   7.632  0.4602  0.0434  0.3946
   55CHL1   C15 4014   2.438   1.550   7.707  0.3756 -0.6758 -0.0275
   55CHL1  H15A 4015   2.374   1.462   7.685  2.2567 -1.4931 -2.6996
   55CHL1  H15B 4016   2.540   1.535   7.666  0.7643  2.8207 -0.6745
   55CHL1   C16 4017   2.436   1.582   7.861  0.3183  0.4458  0.4530
   55CHL1  H16A 4018   2.393   1.496   7.916  1.4945  0.4452  1.4066
   55CHL1  H16B 4019   2.544   1.586   7.886  0.8944  0.0144 -1.7447
   55CHL1   C17 4020   2.355   1.716   7.879  0.2225 -0.6280 -0.6616
   55CHL1   H17 4021   2.430   1.798   7.880 -1.7264  1.3250  2.4889
   55CHL1   C13 4022   2.266   1.727   7.746 -0.1324 -0.9017 -1.2982
   55CHL1   C18 4023   2.148   1.634   7.758  0.7723 -0.3490 -0.1216
   55CHL1  H18A 4024   2.098   1.598   7.665  0.7451 -3.9129  1.1048
   55CHL1  H18B 4025   2.189   1.543   7.807 -0.9994 -1.7472 -1.1135
   55CHL1  H18C 4026   2.076   1.691   7.820  1.8316  0.9179 -0.0209
   55CHL1   C12 4027   2.215   1.869   7.701 -0.1237  0.0898  0.1834
   55CHL1  H12A 4028   2.134   1.900   7.770  0.8408  1.8778  0.5689
   55CHL1  H12B 4029   2.304   1.935   7.708 -1.2516  1.5141  2.7875
   55CHL1   C11 4030   2.159   1.869   7.562 -0.7980 -0.1934  0.3403
   55CHL1  H11A 4031   2.059   1.821   7.568 -1.4753  1.2638  1.2919
   55CHL1  H11B 4032   2.149   1.972   7.521  1.1208  0.4962  1.4873
   55CHL1    C9 4033   2.252   1.796   7.453 -0.2881 -0.2574  0.2102
   55CHL1    H9 4034   2.335   1.867   7.433 -1.7674  1.4946  0.0018
   55CHL1   C10 4035   2.187   1.776   7.313 -0.1938 -0.5429 -0.2197
   55CHL1   C19 4036   2.049   1.711   7.325  0.0190  0.1508 -0.6335
   55CHL1  H19A 4037   1.975   1.790   7.350 -0.6181 -0.2993 -1.0430
   55CHL1  H19B 4038   2.011   1.679   7.226 -1.5512 -1.5093  0.4374
   55CHL1  H19C 4039   2.044   1.617   7.385 -0.9877 -0.0626 -1.0246
   55CHL1    C1 4040   2.166   1.922   7.246  0.0621  0.9163 -0.0513
   55CHL1   H1A 4041   2.078   1.970   7.295 -0.6234 -1.2388  0.9496
   55CHL1   H1B 4042   2.259   1.981   7.255  1.0998 -0.5196 -1.0595
   55CHL1    C2 4043   2.129   1.923   7.105 -0.6480 -0.5034 -0.3484
   55CHL1   H2A 4044   2.152   2.027   7.074  1.5274 -1.0638 -0.7930
   55CHL1   H2B 4045   2.026   1.888   7.086 -1.0359  0.9088 -0.9711
   55CHL1   C20 4046   2.286   1.719   8.021 -1.1882  0.5190 -0.2649
   55CHL1   H20 4047   2.225   1.626   8.020  0.4324 -0.6597 -3.0252
   55CHL1   C21 4048   2.195   1.842   8.029 -0.3309  0.2157  0.4708
   55CHL1  H21A 4049   2.160   1.861   8.133 -0.3142  0.8404  0.3667
   55CHL1  H21B 4050   2.110   1.825   7.960  0.7592 -0.8270 -0.6525
   55CHL1  H21C 4051   2.251   1.933   7.998  1.2523 -0.8852 -0.0456
   55CHL1   C22 4052   2.388   1.703   8.141 -0.5274 -0.3011  0.4384
   55CHL1  H22A 4053   2.458   1.618   8.125  0.4375  0.0540  2.5449
   55CHL1  H22B 4054   2.450   1.793   8.160 -1.4685  0.8928 -1.7951
   55CHL1   C23 4055   2.310   1.694   8.278 -0.3712  0.8707  0.3890
   55CHL1  H23A 4056   2.252   1.787   8.296 -4.4084 -1.0593 -1.4144
   55CHL1  H23B 4057   2.241   1.612   8.252  0.7842  0.5036 -1.8043
   55CHL1   C24 4058   2.400   1.653   8.397  0.0938 -0.1824  0.2342
   55CHL1  H24A 4059   2.444   1.553   8.377 -1.4107 -0.6782 -0.7651
   55CHL1  H24B 4060   2.487   1.720   8.419  1.5683 -2.0230  0.2922
   55CHL1   C25 4061   2.324   1.636   8.536  0.2632  0.3884  1.0469
   55CHL1   H25 4062   2.250   1.554   8.531  2.4519 -1.7390  1.9571
   55CHL1   C26 4063   2.427   1.592   8.641 -0.5376  0.4812 -0.8571
   55CHL1  H26A 4064   2.503   1.520   8.603  0.4732  1.0381  0.0476
   55CHL1  H26B 4065   2.489   1.677   8.679  1.4130 -1.5287  0.6976
   55CHL1  H26C 4066   2.376   1.536   8.722 -1.8643  0.9412 -1.3336
   55CHL1   C27 4067   2.258   1.764   8.584  0.6786 -0.7936 -0.3928
   55CHL1  H27A 4068   2.218   1.751   8.686  2.6010 -1.1795  0.3471
   55CHL1  H27B 4069   2.321   1.855   8.579 -0.2827 -0.0703  0.3343
   55CHL1  H27C 4070   2.182   1.801   8.511  2.6776  1.4779 -1.4741
   56CHL1    C3 4071   1.453   6.422   6.941 -0.7426 -0.6911  0.1260
   56CHL1    H3 4072   1.361   6.483   6.949 -0.9488 -0.9734 -0.0574
   56CHL1    O3 4073   1.450   6.353   6.815  0.0082 -0.1913 -0.0980
   56CHL1   H3' 4074   1.537   6.311   6.808 -0.3021 -0.8842  0.1373
   56CHL1    C4 4075   1.582   6.507   6.940  0.3768 -0.3483  0.3005
   56CHL1   H4A 4076   1.669   6.440   6.921 -0.0151 -0.1482 -2.8225
   56CHL1   H4B 4077   1.595   6.581   6.858  1.3313 -0.7846  0.0358
   56CHL1    C5 4078   1.591   6.574   7.079 -1.2511  0.8015  0.7059
   56CHL1    C6 4079   1.593   6.705   7.093  0.8363 -0.1509  0.8504
   56CHL1    H6 4080   1.591   6.751   6.994  1.4121 -0.1319  0.8442
   56CHL1    C7 4081   1.613   6.785   7.209  0.5073 -0.2021  0.1194
   56CHL1   H7A 4082   1.674   6.876   7.190  1.3932 -1.3654 -3.4972
   56CHL1   H7B 4083   1.512   6.825   7.232  0.4711  0.3633 -0.9478
   56CHL1    C8 4084   1.655   6.694   7.326 -0.0872  0.4369 -0.5901
   56CHL1    H8 4085   1.764   6.678   7.315  0.0615 -1.3725  2.3680
   56CHL1   C14 4086   1.630   6.762   7.462  0.1094 -0.0173  1.2354
   56CHL1   H14 4087   1.524   6.763   7.494  0.3205  0.4747  1.9456
   56CHL1   C15 4088   1.668   6.910   7.463  0.0236  0.0992  0.2626
   56CHL1  H15A 4089   1.758   6.925   7.399 -0.2877  3.1287  0.4121
   56CHL1  H15B 4090   1.579   6.964   7.423 -0.0859  1.1153  1.7945
   56CHL1   C16 4091   1.695   6.941   7.610 -0.6968 -0.3004  0.6503
   56CHL1  H16A 4092   1.794   6.989   7.619 -0.9837 -0.0258  2.9634
   56CHL1  H16B 4093   1.634   7.020   7.659  1.9893  1.8242  0.8167
   56CHL1   C17 4094   1.677   6.807   7.690 -0.1767  0.0028 -0.0659
   56CHL1   H17 4095   1.567   6.804   7.710 -0.6226  0.7871 -2.2028
   56CHL1   C13 4096   1.702   6.701   7.579 -0.1969 -0.6946 -0.5501
   56CHL1   C18 4097   1.855   6.699   7.556 -0.3014 -0.2981  0.6915
   56CHL1  H18A 4098   1.880   6.646   7.462 -1.6501  2.4949 -1.3725
   56CHL1  H18B 4099   1.907   6.797   7.558 -1.3052  0.2749  3.0099
   56CHL1  H18C 4100   1.905   6.636   7.633  0.7493  0.3792  0.5729
   56CHL1   C12 4101   1.650   6.558   7.594  0.0802  0.0053 -0.3155
   56CHL1  H12A 4102   1.698   6.492   7.669  0.2041 -1.0755 -1.3117
   56CHL1  H12B 4103   1.547   6.583   7.626  0.6836  0.6325  1.2315
   56CHL1   C11 4104   1.645   6.478   7.460 -0.1631  0.3233 -0.0190
   56CHL1  H11A 4105   1.754   6.461   7.447  0.3700  1.8134  1.9139
   56CHL1  H11B 4106   1.596   6.381   7.482 -0.2745  0.7538  1.8198
   56CHL1    C9 4107   1.590   6.552   7.334  0.0275  0.3238  0.2109
   56CHL1    H9 4108   1.483   6.572   7.353 -0.0077  0.5019 -0.1658
   56CHL1   C10 4109   1.612   6.472   7.201  0.8191 -0.6841  0.4592
   56CHL1   C19 4110   1.746   6.398   7.191 -0.6115 -0.1279 -0.0390
   56CHL1  H19A 4111   1.767   6.369   7.086 -1.3744  0.3438 -0.3289
   56CHL1  H19B 4112   1.830   6.466   7.219 -0.4487  0.6533 -2.2463
   56CHL1  H19C 4113   1.753   6.309   7.257 -2.7723  0.2126  0.7098
   56CHL1    C1 4114   1.485   6.381   7.192 -0.0845 -0.1057  0.2640
   56CHL1   H1A 4115   1.471   6.298   7.264 -1.3523 -1.0160 -0.9636
   56CHL1   H1B 4116   1.401   6.453   7.190 -0.1080 -0.1379  0.0401
   56CHL1    C2 4117   1.467   6.318   7.049 -0.0707  0.0991  0.4887
   56CHL1   H2A 4118   1.376   6.255   7.045  1.3548 -2.1709  1.5643
   56CHL1   H2B 4119   1.551   6.246   7.037  0.3098  0.8415 -1.7865
   56CHL1   C20 4120   1.754   6.808   7.828 -0.4132 -0.2219  0.4606
   56CHL1   H20 4121   1.859   6.842   7.811 -0.5471  0.1008  0.2686
   56CHL1   C21 4122   1.751   6.666   7.893  0.0463  0.2368 -0.4172
   56CHL1  H21A 4123   1.788   6.585   7.827  2.4774  0.1982  0.8788
   56CHL1  H21B 4124   1.645   6.652   7.924 -0.1209  0.2965 -0.9427
   56CHL1  H21C 4125   1.818   6.663   7.981  0.4473  0.1507 -0.7224
   56CHL1   C22 4126   1.695   6.910   7.931 -1.4728 -0.0934  0.0476
   56CHL1  H22A 4127   1.702   7.011   7.885  0.0629  0.0199  0.4501
   56CHL1  H22B 4128   1.585   6.906   7.946 -1.4059  0.9809  1.0206
   56CHL1   C23 4129   1.755   6.927   8.072 -0.1797  0.6224  0.9075
   56CHL1  H23A 4130   1.755   6.836   8.135  0.3952  0.7211  1.0534
   56CHL1  H23B 4131   1.865   6.938   8.062 -0.0911 -1.1936 -0.7700
   56CHL1   C24 4132   1.701   7.051   8.149 -0.1322 -0.4255 -0.3022
   56CHL1  H24A 4133   1.717   7.142   8.088 -0.2444 -0.9900 -1.1971
   56CHL1  H24B 4134   1.593   7.031   8.165 -0.1458  1.0207  1.6510
   56CHL1   C25 4135   1.750   7.081   8.299 -0.0043  0.0227 -0.6318
   56CHL1   H25 4136   1.725   6.990   8.356  0.4053  1.8501  2.7591
   56CHL1   C26 4137   1.901   7.104   8.315 -0.5609  0.2831 -0.4256
   56CHL1  H26A 4138   1.923   7.196   8.256  0.9644  0.1964 -0.0475
   56CHL1  H26B 4139   1.953   7.021   8.264  1.0438  0.0600  1.4442
   56CHL1  H26C 4140   1.943   7.133   8.414  0.3815  2.1993 -1.3298
   56CHL1   C27 4141   1.673   7.201   8.351 -0.4753 -0.5274  0.0559
   56CHL1  H27A 4142   1.696   7.296   8.299 -1.3362 -0.5307 -0.3504
   56CHL1  H27B 4143   1.565   7.185   8.333 -0.0749 -0.0159 -3.7165
   56CHL1  H27C 4144   1.685   7.206   8.461  0.1232  0.9174 -0.0446
   57SAPC     N 4145   0.892   3.118  11.013 -0.1173 -0.0220  0.7707
   57SAPC   C12 4146   0.987   3.033  10.926 -0.7755 -0.2279 -0.7395
   57SAPC  H12A 4147   1.014   2.944  10.981  0.7257  1.4658  1.4569
   57SAPC  H12B 4148   1.082   3.084  10.922  0.4077 -2.2019  0.5813
   57SAPC   C13 4149   0.902   3.265  10.986 -0.8847 -1.3862  0.6541
   57SAPC  H13A 4150   0.854   3.321  11.065  0.0634  1.1459 -0.4324
   57SAPC  H13B 4151   1.003   3.295  10.966 -0.4922 -3.7119 -1.2913
   57SAPC  H13C 4152   0.861   3.290  10.889  1.1201  0.1460  0.1351
   57SAPC   C14 4153   0.752   3.077  11.001  0.8623  0.0448 -0.0912
   57SAPC  H14A 4154   0.682   3.138  11.055 -0.2446 -0.2199 -1.1755
   57SAPC  H14B 4155   0.724   3.082  10.896  1.9585  0.0156 -0.3965
   57SAPC  H14C 4156   0.738   2.981  11.047  0.6735  0.4777  0.7691
   57SAPC   C15 4157   0.931   3.085  11.150  0.2504  0.9980  0.2269
   57SAPC  H15A 4158   0.874   3.129  11.231 -1.1381 -0.3585  0.0202
   57SAPC  H15B 4159   0.915   2.980  11.165 -1.8500  1.2924  0.2789
   57SAPC  H15C 4160   1.030   3.120  11.175  1.3537 -3.0182  2.1690
   57SAPC   C11 4161   0.949   2.992  10.779 -0.0025 -0.4351 -0.2392
   57SAPC  H11A 4162   0.869   2.915  10.769  0.7637 -1.2974  0.0758
   57SAPC  H11B 4163   1.038   2.941  10.734 -0.2020  0.0977 -1.2760
   57SAPC     P 4164   1.026   3.216  10.661  0.2663 -0.4694  0.3085
   57SAPC   O13 4165   0.969   3.351  10.681 -0.3455  0.1230 -0.2866
   57SAPC   O14 4166   1.154   3.186  10.724  0.2847  0.0265 -0.3219
   57SAPC   O12 4167   0.917   3.118  10.710 -0.4938 -0.3597 -0.1987
   57SAPC   O11 4168   1.046   3.190  10.503 -0.0881 -0.4124  0.3534
   57SAPC    C1 4169   0.992   3.067  10.457 -0.6511  0.3317  0.5843
   57SAPC    HA 4170   1.024   2.986  10.526 -0.2059  0.3652  0.4245
   57SAPC    HB 4171   0.882   3.070  10.468 -0.6166  0.2382  0.9744
   57SAPC    C2 4172   1.042   3.035  10.313  0.3703 -0.4157 -0.2983
   57SAPC    HS 4173   0.997   2.937  10.289  1.8946 -0.6538 -2.3982
   57SAPC   O21 4174   1.189   3.054  10.303 -0.4004  0.9029 -0.3876
   57SAPC   C21 4175   1.259   2.982  10.385  0.2672 -0.0259 -0.8260
   57SAPC   O22 4176   1.216   2.883  10.443 -0.4709 -0.0870 -0.0803
   57SAPC   C22 4177   1.400   3.036  10.396  0.2032 -0.6415 -0.2814
   57SAPC   H2R 4178   1.402   3.142  10.364  0.7759  0.0252  1.7911
   57SAPC   H2S 4179   1.431   3.027  10.502 -1.5862 -1.7909  0.1966
   57SAPC    C3 4180   0.976   3.131  10.211 -0.5847 -0.3376 -0.6912
   57SAPC    HX 4181   0.984   3.235  10.250 -2.6016 -0.9093  1.5051
   57SAPC    HY 4182   0.866   3.116  10.215 -0.7131  0.4226 -1.0969
   57SAPC   O31 4183   1.015   3.110  10.070 -0.0201  0.1747 -0.1410
   57SAPC   C31 4184   1.130   3.178  10.033  0.3239  0.2781  0.3350
   57SAPC   O32 4185   1.181   3.270  10.092 -0.1839  0.7474 -0.0995
   57SAPC   C32 4186   1.186   3.130   9.896  0.5947  0.2545 -0.1726
   57SAPC   H2X 4187   1.124   3.045   9.861  1.6790 -0.1621 -1.1778
   57SAPC   H2Y 4188   1.291   3.096   9.911  1.1651  1.8454 -0.4010
   57SAPC   C23 4189   1.497   2.952  10.310 -0.1368  0.2259 -0.6256
   57SAPC   H3R 4190   1.517   2.853  10.357 -3.2251 -0.5772 -0.7904
   57SAPC   H3S 4191   1.598   2.998  10.308 -0.1220  0.3187  1.0996
   57SAPC   C24 4192   1.452   2.935  10.159 -0.3100  0.0625  0.1570
   57SAPC   H4R 4193   1.431   3.035  10.115 -1.5429 -0.1040  0.3453
   57SAPC   H4S 4194   1.355   2.881  10.155  1.0579 -2.4874 -1.1634
   57SAPC   C25 4195   1.550   2.872  10.065  0.2630  0.1914  0.4917
   57SAPC   H5R 4196   1.650   2.917  10.071  0.5116 -0.5211  2.0954
   57SAPC   C26 4197   1.536   2.768   9.979  0.4869  0.5676  0.5680
   57SAPC   H6R 4198   1.620   2.741   9.914  0.6981  2.1520  0.1306
   57SAPC   C27 4199   1.417   2.677   9.972  0.0934  0.1949 -0.2077
   57SAPC   H7R 4200   1.390   2.641  10.074  0.2128 -3.0110 -1.2046
   57SAPC   H7S 4201   1.443   2.583   9.918 -3.7385 -1.0730 -0.1858
   57SAPC   C28 4202   1.292   2.744   9.917 -0.1624 -0.0272  0.2625
   57SAPC   H8R 4203   1.254   2.810   9.996  0.6995 -1.3565  1.8459
   57SAPC   C29 4204   1.264   2.751   9.783 -0.3573  0.2467 -0.2810
   57SAPC   H9R 4205   1.171   2.801   9.752  1.0654  2.4094 -1.2999
   57SAPC  C210 4206   1.313   2.663   9.668 -0.1899 -0.6920  0.4082
   57SAPC  H10R 4207   1.258   2.566   9.663 -2.5370  0.6357 -1.8973
   57SAPC  H10S 4208   1.421   2.638   9.679 -0.2695 -1.9773 -1.3016
   57SAPC  C211 4209   1.302   2.735   9.540  0.0992 -0.1100 -0.2057
   57SAPC  H11R 4210   1.266   2.838   9.550 -1.1914 -0.5383 -0.3348
   57SAPC  C212 4211   1.317   2.684   9.414 -0.0494  0.4117 -0.2713
   57SAPC  H12R 4212   1.303   2.745   9.323 -1.0572  0.8746  0.1801
   57SAPC  C213 4213   1.331   2.538   9.380 -0.4378 -0.6251  1.0549
   57SAPC  H13R 4214   1.229   2.500   9.360 -1.3941 -0.6511  5.0150
   57SAPC  H13S 4215   1.373   2.492   9.472  3.3243  0.6012  0.1586
   57SAPC  C214 4216   1.432   2.524   9.268  0.2952  0.1387 -0.8764
   57SAPC  H14R 4217   1.524   2.582   9.286  0.2526  0.4528 -1.5951
   57SAPC  C215 4218   1.422   2.459   9.158  0.4426 -0.5415 -0.2325
   57SAPC  H15R 4219   1.505   2.442   9.087 -1.1451 -1.7922 -1.9119
   57SAPC  C216 4220   1.307   2.367   9.117 -0.2364 -0.0315  0.6446
   57SAPC  H16R 4221   1.216   2.395   9.173  1.1219 -0.3678  3.1904
   57SAPC  H16S 4222   1.335   2.262   9.139  0.7911  0.2745  0.8612
   57SAPC  C217 4223   1.277   2.390   8.966  0.6332  0.2545 -0.0815
   57SAPC  H17R 4224   1.286   2.497   8.935  0.0800  0.0310 -1.0344
   57SAPC  H17S 4225   1.172   2.380   8.930  0.0780  2.4492  0.7254
   57SAPC  C218 4226   1.354   2.289   8.872  0.7128 -1.1004 -1.4864
   57SAPC  H18R 4227   1.460   2.287   8.906 -0.0308 -2.1148  0.9882
   57SAPC  H18S 4228   1.364   2.328   8.768 -0.0680  0.2901 -1.0689
   57SAPC  C219 4229   1.294   2.153   8.882  0.4300  1.0050 -0.3239
   57SAPC  H19R 4230   1.184   2.157   8.873  0.0581 -2.9245  0.4197
   57SAPC  H19S 4231   1.321   2.107   8.980 -2.4453 -0.3022 -0.0486
   57SAPC  C220 4232   1.346   2.057   8.771 -0.4607 -0.5955  0.0242
   57SAPC  H20R 4233   1.341   1.948   8.791 -0.4707 -1.1486 -2.6684
   57SAPC  H20S 4234   1.455   2.077   8.765  0.1067 -2.2241  2.9001
   57SAPC  H20T 4235   1.286   2.082   8.681  0.5145  0.3204 -0.3910
   57SAPC   C33 4236   1.179   3.258   9.800 -1.3013 -0.4174  0.2106
   57SAPC   H3X 4237   1.226   3.348   9.845  0.0936  0.3175 -2.5340
   57SAPC   H3Y 4238   1.074   3.291   9.785  0.2962  4.7277 -1.6699
   57SAPC   C34 4239   1.247   3.246   9.661  0.1494  0.4394  1.0956
   57SAPC   H4X 4240   1.340   3.190   9.681 -0.2636 -1.0256 -0.7748
   57SAPC   H4Y 4241   1.277   3.348   9.629  2.4997 -0.7933 -0.9466
   57SAPC   C35 4242   1.142   3.192   9.562  0.4334  0.4608  0.2100
   57SAPC   H5X 4243   1.062   3.269   9.566 -0.2417 -0.0716 -1.8841
   57SAPC   H5Y 4244   1.111   3.095   9.605 -0.6419  0.7474  0.1030
   57SAPC   C36 4245   1.185   3.187   9.411 -0.6984  0.2265 -0.3205
   57SAPC   H6X 4246   1.231   3.088   9.391  1.7513  1.3704 -0.7573
   57SAPC   H6Y 4247   1.272   3.257   9.409 -0.1226 -0.4889 -1.6437
   57SAPC   C37 4248   1.073   3.232   9.325 -0.4385  0.5543 -0.7142
   57SAPC   H7X 4249   1.016   3.323   9.355  1.1337  1.0396  0.9294
   57SAPC   H7Y 4250   0.996   3.152   9.333 -0.9820  1.1754  0.5472
   57SAPC   C38 4251   1.113   3.242   9.179  0.2985  0.2266  0.2113
   57SAPC   H8X 4252   1.163   3.146   9.153 -1.5486 -0.5426 -0.6494
   57SAPC   H8Y 4253   1.176   3.332   9.160 -0.3727  0.5034 -0.7567
   57SAPC   C39 4254   0.983   3.258   9.107  0.2939 -0.4661 -0.2948
   57SAPC   H9X 4255   0.942   3.358   9.135  2.4578 -0.1854  2.2502
   57SAPC   H9Y 4256   0.909   3.184   9.145 -0.9915  1.4633  1.2057
   57SAPC  C310 4257   0.995   3.238   8.955  1.2086  0.2031  0.5869
   57SAPC  H10X 4258   1.075   3.301   8.910  0.8049  0.5487  0.3480
   57SAPC  H10Y 4259   0.907   3.269   8.895  3.4365 -0.0351 -3.1287
   57SAPC  C311 4260   1.018   3.085   8.915  0.3080 -0.1797 -0.3567
   57SAPC  H11X 4261   0.946   3.020   8.969  1.2457 -1.1609 -0.2607
   57SAPC  H11Y 4262   1.113   3.049   8.958 -0.7487 -0.7776  1.6209
   57SAPC  C312 4263   1.007   3.057   8.761 -0.3519  0.4052 -0.2513
   57SAPC  H12X 4264   1.096   3.116   8.729  1.0933 -0.9735  1.0314
   57SAPC  H12Y 4265   0.911   3.089   8.716  0.0903  0.9403 -0.8406
   57SAPC  C313 4266   1.040   2.911   8.721  0.2714  0.8543  0.2093
   57SAPC  H13X 4267   0.964   2.843   8.765 -0.8243  1.0591 -1.3256
   57SAPC  H13Y 4268   1.135   2.875   8.766  0.0802  1.0799  0.8069
   57SAPC  C314 4269   1.043   2.893   8.569 -0.3396 -0.4152 -0.2700
   57SAPC  H14X 4270   1.137   2.925   8.520 -0.8339  0.1127 -0.8861
   57SAPC  H14Y 4271   0.960   2.951   8.524 -0.9545 -0.6898  0.4981
   57SAPC  C315 4272   1.028   2.745   8.523 -0.0092 -0.2045 -0.0546
   57SAPC  H15X 4273   1.024   2.749   8.412 -0.8994  1.2516  0.0145
   57SAPC  H15Y 4274   0.933   2.694   8.547 -0.2240  0.2455  0.0623
   57SAPC  C316 4275   1.148   2.651   8.552  0.8815  0.4290  0.3605
   57SAPC  H16X 4276   1.159   2.651   8.663 -0.4875  0.7624  0.5185
   57SAPC  H16Y 4277   1.245   2.695   8.521  1.5000 -0.9105  0.3395
   57SAPC  C317 4278   1.120   2.507   8.508 -0.0616  0.2065 -0.0569
   57SAPC  H17X 4279   1.110   2.506   8.397  0.3733 -2.3721 -0.1209
   57SAPC  H17Y 4280   1.032   2.472   8.566  0.0376 -0.1381 -0.1131
   57SAPC  C318 4281   1.236   2.408   8.537 -0.1240  0.0502  0.4482
   57SAPC  H18X 4282   1.210   2.364   8.636 -2.3023  2.3773  1.0324
   57SAPC  H18Y 4283   1.342   2.441   8.534  0.6594 -1.9860  2.8931
   57SAPC  H18Z 4284   1.231   2.323   8.467  0.2572  0.5502 -0.2025
   58SAPC     N 4285   3.369   1.011  10.878 -0.6615 -0.5132  0.3179
   58SAPC   C12 4286   3.353   1.134  10.797 -0.2439 -0.1583 -0.0829
   58SAPC  H12A 4287   3.423   1.213  10.821 -0.7409  0.1768  0.2921
   58SAPC  H12B 4288   3.251   1.171  10.799 -0.8018 -1.5864 -0.5355
   58SAPC   C13 4289   3.316   1.044  11.014 -0.6554 -0.0889 -0.3943
   58SAPC  H13A 4290   3.346   0.973  11.090  1.5278  1.5844  0.4211
   58SAPC  H13B 4291   3.353   1.142  11.039 -0.9264  0.5403 -2.2991
   58SAPC  H13C 4292   3.210   1.061  11.016 -0.5750  0.3141  0.8907
   58SAPC   C14 4293   3.297   0.893  10.820 -0.5206 -1.0360 -0.3242
   58SAPC  H14A 4294   3.306   0.804  10.881  1.1809  0.1859  1.3408
   58SAPC  H14B 4295   3.193   0.919  10.816  0.1416  2.6262  1.6568
   58SAPC  H14C 4296   3.337   0.871  10.722 -3.2477 -5.2075 -0.7381
   58SAPC   C15 4297   3.515   0.983  10.892 -0.3042  0.1242 -0.5061
   58SAPC  H15A 4298   3.556   0.972  10.792 -0.0901 -0.2104 -0.3834
   58SAPC  H15B 4299   3.571   1.064  10.937 -0.1595 -1.1660  1.7853
   58SAPC  H15C 4300   3.546   0.899  10.952  0.8078  0.9101  0.0517
   58SAPC   C11 4301   3.391   1.126  10.647  0.6665  0.0251 -0.0744
   58SAPC  H11A 4302   3.349   1.216  10.598 -2.2899 -0.9136  0.5755
   58SAPC  H11B 4303   3.321   1.050  10.605  0.0073  0.1852  0.7295
   58SAPC     P 4304   3.648   1.203  10.662 -0.0581  0.2109  0.2442
   58SAPC   O13 4305   3.606   1.276  10.779  0.2753  0.0943 -0.2749
   58SAPC   O14 4306   3.769   1.124  10.683 -0.3505  0.3310 -0.3845
   58SAPC   O12 4307   3.527   1.103  10.619  0.0971  0.1544 -0.3079
   58SAPC   O11 4308   3.656   1.303  10.536  0.0632 -0.0229  0.0532
   58SAPC    C1 4309   3.568   1.312  10.418  0.4177 -0.7671 -1.1427
   58SAPC    HA 4310   3.469   1.288  10.462  1.2390  0.0186  1.2550
   58SAPC    HB 4311   3.570   1.414  10.375 -0.6142 -0.1268  0.2390
   58SAPC    C2 4312   3.589   1.201  10.310  0.6151 -0.5578 -1.0820
   58SAPC    HS 4313   3.620   1.103  10.351 -2.3931 -0.4702  1.7601
   58SAPC   O21 4314   3.688   1.252  10.231  0.0966 -0.3044 -0.1168
   58SAPC   C21 4315   3.773   1.166  10.166 -0.3115  0.5818 -0.2604
   58SAPC   O22 4316   3.781   1.045  10.185 -0.1054 -0.0571 -0.0452
   58SAPC   C22 4317   3.854   1.244  10.068  0.9997 -0.2162  0.5647
   58SAPC   H2R 4318   3.786   1.320  10.024  1.6272 -0.0816 -0.1874
   58SAPC   H2S 4319   3.933   1.303  10.118  0.4994  2.5931 -1.7118
   58SAPC    C3 4320   3.456   1.177  10.233  0.0777 -0.2302  0.1876
   58SAPC    HX 4321   3.436   1.262  10.165 -0.6359 -2.5555 -2.7148
   58SAPC    HY 4322   3.363   1.169  10.293 -1.1764  1.6995 -1.4099
   58SAPC   O31 4323   3.461   1.060  10.147  0.1007 -0.0538 -0.2786
   58SAPC   C31 4324   3.453   0.938  10.208  0.1613  0.2560  0.4446
   58SAPC   O32 4325   3.410   0.921  10.317 -0.5969 -0.4190 -0.1956
   58SAPC   C32 4326   3.515   0.825  10.127  0.5268 -0.8038 -0.7658
   58SAPC   H2X 4327   3.450   0.735  10.123  2.6570 -2.5273  1.0165
   58SAPC   H2Y 4328   3.606   0.808  10.188  2.1133  3.4371 -1.5873
   58SAPC   C23 4329   3.921   1.151   9.958  0.4087  0.0159  0.1355
   58SAPC   H3R 4330   3.885   1.049   9.980 -0.2939  0.3604  0.6206
   58SAPC   H3S 4331   4.031   1.160   9.952  0.4901 -0.8015  0.2855
   58SAPC   C24 4332   3.870   1.200   9.823 -0.5957 -0.4515 -0.6231
   58SAPC   H4R 4333   3.932   1.163   9.740  1.4531  1.1117  0.1281
   58SAPC   H4S 4334   3.892   1.308   9.811  1.8898 -0.9694 -1.2293
   58SAPC   C25 4335   3.721   1.166   9.803  0.5086 -0.0423  0.2653
   58SAPC   H5R 4336   3.655   1.188   9.888 -1.9831  0.8719 -1.8030
   58SAPC   C26 4337   3.668   1.112   9.688 -0.3469 -0.5381  0.8978
   58SAPC   H6R 4338   3.559   1.101   9.684 -0.4599  0.2418  1.5199
   58SAPC   C27 4339   3.753   1.076   9.562 -0.4041  0.4668  0.2527
   58SAPC   H7R 4340   3.840   1.017   9.599  0.7082  1.7574 -0.2208
   58SAPC   H7S 4341   3.797   1.162   9.507 -1.9893  0.8863 -0.4093
   58SAPC   C28 4342   3.679   0.989   9.463  0.0858  0.0371 -0.2298
   58SAPC   H8R 4343   3.585   0.936   9.485  0.2319 -0.7105 -1.3173
   58SAPC   C29 4344   3.729   0.949   9.344  0.9050 -0.0103  0.0270
   58SAPC   H9R 4345   3.664   0.882   9.287 -1.9297  0.4858  2.4231
   58SAPC  C210 4346   3.859   1.006   9.294 -0.1072 -0.3238 -0.1290
   58SAPC  H10R 4347   3.901   0.930   9.225 -1.4877  0.7188 -2.2178
   58SAPC  H10S 4348   3.938   1.026   9.369 -1.0431  0.3026  0.7138
   58SAPC  C211 4349   3.843   1.138   9.226 -0.6558 -0.1733 -0.8224
   58SAPC  H11R 4350   3.809   1.213   9.298  1.2377  4.0272 -3.8360
   58SAPC  C212 4351   3.879   1.163   9.102  0.2204  0.5359  0.1004
   58SAPC  H12R 4352   3.839   1.257   9.060  0.6861  0.7702  0.1759
   58SAPC  C213 4353   3.942   1.075   9.000 -0.1343  0.6540 -1.1284
   58SAPC  H13R 4354   3.914   1.114   8.899 -0.5127  0.3865 -1.1305
   58SAPC  H13S 4355   3.884   0.981   9.012  0.5303  0.4118  0.2914
   58SAPC  C214 4356   4.096   1.058   9.008  0.5731 -0.6122  0.3252
   58SAPC  H14R 4357   4.140   1.123   9.085  0.4241  0.4569 -0.4807
   58SAPC  C215 4358   4.182   0.986   8.931  0.1136  0.1139  0.2681
   58SAPC  H15R 4359   4.290   0.993   8.948  0.2801  0.6313 -0.8646
   58SAPC  C216 4360   4.129   0.901   8.818  0.3067 -0.4988  0.0422
   58SAPC  H16R 4361   4.029   0.860   8.846 -0.0807  0.1583 -0.3716
   58SAPC  H16S 4362   4.195   0.812   8.802 -1.2545 -1.7365  0.2232
   58SAPC  C217 4363   4.091   0.974   8.682  0.0982  0.1715 -0.5430
   58SAPC  H17R 4364   4.173   1.037   8.642 -0.5536  0.6152 -1.2140
   58SAPC  H17S 4365   4.003   1.041   8.700 -1.8793 -1.7778 -2.3662
   58SAPC  C218 4366   4.037   0.865   8.587 -0.4235  0.0207  0.1332
   58SAPC  H18R 4367   3.954   0.809   8.636  0.4157  0.1735  1.8235
   58SAPC  H18S 4368   4.122   0.794   8.577 -0.8305 -0.5900  0.8880
   58SAPC  C219 4369   3.978   0.911   8.453  0.1848  0.1448 -0.3815
   58SAPC  H19R 4370   4.051   0.962   8.385  0.6899  0.9850  0.7695
   58SAPC  H19S 4371   3.899   0.989   8.461  0.2715  0.3264 -1.1570
   58SAPC  C220 4372   3.915   0.796   8.372  0.0175 -0.4704 -0.6022
   58SAPC  H20R 4373   3.880   0.833   8.273 -1.0468  1.2043  0.3578
   58SAPC  H20S 4374   3.844   0.741   8.437  1.7592  1.3561  3.1881
   58SAPC  H20T 4375   4.003   0.730   8.353 -0.9157 -1.5989 -1.1316
   58SAPC   C33 4376   3.565   0.855   9.987  0.1611 -0.2839  0.0794
   58SAPC   H3X 4377   3.647   0.930   9.996 -0.6501  0.4657  1.4090
   58SAPC   H3Y 4378   3.483   0.900   9.928 -1.5180 -0.0200  2.4929
   58SAPC   C34 4379   3.611   0.725   9.916  0.1876 -0.2130 -0.0464
   58SAPC   H4X 4380   3.535   0.644   9.917 -1.1452  0.9580 -1.3695
   58SAPC   H4Y 4381   3.702   0.695   9.972 -0.1353 -0.9677  0.0845
   58SAPC   C35 4382   3.647   0.746   9.768 -0.2468  0.0254 -0.7234
   58SAPC   H5X 4383   3.725   0.823   9.747  0.9903 -0.4660  1.7041
   58SAPC   H5Y 4384   3.549   0.761   9.719 -0.3623 -2.8499 -1.5796
   58SAPC   C36 4385   3.695   0.613   9.699  0.3420 -0.1372  0.1600
   58SAPC   H6X 4386   3.632   0.531   9.740 -2.4233  1.1235 -1.3210
   58SAPC   H6Y 4387   3.798   0.600   9.739 -0.2148  0.4535  1.8959
   58SAPC   C37 4388   3.696   0.620   9.547 -0.2344 -0.2148  0.4799
   58SAPC   H7X 4389   3.745   0.716   9.520 -0.3320 -0.5762 -1.1027
   58SAPC   H7Y 4390   3.590   0.608   9.517 -0.7591  1.3284  1.5905
   58SAPC   C38 4391   3.764   0.492   9.493 -0.4784  0.5653  0.3972
   58SAPC   H8X 4392   3.701   0.406   9.527 -0.0587  0.3412  0.6164
   58SAPC   H8Y 4393   3.865   0.483   9.537  0.6752 -3.5238 -2.4724
   58SAPC   C39 4394   3.781   0.494   9.342  0.0046 -0.3034  0.4833
   58SAPC   H9X 4395   3.686   0.534   9.300  0.5801 -0.3125 -0.8667
   58SAPC   H9Y 4396   3.806   0.394   9.301  1.2709 -0.1619  0.8671
   58SAPC  C310 4397   3.893   0.589   9.300  0.2808  0.2600 -0.2591
   58SAPC  H10X 4398   3.987   0.576   9.357  0.1230 -1.1990 -0.2946
   58SAPC  H10Y 4399   3.864   0.690   9.338  2.2535  0.5218  0.6427
   58SAPC  C311 4400   3.915   0.578   9.148 -0.2576 -1.1670  0.0195
   58SAPC  H11X 4401   3.957   0.672   9.106  2.0656 -1.9347  0.4345
   58SAPC  H11Y 4402   3.818   0.550   9.102 -0.5498  0.2336 -0.2669
   58SAPC  C312 4403   4.018   0.465   9.108 -0.2409  0.8715 -1.5043
   58SAPC  H12X 4404   3.983   0.378   9.169  0.0646  0.4227 -1.9619
   58SAPC  H12Y 4405   4.121   0.501   9.131 -0.0639  1.7247 -3.4567
   58SAPC  C313 4406   4.012   0.434   8.959 -0.4579 -0.3229  0.0273
   58SAPC  H13X 4407   4.065   0.512   8.900 -0.2559 -1.2831 -1.1107
   58SAPC  H13Y 4408   3.908   0.429   8.922 -0.6545  3.8030 -0.4456
   58SAPC  C314 4409   4.082   0.300   8.920 -0.1376 -1.0229  0.0485
   58SAPC  H14X 4410   4.034   0.226   8.988  1.7223 -0.5726  1.9561
   58SAPC  H14Y 4411   4.190   0.307   8.946 -0.4477 -1.0106  1.4058
   58SAPC  C315 4412   4.072   0.258   8.777 -0.1940  1.0334  0.1569
   58SAPC  H15X 4413   3.964   0.275   8.753 -0.6590 -0.2325  1.2393
   58SAPC  H15Y 4414   4.104   0.152   8.778  3.4173  1.9789 -1.5181
   58SAPC  C316 4415   4.152   0.342   8.683  0.3587 -0.4498  0.2652
   58SAPC  H16X 4416   4.252   0.370   8.724  0.5871 -0.5409 -0.2242
   58SAPC  H16Y 4417   4.102   0.440   8.663  0.3702 -0.6268 -0.6766
   58SAPC  C317 4418   4.158   0.276   8.546  1.0284 -0.1681 -0.0093
   58SAPC  H17X 4419   4.059   0.234   8.516  1.0229 -0.5155  0.4956
   58SAPC  H17Y 4420   4.230   0.193   8.562  1.5620 -0.0054 -1.3905
   58SAPC  C318 4421   4.213   0.374   8.441  0.0217 -0.0189  0.3236
   58SAPC  H18X 4422   4.253   0.322   8.352  0.0822  0.0018  0.3393
   58SAPC  H18Y 4423   4.297   0.433   8.482  0.1236  2.5114 -3.0794
   58SAPC  H18Z 4424   4.136   0.445   8.402 -0.2665 -1.4295 -1.8852
   59SAPC     N 4425   4.289   2.643  11.029 -0.1148  0.2322 -0.4093
   59SAPC   C12 4426   4.417   2.715  10.995 -0.0375 -0.4148 -0.1953
   59SAPC  H12A 4427   4.448   2.773  11.081 -0.6747  1.9731 -1.5127
   59SAPC  H12B 4428   4.393   2.790  10.922  0.5432  1.4056  1.4101
   59SAPC   C13 4429   4.187   2.747  11.072  1.1201 -0.0776  0.6010
   59SAPC  H13A 4430   4.095   2.702  11.107  0.6655  1.7097  1.8585
   59SAPC  H13B 4431   4.233   2.817  11.140  0.7020 -1.1407  2.0294
   59SAPC  H13C 4432   4.151   2.817  10.998 -0.8604 -1.4034  0.2114
   59SAPC   C14 4433   4.251   2.560  10.911  0.8465 -0.3865  0.7101
   59SAPC  H14A 4434   4.246   2.617  10.819 -1.1088  0.9783  1.5800
   59SAPC  H14B 4435   4.326   2.482  10.904 -0.5895 -1.7587 -0.0880
   59SAPC  H14C 4436   4.157   2.511  10.931  0.6040 -0.5363 -0.7287
   59SAPC   C15 4437   4.302   2.560  11.154  0.3416  0.8722  0.5137
   59SAPC  H15A 4438   4.360   2.471  11.134 -4.6290 -2.5671 -0.6321
   59SAPC  H15B 4439   4.347   2.622  11.230  1.2710  0.6572  0.1478
   59SAPC  H15C 4440   4.203   2.525  11.180  0.3803 -1.3904 -1.9775
   59SAPC   C11 4441   4.540   2.636  10.943 -0.3881  0.4089  0.0468
   59SAPC  H11A 4442   4.622   2.711  10.937 -0.3640  0.2776 -1.7558
   59SAPC  H11B 4443   4.525   2.590  10.843  3.1241  0.0129 -0.4340
   59SAPC     P 4444   4.675   2.541  11.157 -0.1980  0.4467  0.2067
   59SAPC   O13 4445   4.700   2.685  11.173  0.1263  0.1404 -0.3629
   59SAPC   O14 4446   4.600   2.482  11.275 -0.1942  0.1978 -0.2830
   59SAPC   O12 4447   4.571   2.531  11.033 -0.3259 -0.1002 -0.6706
   59SAPC   O11 4448   4.805   2.457  11.127  0.0864 -0.1895 -0.3041
   59SAPC    C1 4449   4.801   2.330  11.061 -0.2274 -0.4276  0.0206
   59SAPC    HA 4450   4.886   2.278  11.110 -0.1154 -1.5002 -1.2662
   59SAPC    HB 4451   4.707   2.278  11.087 -0.7782  1.4954  2.3096
   59SAPC    C2 4452   4.859   2.333  10.916 -0.1274  1.1303  0.6531
   59SAPC    HS 4453   4.891   2.230  10.889 -2.1307  0.2707  1.3893
   59SAPC   O21 4454   4.961   2.434  10.905  0.4068 -0.3120 -0.4930
   59SAPC   C21 4455   5.079   2.390  10.929  0.3936  0.0521  0.5083
   59SAPC   O22 4456   5.108   2.285  10.983 -0.2277  0.5971  0.0860
   59SAPC   C22 4457   5.185   2.486  10.866  0.1365  0.0445  0.2684
   59SAPC   H2R 4458   5.174   2.572  10.936 -1.8201 -1.5459  2.0505
   59SAPC   H2S 4459   5.286   2.439  10.877  1.1486  1.8865 -0.6501
   59SAPC    C3 4460   4.741   2.359  10.817 -0.5541 -0.1550  0.0071
   59SAPC    HX 4461   4.729   2.469  10.824 -0.2873 -0.0473 -1.0121
   59SAPC    HY 4462   4.652   2.301  10.851 -0.2777  0.4784  1.9200
   59SAPC   O31 4463   4.782   2.318  10.686  0.2028  0.3356 -0.0513
   59SAPC   C31 4464   4.766   2.188  10.657  0.2313  0.4628 -0.4920
   59SAPC   O32 4465   4.725   2.105  10.738 -1.0410 -0.0230 -0.0082
   59SAPC   C32 4466   4.811   2.163  10.517 -0.3707 -0.6135  0.0347
   59SAPC   H2X 4467   4.733   2.137  10.444  0.9428 -0.4869 -1.4759
   59SAPC   H2Y 4468   4.879   2.075  10.524 -0.8127 -1.0558 -1.0974
   59SAPC   C23 4469   5.170   2.518  10.702  0.2988  0.7390 -0.6594
   59SAPC   H3R 4470   5.215   2.617  10.680 -1.3982  1.8822  0.7068
   59SAPC   H3S 4471   5.066   2.511  10.665 -0.2479  1.2194  0.7075
   59SAPC   C24 4472   5.257   2.420  10.618  0.2028 -0.5239 -0.4706
   59SAPC   H4R 4473   5.361   2.432  10.656 -1.1927  0.7880  3.4252
   59SAPC   H4S 4474   5.244   2.458  10.514 -2.4803 -0.0436 -0.0318
   59SAPC   C25 4475   5.214   2.276  10.628  0.4737  0.0501  0.1645
   59SAPC   H5R 4476   5.132   2.247  10.694 -0.2845  0.0519 -0.7535
   59SAPC   C26 4477   5.276   2.184  10.547  0.4087  0.1528 -0.0689
   59SAPC   H6R 4478   5.242   2.080  10.546  1.0881 -0.1057 -2.3557
   59SAPC   C27 4479   5.390   2.215  10.450 -0.7898  0.4699  0.0001
   59SAPC   H7R 4480   5.385   2.315  10.404 -1.6602 -0.0203 -1.0042
   59SAPC   H7S 4481   5.374   2.153  10.359  2.2741  0.3951 -0.6144
   59SAPC   C28 4482   5.532   2.195  10.513  0.4310 -0.4075 -0.0763
   59SAPC   H8R 4483   5.541   2.227  10.618 -0.5794  1.8085 -0.5974
   59SAPC   C29 4484   5.637   2.155  10.441 -0.3935  0.7463  0.4860
   59SAPC   H9R 4485   5.734   2.148  10.491  0.0058  1.2733 -0.1926
   59SAPC  C210 4486   5.633   2.105  10.304 -0.4282 -0.2913  0.1523
   59SAPC  H10R 4487   5.655   2.184  10.229  0.1662 -0.9795 -0.4153
   59SAPC  H10S 4488   5.537   2.058  10.274  0.6646 -2.3015 -0.4192
   59SAPC  C211 4489   5.749   2.003  10.292  0.3985  0.8258  0.0425
   59SAPC  H11R 4490   5.783   1.951  10.383  0.4337 -2.2511 -1.6126
   59SAPC  C212 4491   5.809   1.975  10.174 -0.1910  0.1690 -0.1647
   59SAPC  H12R 4492   5.897   1.909  10.171 -1.4428 -1.5463 -0.8772
   59SAPC  C213 4493   5.785   2.033  10.036  0.6112 -0.3194  0.3961
   59SAPC  H13R 4494   5.676   2.050  10.034  0.7723  0.8106  0.5465
   59SAPC  H13S 4495   5.813   1.963   9.954 -1.9982 -4.1385  2.4933
   59SAPC  C214 4496   5.851   2.167  10.015 -0.3715 -0.4466  0.3320
   59SAPC  H14R 4497   5.909   2.211  10.098 -0.4932  1.6736 -0.6381
   59SAPC  C215 4498   5.844   2.244   9.905  0.0921  0.1296 -0.0244
   59SAPC  H15R 4499   5.899   2.338   9.891  0.6444 -0.2232 -0.2586
   59SAPC  C216 4500   5.778   2.202   9.777  0.9355 -0.6039  0.4803
   59SAPC  H16R 4501   5.725   2.286   9.729 -2.1810 -1.6121  1.8747
   59SAPC  H16S 4502   5.695   2.135   9.808 -2.7623  2.4046 -2.1252
   59SAPC  C217 4503   5.867   2.120   9.686 -0.1092  0.9455 -0.3606
   59SAPC  H17R 4504   5.813   2.065   9.605  1.8629 -0.1527 -0.9947
   59SAPC  H17S 4505   5.932   2.056   9.748  0.5246 -0.1369 -2.0617
   59SAPC  C218 4506   5.957   2.219   9.608 -1.2585 -0.3771  0.0869
   59SAPC  H18R 4507   6.052   2.171   9.575 -1.2176  0.3422 -0.8898
   59SAPC  H18S 4508   5.983   2.313   9.661 -0.8245  0.3578 -1.3666
   59SAPC  C219 4509   5.877   2.258   9.484 -0.1066  0.7059  0.1459
   59SAPC  H19R 4510   5.795   2.317   9.531  1.3206  0.6147  3.0006
   59SAPC  H19S 4511   5.840   2.167   9.431  1.4659 -0.0254  0.2605
   59SAPC  C220 4512   5.947   2.347   9.379  0.5299 -0.4561  0.0479
   59SAPC  H20R 4513   5.876   2.376   9.299 -0.8066  1.6302  1.8959
   59SAPC  H20S 4514   6.035   2.300   9.330 -0.4790  0.1166 -2.4800
   59SAPC  H20T 4515   5.982   2.439   9.429 -0.2626  0.2621 -0.6691
   59SAPC   C33 4516   4.895   2.276  10.453  0.6814  0.3154 -0.0649
   59SAPC   H3X 4517   4.970   2.318  10.524  0.3016  0.0208  0.5190
   59SAPC   H3Y 4518   4.824   2.358  10.435 -1.8781 -1.3778  1.6359
   59SAPC   C34 4519   4.952   2.240  10.317 -0.3650  0.2597  0.1282
   59SAPC   H4X 4520   4.877   2.174  10.267  0.9176  0.0475 -1.6118
   59SAPC   H4Y 4521   5.046   2.181  10.329  0.5193  1.6804  0.3283
   59SAPC   C35 4522   4.993   2.352  10.223 -0.2433  0.2039  0.1152
   59SAPC   H5X 4523   5.077   2.405  10.273  1.1004 -3.0097  1.5516
   59SAPC   H5Y 4524   4.913   2.428  10.213 -1.2958 -0.6702  1.4978
   59SAPC   C36 4525   5.032   2.289  10.092 -0.2281  0.3356 -0.0603
   59SAPC   H6X 4526   4.969   2.202  10.064  1.0027 -0.6379  0.1205
   59SAPC   H6Y 4527   5.131   2.246  10.117  0.3533  1.0786 -0.9961
   59SAPC   C37 4528   5.045   2.395   9.973 -0.8321 -0.1387 -0.5166
   59SAPC   H7X 4529   5.141   2.449   9.990 -0.0259 -1.0552 -1.9458
   59SAPC   H7Y 4530   4.965   2.472   9.972  0.9630  1.8158 -1.7490
   59SAPC   C38 4531   5.043   2.320   9.834 -0.1395  0.3524 -0.4559
   59SAPC   H8X 4532   4.964   2.243   9.841 -1.2416  1.5212  0.6237
   59SAPC   H8Y 4533   5.139   2.265   9.827 -0.8289 -0.9076 -0.1659
   59SAPC   C39 4534   5.031   2.421   9.717  0.3826 -0.6649  0.2255
   59SAPC   H9X 4535   5.122   2.485   9.720  0.5319 -0.8722  0.1660
   59SAPC   H9Y 4536   4.937   2.477   9.738  1.6188  1.3112  0.7428
   59SAPC  C310 4537   5.025   2.361   9.580 -0.0732 -0.5378  0.2409
   59SAPC  H10X 4538   4.928   2.308   9.575 -0.0082 -0.8022  1.5402
   59SAPC  H10Y 4539   5.105   2.284   9.566  2.1512  1.5399  0.8663
   59SAPC  C311 4540   5.017   2.462   9.467 -0.1257  0.3491  0.5908
   59SAPC  H11X 4541   5.108   2.525   9.464 -0.4572  0.8158  0.0750
   59SAPC  H11Y 4542   4.930   2.524   9.496 -0.7610 -0.8525  1.3491
   59SAPC  C312 4543   5.003   2.398   9.323 -0.2260 -0.1906  0.1107
   59SAPC  H12X 4544   4.958   2.463   9.245 -1.1512  0.8298  1.4497
   59SAPC  H12Y 4545   4.939   2.308   9.329  0.2658 -0.6133 -0.7976
   59SAPC  C313 4546   5.150   2.366   9.271 -0.4161 -0.1558 -0.1857
   59SAPC  H13X 4547   5.190   2.288   9.339 -0.8925 -0.1307  0.1284
   59SAPC  H13Y 4548   5.214   2.457   9.275  1.4477 -1.2101 -2.9473
   59SAPC  C314 4549   5.168   2.312   9.131 -0.0780  0.4444 -0.1093
   59SAPC  H14X 4550   5.107   2.220   9.115 -2.2516  1.5792  1.0245
   59SAPC  H14Y 4551   5.272   2.283   9.106 -0.5634 -1.8190  0.2078
   59SAPC  C315 4552   5.140   2.411   9.021  0.4665  0.2365 -0.2352
   59SAPC  H15X 4553   5.208   2.495   9.047 -0.0649 -0.3881  3.7148
   59SAPC  H15Y 4554   5.035   2.450   9.019  0.8208  1.2134 -0.8861
   59SAPC  C316 4555   5.185   2.340   8.885 -0.1078 -1.0158 -0.0472
   59SAPC  H16X 4556   5.118   2.252   8.872 -1.3740  0.0681 -1.1436
   59SAPC  H16Y 4557   5.292   2.311   8.901  1.0214  2.9079  0.6185
   59SAPC  C317 4558   5.169   2.427   8.763 -0.0822  0.1819  0.2121
   59SAPC  H17X 4559   5.219   2.525   8.776 -0.1193  0.0247  1.7549
   59SAPC  H17Y 4560   5.059   2.438   8.754  0.2020  2.5184 -1.2036
   59SAPC  C318 4561   5.222   2.356   8.639 -0.7974  0.0618  0.7253
   59SAPC  H18X 4562   5.333   2.348   8.631 -0.9347 -0.1289 -1.6473
   59SAPC  H18Y 4563   5.189   2.413   8.550 -1.2900 -2.1947 -0.6324
   59SAPC  H18Z 4564   5.189   2.250   8.636  2.8655 -1.2345  0.6838
   60SAPC     N 4565   0.191   0.510  10.950  0.8944  0.3659 -0.0761
   60SAPC   C12 4566   0.259   0.512  10.811  0.3487 -0.0989  0.4759
   60SAPC  H12A 4567   0.252   0.421  10.754  1.2868  0.5230 -0.6601
   60SAPC  H12B 4568   0.361   0.542  10.828  0.2239  0.8393 -0.3484
   60SAPC   C13 4569   0.251   0.417  11.045 -0.4094  0.1950  0.0026
   60SAPC  H13A 4570   0.350   0.451  11.071  1.0810 -2.9283 -1.0930
   60SAPC  H13B 4571   0.200   0.411  11.140 -0.8417  1.5182 -0.1241
   60SAPC  H13C 4572   0.265   0.316  11.009  0.9189  0.4008 -0.0962
   60SAPC   C14 4573   0.192   0.644  11.012 -0.0143  0.3484  0.0170
   60SAPC  H14A 4574   0.144   0.717  10.948  1.3118 -0.0394 -1.5065
   60SAPC  H14B 4575   0.158   0.643  11.114 -0.6101  0.9325 -0.1660
   60SAPC  H14C 4576   0.298   0.667  11.022  0.2875 -0.2164 -1.5361
   60SAPC   C15 4577   0.049   0.466  10.932  0.4529  0.1801 -1.0279
   60SAPC  H15A 4578   0.031   0.365  10.897  0.7108 -0.3040  0.1818
   60SAPC  H15B 4579   0.006   0.462  11.031  0.7852  1.7880 -0.8013
   60SAPC  H15C 4580  -0.012   0.537  10.878 -2.1734 -0.3292  1.0533
   60SAPC   C11 4581   0.212   0.617  10.708 -0.8126  0.3464 -0.1915
   60SAPC  H11A 4582   0.101   0.619  10.711 -0.8185  0.3531 -0.4255
   60SAPC  H11B 4583   0.234   0.571  10.609 -1.3080  0.2237 -0.2467
   60SAPC     P 4584   0.405   0.792  10.660  0.3223 -0.1235  0.0324
   60SAPC   O13 4585   0.470   0.899  10.736 -0.4011 -0.2792  0.1749
   60SAPC   O14 4586   0.483   0.675  10.628 -0.0840  0.3988  0.2012
   60SAPC   O12 4587   0.268   0.752  10.732  0.6017 -0.2655  0.0763
   60SAPC   O11 4588   0.356   0.854  10.525  0.5819 -0.1299 -0.1146
   60SAPC    C1 4589   0.224   0.920  10.511  0.4002 -0.0561  0.5746
   60SAPC    HA 4590   0.148   0.889  10.586 -1.0281  0.5007 -0.5982
   60SAPC    HB 4591   0.235   1.026  10.545  1.0243 -0.7949  2.9044
   60SAPC    C2 4592   0.158   0.909  10.368 -0.5657  0.0517 -0.9437
   60SAPC    HS 4593   0.057   0.956  10.370 -1.3753 -1.5812 -1.8578
   60SAPC   O21 4594   0.142   0.770  10.327 -0.1078 -0.3535  0.4578
   60SAPC   C21 4595   0.054   0.707  10.404  0.3836  1.0350  0.0860
   60SAPC   O22 4596  -0.014   0.757  10.492  0.1750 -0.0483  0.1266
   60SAPC   C22 4597   0.058   0.554  10.372 -0.0438  0.0259  0.3533
   60SAPC   H2R 4598   0.160   0.526  10.338 -0.3332  2.2180 -2.7598
   60SAPC   H2S 4599   0.034   0.506  10.470  0.7091  0.2392  0.6442
   60SAPC    C3 4600   0.237   0.985  10.260 -0.3929 -0.4164 -0.3422
   60SAPC    HX 4601   0.343   0.952  10.258 -0.0592  0.5343 -3.0198
   60SAPC    HY 4602   0.243   1.090  10.298 -1.0739 -0.7989  0.8723
   60SAPC   O31 4603   0.169   0.984  10.131 -0.5348  0.2794 -0.0379
   60SAPC   C31 4604   0.212   0.888  10.044 -0.5076  0.1993 -0.9945
   60SAPC   O32 4605   0.295   0.806  10.071  0.3513  0.0065 -0.3948
   60SAPC   C32 4606   0.151   0.902   9.904  0.4669  0.2898  0.3565
   60SAPC   H2X 4607   0.147   1.009   9.872 -3.1072  0.0205 -0.4496
   60SAPC   H2Y 4608   0.042   0.884   9.906  0.4574  0.1864 -0.5420
   60SAPC   C23 4609  -0.040   0.501  10.262 -0.1777  0.0794 -0.2016
   60SAPC   H3R 4610  -0.146   0.498  10.294 -0.6214  2.4821 -1.2065
   60SAPC   H3S 4611  -0.009   0.395  10.253  1.9463  0.5575  0.9372
   60SAPC   C24 4612  -0.024   0.560  10.116 -0.7130  0.0828  0.4244
   60SAPC   H4R 4613  -0.061   0.477  10.052 -0.5033 -1.2312  1.9637
   60SAPC   H4S 4614   0.086   0.572  10.104 -0.5533  0.7344  2.2908
   60SAPC   C25 4615  -0.082   0.692  10.092 -1.0035  0.1113  0.4538
   60SAPC   H5R 4616  -0.104   0.754  10.180 -2.0507 -0.7047  0.7894
   60SAPC   C26 4617  -0.151   0.722   9.978 -0.4252 -0.5906  0.1044
   60SAPC   H6R 4618  -0.193   0.823   9.978 -0.4508 -0.5554  2.2511
   60SAPC   C27 4619  -0.150   0.648   9.840  1.1114  0.7267  0.0615
   60SAPC   H7R 4620  -0.198   0.553   9.871 -0.5209  2.1958  2.3921
   60SAPC   H7S 4621  -0.048   0.626   9.802  0.7951 -1.1927  0.2333
   60SAPC   C28 4622  -0.238   0.719   9.741  0.4761  0.5388  0.1798
   60SAPC   H8R 4623  -0.261   0.824   9.761 -2.8315 -0.2231  1.1202
   60SAPC   C29 4624  -0.285   0.658   9.631  0.4672 -0.8160  0.3877
   60SAPC   H9R 4625  -0.335   0.725   9.559  0.0585 -1.8585 -0.3076
   60SAPC  C210 4626  -0.263   0.511   9.589  0.6313 -0.6423 -0.5721
   60SAPC  H10R 4627  -0.357   0.452   9.590  1.1398 -1.4823 -1.1511
   60SAPC  H10S 4628  -0.223   0.450   9.673 -1.7051 -5.6347 -2.7000
   60SAPC  C211 4629  -0.179   0.492   9.466 -0.3645 -0.2534 -0.2963
   60SAPC  H11R 4630  -0.094   0.561   9.476 -0.7902  0.6414 -2.1983
   60SAPC  C212 4631  -0.184   0.425   9.351 -0.0273  0.8996  0.7412
   60SAPC  H12R 4632  -0.110   0.448   9.273  0.1960 -0.2465  0.6056
   60SAPC  C213 4633  -0.289   0.329   9.301 -0.3540  0.5940  0.0280
   60SAPC  H13R 4634  -0.374   0.379   9.248 -0.5209  0.1072 -0.1676
   60SAPC  H13S 4635  -0.338   0.279   9.387 -1.4549  0.9532 -0.3696
   60SAPC  C214 4636  -0.231   0.227   9.209 -0.4103  0.0218  0.4978
   60SAPC  H14R 4637  -0.123   0.239   9.194 -0.4024  1.4067  1.4109
   60SAPC  C215 4638  -0.296   0.167   9.106 -0.1033 -0.1233 -0.1432
   60SAPC  H15R 4639  -0.226   0.112   9.042  2.5691 -0.0547  2.5068
   60SAPC  C216 4640  -0.440   0.151   9.080  0.1070  0.0828  0.3138
   60SAPC  H16R 4641  -0.504   0.181   9.165 -0.0971 -1.1600  0.6216
   60SAPC  H16S 4642  -0.472   0.046   9.062 -0.2954  0.4943 -1.6241
   60SAPC  C217 4643  -0.471   0.227   8.952  0.4273 -0.7125  0.5376
   60SAPC  H17R 4644  -0.401   0.198   8.870 -0.7644  0.3872 -0.9402
   60SAPC  H17S 4645  -0.455   0.336   8.968 -0.4940 -0.2431 -1.4003
   60SAPC  C218 4646  -0.604   0.192   8.882  0.4080  0.0681 -0.6650
   60SAPC  H18R 4647  -0.686   0.233   8.944  1.7393  0.3909  0.9678
   60SAPC  H18S 4648  -0.612   0.081   8.881 -1.5395  0.0306  2.7976
   60SAPC  C219 4649  -0.621   0.246   8.749 -0.3782  0.1123  0.2188
   60SAPC  H19R 4650  -0.549   0.197   8.679  2.7067  1.3802  2.3237
   60SAPC  H19S 4651  -0.609   0.356   8.734 -0.6712 -0.1108 -2.0367
   60SAPC  C220 4652  -0.762   0.213   8.694  0.1571 -0.2322 -0.2659
   60SAPC  H20R 4653  -0.758   0.241   8.587 -0.0174  0.8328 -0.0142
   60SAPC  H20S 4654  -0.840   0.285   8.729  0.2693  1.9514 -4.0419
   60SAPC  H20T 4655  -0.790   0.106   8.706  1.5090 -0.5122  0.5385
   60SAPC   C33 4656   0.216   0.805   9.805 -0.0248  0.1227 -0.2996
   60SAPC   H3X 4657   0.216   0.704   9.851 -1.6580  0.2719  0.0665
   60SAPC   H3Y 4658   0.324   0.833   9.806  0.7694 -2.3168  3.6994
   60SAPC   C34 4659   0.157   0.806   9.663  0.1520  0.0991  0.6446
   60SAPC   H4X 4660   0.176   0.908   9.623 -1.5442 -0.7784 -2.8481
   60SAPC   H4Y 4661   0.050   0.777   9.659  0.3622 -0.6271 -0.1205
   60SAPC   C35 4662   0.234   0.706   9.572  0.1932 -0.1706 -0.0214
   60SAPC   H5X 4663   0.206   0.601   9.594 -0.8889  0.4767  1.8908
   60SAPC   H5Y 4664   0.343   0.711   9.590 -0.1918  1.1014  2.3851
   60SAPC   C36 4665   0.207   0.757   9.422  0.1843  0.1128 -0.0539
   60SAPC   H6X 4666   0.203   0.868   9.418 -1.6119  0.0596 -0.8275
   60SAPC   H6Y 4667   0.109   0.715   9.389  0.3760 -0.5714  0.2425
   60SAPC   C37 4668   0.320   0.706   9.333 -0.1554 -0.5907  0.1487
   60SAPC   H7X 4669   0.317   0.595   9.331  0.9996 -0.6607 -2.7339
   60SAPC   H7Y 4670   0.408   0.755   9.380 -0.5997  2.1196 -1.6207
   60SAPC   C38 4671   0.312   0.757   9.185 -0.3014  0.1875  0.3159
   60SAPC   H8X 4672   0.299   0.868   9.184  2.3335  0.5535  0.2407
   60SAPC   H8Y 4673   0.222   0.710   9.140 -0.0078  0.6836 -0.8441
   60SAPC   C39 4674   0.432   0.723   9.101 -0.2359  0.7238  0.4142
   60SAPC   H9X 4675   0.492   0.633   9.124 -0.0714  0.5141 -0.7650
   60SAPC   H9Y 4676   0.500   0.810   9.115 -2.7452  2.8401  0.3827
   60SAPC  C310 4677   0.407   0.723   8.951 -0.2989  0.0305  0.1395
   60SAPC  H10X 4678   0.510   0.734   8.911  0.0821 -1.8277  0.4942
   60SAPC  H10Y 4679   0.345   0.812   8.929  1.1887  0.6855 -1.6059
   60SAPC  C311 4680   0.350   0.591   8.892  0.6166 -0.1669 -0.1802
   60SAPC  H11X 4681   0.424   0.512   8.919 -0.2738 -0.5820  1.1458
   60SAPC  H11Y 4682   0.331   0.599   8.783 -3.6138 -0.9398  0.3426
   60SAPC  C312 4683   0.225   0.535   8.948  0.3610 -0.8997 -0.1684
   60SAPC  H12X 4684   0.150   0.615   8.964  0.8926 -0.5523  0.6135
   60SAPC  H12Y 4685   0.230   0.479   9.044 -4.1011 -0.9033  0.2846
   60SAPC  C313 4686   0.161   0.418   8.860  0.4110 -0.1316  0.7710
   60SAPC  H13X 4687   0.221   0.325   8.868 -0.1127 -0.7217 -1.4034
   60SAPC  H13Y 4688   0.162   0.438   8.751  0.6489  0.3685  0.8592
   60SAPC  C314 4689   0.009   0.396   8.894  0.3568 -0.2158  0.1012
   60SAPC  H14X 4690  -0.036   0.490   8.932  0.7951 -0.3099  0.8889
   60SAPC  H14Y 4691  -0.001   0.309   8.962 -0.9386 -0.8021 -0.7956
   60SAPC  C315 4692  -0.076   0.367   8.763  0.3190  0.0049  0.6656
   60SAPC  H15X 4693  -0.064   0.453   8.694 -2.1796  1.0331  1.4161
   60SAPC  H15Y 4694  -0.182   0.377   8.794  0.9277  2.6523  2.2221
   60SAPC  C316 4695  -0.042   0.233   8.685 -0.2634 -0.0658  0.2816
   60SAPC  H16X 4696  -0.038   0.141   8.747 -2.7134 -0.9678 -0.7340
   60SAPC  H16Y 4697   0.053   0.244   8.629 -0.7532 -0.3843 -0.6424
   60SAPC  C317 4698  -0.151   0.198   8.578  0.3880  0.0068 -0.3346
   60SAPC  H17X 4699  -0.163   0.284   8.510 -0.3371  0.0306 -0.1928
   60SAPC  H17Y 4700  -0.237   0.179   8.647 -0.0978 -1.2177 -1.2455
   60SAPC  C318 4701  -0.126   0.082   8.489 -0.0245 -0.0637  0.2529
   60SAPC  H18X 4702  -0.056   0.113   8.408  1.2402 -0.8086  1.0188
   60SAPC  H18Y 4703  -0.222   0.055   8.440  1.2654 -5.1058 -0.0779
   60SAPC  H18Z 4704  -0.081  -0.007   8.539  1.9573 -0.2873 -1.7252
   61SAPC     N 4705   0.886   6.032  10.840  0.2760  0.1700 -0.3187
   61SAPC   C12 4706   0.774   6.127  10.806  0.2883 -0.6652  0.7850
   61SAPC  H12A 4707   0.703   6.082  10.739 -1.2231  0.1324  1.7903
   61SAPC  H12B 4708   0.825   6.206  10.752  2.9118 -1.1806  2.3115
   61SAPC   C13 4709   0.832   5.918  10.916 -0.5679 -0.0390 -0.0903
   61SAPC  H13A 4710   0.750   5.864  10.871 -0.6928 -2.7786  3.0166
   61SAPC  H13B 4711   0.903   5.843  10.947  0.7396  1.4134  0.5840
   61SAPC  H13C 4712   0.793   5.946  11.013  0.5883 -1.0445  0.6821
   61SAPC   C14 4713   0.953   5.975  10.720 -0.0066 -0.3196 -0.1979
   61SAPC  H14A 4714   0.995   6.063  10.673 -1.7508  1.0996  0.7881
   61SAPC  H14B 4715   1.031   5.902  10.739  0.5963  0.6786  1.4219
   61SAPC  H14C 4716   0.880   5.931  10.654 -0.4243 -1.4605  0.9821
   61SAPC   C15 4717   0.987   6.109  10.919 -0.1629 -0.1779 -0.1197
   61SAPC  H15A 4718   1.050   6.045  10.980  0.1212 -1.9732 -2.1597
   61SAPC  H15B 4719   1.061   6.149  10.851 -0.5994  4.8539  1.9944
   61SAPC  H15C 4720   0.950   6.197  10.969 -0.0216 -0.6510  0.8479
   61SAPC   C11 4721   0.681   6.197  10.906 -0.0561 -0.1366  0.5298
   61SAPC  H11A 4722   0.640   6.122  10.977 -0.5971 -0.1424  0.2173
   61SAPC  H11B 4723   0.589   6.234  10.856 -0.5162  2.7818  3.2307
   61SAPC     P 4724   0.757   6.451  10.934  0.1906 -0.1120 -0.2944
   61SAPC   O13 4725   0.622   6.508  10.960  0.0509 -0.0399  0.8017
   61SAPC   O14 4726   0.866   6.506  11.015  0.4942  0.3137  1.4182
   61SAPC   O12 4727   0.749   6.301  10.975 -0.2078  0.3073 -0.0340
   61SAPC   O11 4728   0.793   6.443  10.781 -0.2175  0.3645 -0.6462
   61SAPC    C1 4729   0.938   6.426  10.742  0.9580 -0.5469 -0.3762
   61SAPC    HA 4730   1.001   6.505  10.788  0.3515 -0.5747  0.5374
   61SAPC    HB 4731   0.978   6.329  10.777  0.3454 -0.7046 -0.0954
   61SAPC    C2 4732   0.965   6.427  10.591  0.7573 -0.2130  0.2555
   61SAPC    HS 4733   0.912   6.515  10.549 -1.7708 -2.0423 -0.6166
   61SAPC   O21 4734   0.916   6.308  10.528  0.3801  0.4088 -0.1447
   61SAPC   C21 4735   0.877   6.322  10.401  0.5108  0.0603  0.0710
   61SAPC   O22 4736   0.870   6.424  10.335 -0.1235 -0.0822 -0.1927
   61SAPC   C22 4737   0.831   6.185  10.349  0.5087  1.2421 -0.0701
   61SAPC   H2R 4738   0.904   6.101  10.355 -1.3554 -0.5197 -0.9322
   61SAPC   H2S 4739   0.742   6.161  10.410 -0.7000  2.3514 -1.3452
   61SAPC    C3 4740   1.117   6.432  10.571 -0.5671  1.3623 -0.4804
   61SAPC    HX 4741   1.146   6.325  10.575 -1.4689  0.9745 -2.6350
   61SAPC    HY 4742   1.154   6.492  10.656  0.1119  1.1171 -0.5998
   61SAPC   O31 4743   1.162   6.486  10.449 -0.0701  0.4110 -0.4715
   61SAPC   C31 4744   1.294   6.500  10.428 -0.5377  0.6667 -0.3928
   61SAPC   O32 4745   1.381   6.471  10.507 -0.1462  0.3350 -0.2293
   61SAPC   C32 4746   1.322   6.557  10.294  0.1843  0.8260  0.2941
   61SAPC   H2X 4747   1.430   6.582  10.287  0.5501 -0.4469  1.1053
   61SAPC   H2Y 4748   1.264   6.652  10.288 -2.0841 -0.4453  1.0364
   61SAPC   C23 4749   0.779   6.198  10.202 -0.0866 -0.7295  0.4708
   61SAPC   H3R 4750   0.701   6.277  10.198  0.7870  0.1971  1.3602
   61SAPC   H3S 4751   0.727   6.105  10.168  0.2741 -0.0805 -2.0221
   61SAPC   C24 4752   0.891   6.220  10.102 -0.1020  0.2877 -0.1104
   61SAPC   H4R 4753   0.951   6.127  10.093 -0.6182  0.0293 -0.9393
   61SAPC   H4S 4754   0.970   6.288  10.143 -0.6497 -0.1864  1.8233
   61SAPC   C25 4755   0.851   6.273   9.964  0.0738 -0.3945 -0.1526
   61SAPC   H5R 4756   0.818   6.378   9.960  0.2450 -0.3753 -2.4048
   61SAPC   C26 4757   0.834   6.207   9.851  0.5299 -0.1273  0.1084
   61SAPC   H6R 4758   0.796   6.258   9.761 -0.3724 -1.2066 -0.1318
   61SAPC   C27 4759   0.863   6.059   9.834 -0.8738  0.1552 -0.2784
   61SAPC   H7R 4760   0.765   6.012   9.809 -0.8276 -1.4875  2.2952
   61SAPC   H7S 4761   0.886   6.003   9.927  0.6312  1.1480 -0.0155
   61SAPC   C28 4762   0.975   6.028   9.734 -0.0010 -0.2067 -0.1727
   61SAPC   H8R 4763   1.068   5.995   9.783 -0.9966 -3.4111 -0.2723
   61SAPC   C29 4764   0.968   6.032   9.601 -0.2848  0.0788  0.4547
   61SAPC   H9R 4765   1.060   6.013   9.544 -0.2866  4.2064 -1.2838
   61SAPC  C210 4766   0.858   6.083   9.515  0.1983  0.3156  0.0889
   61SAPC  H10R 4767   0.891   6.166   9.448  0.9356  0.3431  0.4835
   61SAPC  H10S 4768   0.782   6.134   9.579 -0.5861  0.6038 -1.0282
   61SAPC  C211 4769   0.784   5.979   9.434 -0.0087  0.5318 -0.0916
   61SAPC  H11R 4770   0.721   5.913   9.495  0.5233  0.3928  0.3189
   61SAPC  C212 4771   0.794   5.966   9.300 -0.4356  0.0707 -0.7881
   61SAPC  H12R 4772   0.735   5.887   9.251 -0.3742 -1.5513  1.6167
   61SAPC  C213 4773   0.893   6.045   9.217 -0.0131  0.2853 -0.5568
   61SAPC  H13R 4774   0.986   6.041   9.278  1.9555  1.7520 -3.2723
   61SAPC  H13S 4775   0.861   6.151   9.219 -3.0481 -0.5455 -0.2959
   61SAPC  C214 4776   0.912   6.001   9.077  0.5844  0.7550 -0.1165
   61SAPC  H14R 4777   0.819   6.026   9.023  0.0783 -2.5551 -0.9698
   61SAPC  C215 4778   1.006   5.939   9.011 -0.0480  0.8036 -0.1979
   61SAPC  H15R 4779   0.970   5.910   8.911 -1.8468  0.4467  0.5324
   61SAPC  C216 4780   1.142   5.901   9.067  0.8151  0.1924 -0.6957
   61SAPC  H16R 4781   1.173   5.807   9.017 -0.7066 -0.7229  0.0281
   61SAPC  H16S 4782   1.139   5.856   9.168  2.4632 -0.7579 -1.0233
   61SAPC  C217 4783   1.246   6.017   9.074  0.3260  0.1975 -0.0458
   61SAPC  H17R 4784   1.345   5.972   9.097  1.7315  2.8183 -0.5884
   61SAPC  H17S 4785   1.227   6.068   9.170 -0.7607 -1.3936  0.6243
   61SAPC  C218 4786   1.250   6.108   8.947 -1.2670 -0.4248  0.0401
   61SAPC  H18R 4787   1.146   6.132   8.919 -1.2533 -1.4761 -0.9753
   61SAPC  H18S 4788   1.292   6.063   8.855  1.2615 -0.0889  0.9373
   61SAPC  C219 4789   1.331   6.236   8.970  0.3137  0.1117  0.0041
   61SAPC  H19R 4790   1.305   6.290   9.064 -2.1449  2.0969 -1.6778
   61SAPC  H19S 4791   1.309   6.310   8.890  2.2314  1.0291  0.2562
   61SAPC  C220 4792   1.479   6.207   8.968 -0.1473 -0.7862 -0.2351
   61SAPC  H20R 4793   1.535   6.300   8.990  1.1660 -1.4342 -0.7512
   61SAPC  H20S 4794   1.518   6.158   8.877 -0.8631 -0.4971 -0.7062
   61SAPC  H20T 4795   1.501   6.135   9.050 -2.5516  1.1507  2.3300
   61SAPC   C33 4796   1.283   6.469  10.175 -0.3888  0.0347 -0.1623
   61SAPC   H3X 4797   1.182   6.427  10.191 -1.5096  1.9082 -1.8944
   61SAPC   H3Y 4798   1.359   6.389  10.159 -0.2907  0.0366  0.2663
   61SAPC   C34 4799   1.272   6.547  10.037 -0.2031  0.0499 -0.4534
   61SAPC   H4X 4800   1.357   6.615  10.014  0.5704 -0.5364  0.5552
   61SAPC   H4Y 4801   1.182   6.611  10.042 -1.0417 -1.1755  2.6724
   61SAPC   C35 4802   1.247   6.441   9.926  0.1805 -0.5386  1.0954
   61SAPC   H5X 4803   1.149   6.392   9.942 -0.2064  0.1733  0.9088
   61SAPC   H5Y 4804   1.322   6.360   9.913 -1.1830 -2.0955  2.4152
   61SAPC   C36 4805   1.239   6.512   9.791  0.9914  0.3936 -0.1302
   61SAPC   H6X 4806   1.338   6.563   9.783  0.4135  1.5673 -0.0996
   61SAPC   H6Y 4807   1.157   6.586   9.802  0.0036 -0.5337 -1.0001
   61SAPC   C37 4808   1.196   6.419   9.674  0.4832 -0.0775 -0.5139
   61SAPC   H7X 4809   1.092   6.388   9.698  0.8499 -0.4187  0.7313
   61SAPC   H7Y 4810   1.259   6.327   9.666  1.2398  0.4781 -1.2138
   61SAPC   C38 4811   1.173   6.493   9.541 -1.0653  0.2312  0.3179
   61SAPC   H8X 4812   1.267   6.550   9.522  0.0329 -0.4587  3.1708
   61SAPC   H8Y 4813   1.083   6.557   9.550 -2.2446 -0.9550 -2.1260
   61SAPC   C39 4814   1.158   6.393   9.430 -0.8943  0.5064 -0.7679
   61SAPC   H9X 4815   1.095   6.311   9.471 -1.0541  0.3000 -1.4127
   61SAPC   H9Y 4816   1.248   6.333   9.405 -0.5984  0.2058  0.9120
   61SAPC  C310 4817   1.091   6.448   9.306 -0.3537  0.3215 -0.2824
   61SAPC  H10X 4818   1.001   6.505   9.336  0.4632  0.5927  1.7874
   61SAPC  H10Y 4819   1.054   6.360   9.249  0.0410 -0.6006  0.8394
   61SAPC  C311 4820   1.192   6.529   9.223  0.3136 -0.3550  0.1839
   61SAPC  H11X 4821   1.288   6.473   9.225 -0.5106 -1.8418 -0.0173
   61SAPC  H11Y 4822   1.215   6.622   9.279 -1.9881  1.2063 -1.2782
   61SAPC  C312 4823   1.141   6.569   9.085 -0.1225  1.1136  0.2167
   61SAPC  H12X 4824   1.030   6.579   9.092 -0.1186  1.1510  0.2280
   61SAPC  H12Y 4825   1.153   6.483   9.016  0.0892  1.1831  0.1681
   61SAPC  C313 4826   1.198   6.700   9.031  0.4710  0.2231  0.2812
   61SAPC  H13X 4827   1.304   6.681   9.005  0.5416 -0.1339  0.8087
   61SAPC  H13Y 4828   1.205   6.767   9.120  4.4872  0.9478 -0.3679
   61SAPC  C314 4829   1.115   6.766   8.915  0.4551  0.1627 -0.5320
   61SAPC  H14X 4830   1.160   6.866   8.898 -0.0260  0.4793 -0.0033
   61SAPC  H14Y 4831   1.009   6.769   8.950  1.0166  1.1173  1.2491
   61SAPC  C315 4832   1.127   6.700   8.772  1.0843 -0.3945  0.2697
   61SAPC  H15X 4833   1.098   6.594   8.784  1.2626 -0.7746 -2.0816
   61SAPC  H15Y 4834   1.233   6.699   8.738  0.3361 -3.4328 -2.4911
   61SAPC  C316 4835   1.038   6.766   8.668 -0.0200 -0.2066  0.0373
   61SAPC  H16X 4836   1.077   6.869   8.661  1.1256 -0.6509 -0.4020
   61SAPC  H16Y 4837   0.929   6.773   8.693  0.2932  2.5837  0.9457
   61SAPC  C317 4838   1.042   6.700   8.533  0.2319 -0.4025 -0.0846
   61SAPC  H17X 4839   1.145   6.666   8.506  0.4864  0.7649 -0.6366
   61SAPC  H17Y 4840   1.001   6.770   8.457  0.8775  0.3301  0.2192
   61SAPC  C318 4841   0.955   6.578   8.525  0.1550  0.2756 -0.2687
   61SAPC  H18X 4842   0.995   6.487   8.574 -1.2621 -1.2568 -1.8097
   61SAPC  H18Y 4843   0.949   6.552   8.418  0.7746  0.3320 -0.3157
   61SAPC  H18Z 4844   0.849   6.583   8.560  0.7063 -0.6474  1.6781
   62SAPC     N 4845   0.010   5.476  10.804 -0.2473  0.3155 -0.3938
   62SAPC   C12 4846   0.154   5.517  10.849 -0.4437 -0.4361 -0.1596
   62SAPC  H12A 4847   0.223   5.437  10.825 -1.2658 -1.7491  1.6346
   62SAPC  H12B 4848   0.160   5.520  10.956  0.6665 -0.8517 -0.1920
   62SAPC   C13 4849  -0.094   5.576  10.841 -0.3634  0.0477 -0.5353
   62SAPC  H13A 4850  -0.105   5.580  10.948  0.0707  1.5578 -0.5219
   62SAPC  H13B 4851  -0.073   5.675  10.805  0.8267  0.1866  0.4753
   62SAPC  H13C 4852  -0.189   5.549  10.797 -0.1003 -1.7864 -0.0764
   62SAPC   C14 4853   0.009   5.462  10.656  0.1735 -0.5703 -0.1085
   62SAPC  H14A 4854   0.039   5.361  10.635  1.5913  0.1165 -1.5313
   62SAPC  H14B 4855  -0.089   5.487  10.616 -0.4701 -0.2072  1.5936
   62SAPC  H14C 4856   0.079   5.530  10.611  0.1651 -0.4172  0.1073
   62SAPC   C15 4857  -0.029   5.345  10.863 -0.4026 -0.4800  0.4387
   62SAPC  H15A 4858   0.034   5.264  10.831 -1.0050 -0.7950  0.0375
   62SAPC  H15B 4859  -0.025   5.346  10.971 -0.1176 -1.1924  0.4401
   62SAPC  H15C 4860  -0.126   5.303  10.843  0.6899 -2.8314 -0.2399
   62SAPC   C11 4861   0.205   5.652  10.797  0.0722 -0.4885  0.1104
   62SAPC  H11A 4862   0.292   5.696  10.850  0.5877 -0.6038 -0.6286
   62SAPC  H11B 4863   0.135   5.739  10.796 -1.0376 -1.3663 -0.4989
   62SAPC     P 4864   0.370   5.583  10.616  0.1985 -0.4362  0.2685
   62SAPC   O13 4865   0.478   5.648  10.688  0.8376 -0.1248  0.2370
   62SAPC   O14 4866   0.364   5.437  10.638  0.3740 -0.2606  0.7752
   62SAPC   O12 4867   0.231   5.640  10.655 -0.2027 -0.3009  0.2605
   62SAPC   O11 4868   0.372   5.622  10.463 -0.2404 -0.0998  0.1485
   62SAPC    C1 4869   0.245   5.606  10.392 -0.1656  0.1145 -0.2024
   62SAPC    HA 4870   0.191   5.510  10.405 -1.7381  1.0438  0.3020
   62SAPC    HB 4871   0.186   5.697  10.411 -1.0183 -0.5842  0.5885
   62SAPC    C2 4872   0.281   5.603  10.235 -0.3711 -0.1314 -0.7384
   62SAPC    HS 4873   0.349   5.517  10.216  0.9026  0.4014  1.2371
   62SAPC   O21 4874   0.353   5.723  10.207 -0.3126  0.4378 -0.5500
   62SAPC   C21 4875   0.432   5.725  10.108 -0.1710  0.9256  0.4161
   62SAPC   O22 4876   0.463   5.624  10.041 -0.1846 -0.4245 -0.1150
   62SAPC   C22 4877   0.491   5.861  10.087  0.4179 -0.9176  0.0233
   62SAPC   H2R 4878   0.412   5.936  10.110  2.3299  1.5697 -1.0281
   62SAPC   H2S 4879   0.566   5.871  10.168 -1.7293  3.6675  1.8191
   62SAPC    C3 4880   0.159   5.592  10.147  0.8484  0.2871  0.2931
   62SAPC    HX 4881   0.099   5.685  10.157  1.6558  0.9875 -1.0778
   62SAPC    HY 4882   0.102   5.505  10.186  3.5383 -1.3163  0.9808
   62SAPC   O31 4883   0.200   5.578  10.008  0.0280 -0.1943 -0.3104
   62SAPC   C31 4884   0.215   5.454   9.965  0.0401  0.0476 -0.4074
   62SAPC   O32 4885   0.200   5.354  10.032 -0.3700 -0.2987 -0.0134
   62SAPC   C32 4886   0.249   5.467   9.824  0.2644  0.0742 -0.5227
   62SAPC   H2X 4887   0.356   5.497   9.818  0.2901 -0.1633 -1.4807
   62SAPC   H2Y 4888   0.192   5.553   9.781  2.6648  1.4279 -1.1660
   62SAPC   C23 4889   0.550   5.882   9.951  0.6153  0.5780  0.1350
   62SAPC   H3R 4890   0.614   5.804   9.905 -0.1572  0.6181 -1.0698
   62SAPC   H3S 4891   0.620   5.967   9.943 -0.0463  1.0472 -0.9514
   62SAPC   C24 4892   0.435   5.914   9.854  0.3159  0.1805  0.5526
   62SAPC   H4R 4893   0.370   5.992   9.900  2.2223  3.2165 -1.5138
   62SAPC   H4S 4894   0.385   5.816   9.842  1.9015 -0.6793  0.6697
   62SAPC   C25 4895   0.490   5.954   9.715  0.6192  0.1196 -0.1367
   62SAPC   H5R 4896   0.557   6.042   9.711 -1.9511  2.2103  0.1145
   62SAPC   C26 4897   0.460   5.881   9.597 -0.1497  0.0264 -0.6614
   62SAPC   H6R 4898   0.484   5.929   9.501 -2.1472  0.5729 -0.9427
   62SAPC   C27 4899   0.380   5.752   9.577  0.2569  0.3136  0.5893
   62SAPC   H7R 4900   0.296   5.770   9.506  0.1701 -2.0909  0.0006
   62SAPC   H7S 4901   0.323   5.720   9.667 -0.4875 -1.4175 -0.4295
   62SAPC   C28 4902   0.473   5.650   9.522 -0.2484 -0.1237 -0.4943
   62SAPC   H8R 4903   0.523   5.603   9.607 -3.3229 -1.0185  0.9742
   62SAPC   C29 4904   0.495   5.618   9.391  0.1875  0.6553  0.0748
   62SAPC   H9R 4905   0.573   5.545   9.366  4.0418  4.3829  0.1042
   62SAPC  C210 4906   0.429   5.699   9.288  0.0335 -0.6290 -1.2045
   62SAPC  H10R 4907   0.469   5.802   9.300 -2.1965  0.2096 -0.3521
   62SAPC  H10S 4908   0.319   5.711   9.299  0.1881 -0.9027  1.0027
   62SAPC  C211 4909   0.461   5.645   9.145 -0.1231 -0.8163  0.7685
   62SAPC  H11R 4910   0.444   5.536   9.146  0.0761 -0.9027 -1.2334
   62SAPC  C212 4911   0.495   5.707   9.029  0.2708  0.2700 -0.7866
   62SAPC  H12R 4912   0.500   5.646   8.937  3.0282  0.3146 -0.7217
   62SAPC  C213 4913   0.525   5.856   9.018  0.4615 -0.4875 -0.2841
   62SAPC  H13R 4914   0.634   5.878   9.019  0.3988 -0.1638 -0.4381
   62SAPC  H13S 4915   0.480   5.927   9.090  1.1540  3.1125 -3.1164
   62SAPC  C214 4916   0.478   5.933   8.886  0.0050 -0.8646 -0.0265
   62SAPC  H14R 4917   0.402   6.012   8.893 -1.2713 -2.0240 -0.3305
   62SAPC  C215 4918   0.537   5.925   8.765 -0.5798 -0.1970  0.1544
   62SAPC  H15R 4919   0.497   5.970   8.673  0.4066 -1.0581 -0.7183
   62SAPC  C216 4920   0.657   5.840   8.736 -0.8407  0.0834 -0.0185
   62SAPC  H16R 4921   0.731   5.838   8.819 -0.5282  2.0917 -0.1957
   62SAPC  H16S 4922   0.718   5.893   8.659 -1.2466  0.1487 -0.3006
   62SAPC  C217 4923   0.630   5.694   8.688 -0.2435 -0.5973 -0.0396
   62SAPC  H17R 4924   0.615   5.631   8.779  1.5950 -1.2882 -0.1642
   62SAPC  H17S 4925   0.724   5.660   8.640  1.6369  0.0867  2.8505
   62SAPC  C218 4926   0.523   5.685   8.581 -0.7139  0.1103  0.4969
   62SAPC  H18R 4927   0.522   5.759   8.498 -1.3995 -2.6690 -2.1985
   62SAPC  H18S 4928   0.426   5.705   8.631 -1.7646 -0.1701 -1.3208
   62SAPC  C219 4929   0.523   5.543   8.529 -0.1532  0.7660 -0.0788
   62SAPC  H19R 4930   0.553   5.470   8.607  1.5524 -1.5980 -2.7322
   62SAPC  H19S 4931   0.589   5.521   8.443 -0.4502  0.1982 -0.1707
   62SAPC  C220 4932   0.387   5.493   8.468  0.4820  0.2894  0.3592
   62SAPC  H20R 4933   0.366   5.532   8.366 -0.8661 -0.7835  0.1986
   62SAPC  H20S 4934   0.297   5.518   8.527 -0.0873 -0.1854 -0.2873
   62SAPC  H20T 4935   0.386   5.384   8.445 -0.4663  0.3711 -0.0121
   62SAPC   C33 4936   0.227   5.338   9.742 -0.1326 -0.3800 -0.1286
   62SAPC   H3X 4937   0.119   5.311   9.740  0.6179 -3.8234  0.6208
   62SAPC   H3Y 4938   0.282   5.251   9.783  2.5438  0.7463 -1.1505
   62SAPC   C34 4939   0.282   5.373   9.603 -0.5133 -0.0325 -0.4254
   62SAPC   H4X 4940   0.388   5.404   9.602 -0.5661  0.1852 -2.0439
   62SAPC   H4Y 4941   0.233   5.469   9.577 -1.6845 -0.3662  0.4378
   62SAPC   C35 4942   0.248   5.269   9.505 -0.2040  0.2300 -0.0786
   62SAPC   H5X 4943   0.141   5.239   9.513  0.2567 -2.0003 -1.2616
   62SAPC   H5Y 4944   0.305   5.175   9.522  1.0753  1.0120  0.1019
   62SAPC   C36 4945   0.275   5.309   9.358 -0.1554 -0.1134 -0.3142
   62SAPC   H6X 4946   0.385   5.318   9.344 -0.1511 -0.0623 -0.2467
   62SAPC   H6Y 4947   0.220   5.405   9.355  0.1115  0.2155  2.6249
   62SAPC   C37 4948   0.229   5.216   9.242  0.0114  0.9358 -0.0734
   62SAPC   H7X 4949   0.118   5.213   9.240  0.0351 -0.8428 -0.3594
   62SAPC   H7Y 4950   0.270   5.114   9.256  4.6078  2.7284  1.4543
   62SAPC   C38 4951   0.273   5.261   9.102 -0.3538 -0.4801  0.5036
   62SAPC   H8X 4952   0.384   5.262   9.096 -0.4036  1.1599 -0.7723
   62SAPC   H8Y 4953   0.233   5.363   9.087 -0.4306 -0.3857  1.3350
   62SAPC   C39 4954   0.202   5.170   8.999 -0.1271 -0.0968  0.4819
   62SAPC   H9X 4955   0.092   5.184   8.995 -0.0040  0.6718 -0.3241
   62SAPC   H9Y 4956   0.222   5.066   9.034  1.4321 -0.2113 -0.6766
   62SAPC  C310 4957   0.262   5.174   8.860  0.3534  0.5407 -0.1052
   62SAPC  H10X 4958   0.372   5.175   8.872  0.6894  1.1064 -2.5713
   62SAPC  H10Y 4959   0.241   5.275   8.820  1.3621  0.8639  0.1637
   62SAPC  C311 4960   0.221   5.064   8.761  0.5688  0.3582 -1.3963
   62SAPC  H11X 4961   0.110   5.062   8.763  0.5846 -1.0620 -0.2168
   62SAPC  H11Y 4962   0.250   4.972   8.817 -2.1487  0.2718  0.0296
   62SAPC  C312 4963   0.261   5.086   8.613 -0.2223  0.2583  0.3830
   62SAPC  H12X 4964   0.367   5.117   8.605 -0.3715  0.3443 -2.0464
   62SAPC  H12Y 4965   0.199   5.160   8.558  2.4138  2.2433 -0.1288
   62SAPC  C313 4966   0.236   4.958   8.518  0.1295 -0.4059 -0.6231
   62SAPC  H13X 4967   0.264   4.981   8.413  1.4024  3.3433  0.3590
   62SAPC  H13Y 4968   0.126   4.942   8.526 -0.3814  2.8062  0.6331
   62SAPC  C314 4969   0.334   4.840   8.561  0.0635 -0.2737  0.4755
   62SAPC  H14X 4970   0.298   4.795   8.656  0.3565 -0.2476  0.5972
   62SAPC  H14Y 4971   0.432   4.887   8.584 -0.0974  0.2493  0.1309
   62SAPC  C315 4972   0.345   4.725   8.454 -0.4312  0.1324  0.0896
   62SAPC  H15X 4973   0.374   4.766   8.355  0.5601  0.5144  0.5220
   62SAPC  H15Y 4974   0.242   4.683   8.446  0.0717 -0.9577 -1.0754
   62SAPC  C316 4975   0.447   4.608   8.484  0.0944 -0.0559  0.3495
   62SAPC  H16X 4976   0.402   4.508   8.467 -0.1113  0.2301 -0.8319
   62SAPC  H16Y 4977   0.455   4.584   8.592  0.0720 -1.9446 -0.0397
   62SAPC  C317 4978   0.578   4.612   8.410  0.0015  0.5681  0.3325
   62SAPC  H17X 4979   0.632   4.708   8.425 -0.9200  0.9814  1.1092
   62SAPC  H17Y 4980   0.552   4.607   8.302 -0.4265  2.1099  0.3412
   62SAPC  C318 4981   0.661   4.491   8.450  1.1064 -0.2211  0.1995
   62SAPC  H18X 4982   0.610   4.397   8.420  0.5770 -0.5202  1.9361
   62SAPC  H18Y 4983   0.660   4.488   8.561 -3.3486 -0.8525  0.3343
   62SAPC  H18Z 4984   0.762   4.490   8.404  0.0289 -3.5308 -2.5219
   63SAPC     N 4985   4.405   5.121   6.079  0.3229 -0.0426 -0.2259
   63SAPC   C12 4986   4.364   5.145   6.220  0.7507  0.2430 -0.4719
   63SAPC  H12A 4987   4.282   5.081   6.251  0.5036  0.2909 -1.0266
   63SAPC  H12B 4988   4.332   5.247   6.231  0.5672  0.0590  0.9257
   63SAPC   C13 4989   4.530   5.197   6.047  0.2893 -0.3433 -0.1397
   63SAPC  H13A 4990   4.611   5.166   6.110 -1.1581 -1.9644  1.0157
   63SAPC  H13B 4991   4.569   5.194   5.946 -0.3757  0.9863 -0.4530
   63SAPC  H13C 4992   4.510   5.302   6.065  0.2692 -0.1942 -0.9884
   63SAPC   C14 4993   4.434   4.977   6.045  0.1480  0.1257  0.2472
   63SAPC  H14A 4994   4.342   4.922   6.060  0.8307 -1.2504 -0.4784
   63SAPC  H14B 4995   4.476   4.961   5.947  0.9503 -0.5100  0.6856
   63SAPC  H14C 4996   4.509   4.939   6.113  0.9139  0.5336 -0.3571
   63SAPC   C15 4997   4.285   5.157   5.983 -0.0694  1.3324  0.5111
   63SAPC  H15A 4998   4.317   5.128   5.884 -0.7849 -0.5540  0.8078
   63SAPC  H15B 4999   4.196   5.104   6.011  1.2085 -0.1273  2.0527
   63SAPC  H15C 5000   4.277   5.265   5.981  1.2042  1.4343 -0.2996
   63SAPC   C11 5001   4.479   5.112   6.318  0.1517  0.6905 -0.1878
   63SAPC  H11A 5002   4.463   5.175   6.408  0.2232 -0.9199  0.9916
   63SAPC  H11B 5003   4.584   5.140   6.292  0.4089 -0.1645 -0.1178
   63SAPC     P 5004   4.377   4.905   6.435  0.1138 -0.4342 -0.4860
   63SAPC   O13 5005   4.236   4.928   6.398  0.8493 -0.9838 -0.0739
   63SAPC   O14 5006   4.414   4.767   6.456 -0.0067 -0.7479 -0.5006
   63SAPC   O12 5007   4.481   4.971   6.339  0.5035  0.4935  0.1488
   63SAPC   O11 5008   4.406   4.979   6.571 -0.2642 -0.8139  0.1780
   63SAPC    C1 5009   4.538   4.972   6.627 -0.0807  0.1493 -0.0624
   63SAPC    HA 5010   4.598   4.882   6.599 -0.3063  0.0407 -0.2059
   63SAPC    HB 5011   4.604   5.052   6.587  0.1383 -0.0642 -0.1307
   63SAPC    C2 5012   4.550   4.968   6.782  1.0921  0.2172  0.5137
   63SAPC    HS 5013   4.651   4.933   6.811  1.2826  1.2891  1.1911
   63SAPC   O21 5014   4.451   4.889   6.845 -0.0967 -0.0165 -0.6367
   63SAPC   C21 5015   4.458   4.762   6.848 -0.2873  0.9355 -0.0205
   63SAPC   O22 5016   4.546   4.694   6.793 -0.2202  0.2614 -0.0291
   63SAPC   C22 5017   4.347   4.702   6.928 -0.0343  0.6076 -0.0458
   63SAPC   H2R 5018   4.261   4.758   6.885  0.5173  0.0329 -1.9982
   63SAPC   H2S 5019   4.344   4.593   6.903  0.7966  0.8763 -1.3822
   63SAPC    C3 5020   4.533   5.106   6.847  0.7438 -0.1334  1.2447
   63SAPC    HX 5021   4.431   5.145   6.829  0.1705 -1.9522  0.3518
   63SAPC    HY 5022   4.601   5.175   6.792  1.8479 -1.6091  0.6924
   63SAPC   O31 5023   4.563   5.116   6.984  0.1049 -0.5214 -0.0645
   63SAPC   C31 5024   4.680   5.124   7.010  0.2766  0.0168 -0.7969
   63SAPC   O32 5025   4.774   5.140   6.929  0.2871 -0.2990 -0.4207
   63SAPC   C32 5026   4.710   5.122   7.160 -0.5001  0.5304  0.4195
   63SAPC   H2X 5027   4.632   5.067   7.216 -2.1699  1.5849 -0.7631
   63SAPC   H2Y 5028   4.715   5.228   7.195  3.2788  0.2453  1.1833
   63SAPC   C23 5029   4.354   4.732   7.087 -0.1068  0.0091 -0.1950
   63SAPC   H3R 5030   4.260   4.699   7.135  0.1659  0.6634  0.8136
   63SAPC   H3S 5031   4.370   4.839   7.111 -2.0699  0.1691  0.5281
   63SAPC   C24 5032   4.472   4.655   7.161 -0.5194 -0.1748  0.0436
   63SAPC   H4R 5033   4.482   4.707   7.259 -1.3733 -3.0672  1.7591
   63SAPC   H4S 5034   4.571   4.665   7.111 -0.0060  0.8300  1.1956
   63SAPC   C25 5035   4.420   4.512   7.200  0.2567 -0.2907  0.0629
   63SAPC   H5R 5036   4.403   4.448   7.112 -0.7046  1.6167 -1.2115
   63SAPC   C26 5037   4.392   4.479   7.328 -0.2032  0.2239  0.6044
   63SAPC   H6R 5038   4.365   4.374   7.345 -2.4447  1.1092  3.2685
   63SAPC   C27 5039   4.409   4.549   7.457  0.4359 -0.2693 -0.2327
   63SAPC   H7R 5040   4.337   4.507   7.531 -0.6789  1.6480 -0.1665
   63SAPC   H7S 5041   4.373   4.654   7.450 -0.8968 -0.5635  1.4483
   63SAPC   C28 5042   4.552   4.548   7.503  0.8705  1.0328 -0.6038
   63SAPC   H8R 5043   4.624   4.496   7.438 -3.5892 -2.9894 -2.9344
   63SAPC   C29 5044   4.595   4.618   7.608 -0.0457 -0.1904 -0.9119
   63SAPC   H9R 5045   4.702   4.619   7.633 -0.3705 -0.2501  0.5918
   63SAPC  C210 5046   4.510   4.716   7.694 -0.8017 -0.2623 -0.2382
   63SAPC  H10R 5047   4.438   4.770   7.629 -0.5274  0.6585  0.1916
   63SAPC  H10S 5048   4.581   4.795   7.727 -0.1199 -0.2417 -1.6635
   63SAPC  C211 5049   4.429   4.646   7.801  0.7610 -0.0632 -0.0381
   63SAPC  H11R 5050   4.337   4.591   7.774  0.7661  0.3892 -1.0432
   63SAPC  C212 5051   4.460   4.642   7.933  0.3657  0.8743  1.1977
   63SAPC  H12R 5052   4.390   4.587   7.997 -0.3188  0.7795  0.3903
   63SAPC  C213 5053   4.579   4.710   7.997 -0.0238 -0.1639  0.1985
   63SAPC  H13R 5054   4.555   4.805   8.049 -1.4917 -1.4920  2.1004
   63SAPC  H13S 5055   4.654   4.739   7.920 -0.9371  0.7313 -0.3698
   63SAPC  C214 5056   4.656   4.621   8.086  0.3262  0.9697 -0.2133
   63SAPC  H14R 5057   4.727   4.552   8.037  1.4127  1.8043  0.1623
   63SAPC  C215 5058   4.639   4.613   8.216  0.3318  0.2972 -0.5549
   63SAPC  H15R 5059   4.705   4.550   8.277 -0.1609 -0.0960 -0.4199
   63SAPC  C216 5060   4.537   4.686   8.302 -0.0055 -0.6075 -0.0201
   63SAPC  H16R 5061   4.479   4.618   8.367 -1.5350 -0.4174 -1.1235
   63SAPC  H16S 5062   4.462   4.736   8.236  2.2164  1.3817 -1.2216
   63SAPC  C217 5063   4.600   4.795   8.386  1.2339  0.8100  0.2657
   63SAPC  H17R 5064   4.673   4.734   8.443 -0.1414 -1.4371 -0.2771
   63SAPC  H17S 5065   4.527   4.836   8.459  1.2603 -0.6437  1.1345
   63SAPC  C218 5066   4.663   4.910   8.306  0.0996 -0.1197 -0.5878
   63SAPC  H18R 5067   4.586   4.979   8.265  0.1271  0.0773 -0.3090
   63SAPC  H18S 5068   4.730   4.869   8.226 -1.3026 -1.3611 -1.1851
   63SAPC  C219 5069   4.755   4.995   8.390  0.0954 -0.2673 -0.6897
   63SAPC  H19R 5070   4.725   4.998   8.496 -0.0432  0.8652 -0.7469
   63SAPC  H19S 5071   4.746   5.096   8.343  0.8860 -0.5370 -1.4490
   63SAPC  C220 5072   4.899   4.948   8.392 -0.0856 -0.3302  0.4131
   63SAPC  H20R 5073   4.933   4.924   8.289 -2.5325 -0.7075 -0.3854
   63SAPC  H20S 5074   4.918   4.851   8.442  2.7397 -0.9368 -1.6225
   63SAPC  H20T 5075   4.973   5.023   8.428  0.2672  0.1311 -1.1910
   63SAPC   C33 5076   4.852   5.059   7.179 -0.4349  0.4095  0.5852
   63SAPC   H3X 5077   4.926   5.108   7.113 -1.6539 -0.2360 -1.3586
   63SAPC   H3Y 5078   4.854   4.953   7.145 -1.0613  0.6570 -0.2543
   63SAPC   C34 5079   4.907   5.071   7.322  0.0546  0.1736 -0.3793
   63SAPC   H4X 5080   4.858   4.992   7.382 -0.2687 -0.6883 -1.7274
   63SAPC   H4Y 5081   4.878   5.164   7.375  3.9299  0.2598  1.9611
   63SAPC   C35 5082   5.053   5.056   7.319 -0.0225  0.0682 -0.7695
   63SAPC   H5X 5083   5.085   5.148   7.267 -1.4273  2.8540  2.8277
   63SAPC   H5Y 5084   5.100   4.968   7.269  0.5176  0.1563 -0.4221
   63SAPC   C36 5085   5.113   5.066   7.459  0.5142  0.0067 -0.5051
   63SAPC   H6X 5086   5.099   4.970   7.512  0.3481  0.3497  0.0910
   63SAPC   H6Y 5087   5.075   5.157   7.511  1.5777 -0.5764  1.4226
   63SAPC   C37 5088   5.261   5.084   7.456 -0.8919 -0.3492 -0.3472
   63SAPC   H7X 5089   5.297   5.177   7.406 -1.1957  0.8395  1.5198
   63SAPC   H7Y 5090   5.308   4.995   7.409 -0.7817 -0.0701 -0.7728
   63SAPC   C38 5091   5.320   5.081   7.600  0.1215  0.1353  0.0441
   63SAPC   H8X 5092   5.323   4.977   7.638  0.3506  0.4886  1.0313
   63SAPC   H8Y 5093   5.247   5.140   7.658 -0.2513  0.3309 -0.6146
   63SAPC   C39 5094   5.454   5.153   7.622 -0.1463 -0.1497  0.4382
   63SAPC   H9X 5095   5.456   5.176   7.730 -1.5011 -0.2585  0.5085
   63SAPC   H9Y 5096   5.464   5.249   7.567 -2.6774  0.2334  0.5005
   63SAPC  C310 5097   5.575   5.060   7.604  0.4999  0.1340 -0.1783
   63SAPC  H10X 5098   5.589   5.018   7.502 -0.9837  1.4731 -0.9644
   63SAPC  H10Y 5099   5.562   4.968   7.666 -1.4870  1.3811  1.3684
   63SAPC  C311 5100   5.702   5.132   7.646 -0.5132  0.1227 -0.3858
   63SAPC  H11X 5101   5.721   5.130   7.755 -1.3306 -0.1466 -0.2479
   63SAPC  H11Y 5102   5.707   5.236   7.608  0.5036  0.2645  0.0834
   63SAPC  C312 5103   5.834   5.066   7.599 -0.2780 -0.0126 -0.3568
   63SAPC  H12X 5104   5.824   4.962   7.637  3.0058  0.5378  2.4562
   63SAPC  H12Y 5105   5.923   5.098   7.656 -0.0024 -0.6961 -0.3993
   63SAPC  C313 5106   5.853   5.064   7.446 -0.1184 -0.3555 -0.0968
   63SAPC  H13X 5107   5.907   5.155   7.410 -0.4506 -0.5460 -1.1023
   63SAPC  H13Y 5108   5.755   5.060   7.396 -0.5453 -0.0522  0.6902
   63SAPC  C314 5109   5.945   4.948   7.411 -0.4220  0.7006 -0.6018
   63SAPC  H14X 5110   5.888   4.859   7.446 -1.7979  1.8280  0.1418
   63SAPC  H14Y 5111   6.033   4.962   7.477 -2.1399 -2.6154  2.7847
   63SAPC  C315 5112   5.972   4.940   7.264  0.2095  0.0743 -0.0997
   63SAPC  H15X 5113   6.056   4.871   7.239  0.1587 -0.0935  0.1937
   63SAPC  H15Y 5114   6.009   5.038   7.224  2.9237 -1.2190 -1.0096
   63SAPC  C316 5115   5.849   4.904   7.177 -0.2225 -0.8409  0.6102
   63SAPC  H16X 5116   5.768   4.978   7.195  1.0526  0.4312  1.2939
   63SAPC  H16Y 5117   5.818   4.800   7.201 -0.8205 -1.3121 -1.9125
   63SAPC  C317 5118   5.890   4.891   7.021 -0.0727 -0.5468 -0.5244
   63SAPC  H17X 5119   5.981   4.827   7.016  0.3772  0.1217 -1.0673
   63SAPC  H17Y 5120   5.915   4.992   6.982  0.9714 -0.0766  1.2421
   63SAPC  C318 5121   5.781   4.836   6.942  0.1212 -0.1514 -0.2944
   63SAPC  H18X 5122   5.732   4.750   6.994 -0.9913 -1.3424 -3.0932
   63SAPC  H18Y 5123   5.823   4.788   6.851 -0.0792 -1.8252  0.4669
   63SAPC  H18Z 5124   5.703   4.912   6.921  0.0910  0.2123  1.0317
   64SAPC     N 5125   6.712   5.241   6.057 -0.5869  0.1561 -0.0959
   64SAPC   C12 5126   6.728   5.165   5.927 -0.3530 -0.0475  0.3833
   64SAPC  H12A 5127   6.673   5.212   5.847  0.1369 -0.5217 -0.2420
   64SAPC  H12B 5128   6.674   5.072   5.941  0.5651 -0.6887 -0.1913
   64SAPC   C13 5129   6.787   5.367   6.068 -0.7594  0.2083  0.7396
   64SAPC  H13A 5130   6.769   5.417   6.162  0.8357 -0.0611  1.2087
   64SAPC  H13B 5131   6.891   5.341   6.059 -1.2598 -1.5664 -0.4907
   64SAPC  H13C 5132   6.762   5.434   5.987 -0.5442  2.4341  2.4385
   64SAPC   C14 5133   6.571   5.275   6.076  0.1676  0.3502 -0.8126
   64SAPC  H14A 5134   6.557   5.314   6.176  0.2367  1.0399 -1.0665
   64SAPC  H14B 5135   6.529   5.347   6.007  1.7418  2.8677  0.6900
   64SAPC  H14C 5136   6.516   5.184   6.088  1.0969 -0.1525 -0.2028
   64SAPC   C15 5137   6.753   5.157   6.177 -0.2538  0.2467 -0.1589
   64SAPC  H15A 5138   6.855   5.121   6.168  0.3876  1.4896  1.6863
   64SAPC  H15B 5139   6.737   5.220   6.263 -1.3891 -0.0272 -0.1629
   64SAPC  H15C 5140   6.696   5.066   6.184 -0.3342  0.2773 -0.4012
   64SAPC   C11 5141   6.872   5.133   5.875 -0.6335 -0.3908  0.7336
   64SAPC  H11A 5142   6.928   5.227   5.860  0.7882 -1.4641 -1.0329
   64SAPC  H11B 5143   6.868   5.088   5.774 -1.9355  0.2903  0.4676
   64SAPC     P 5144   7.089   5.080   6.022  0.3155  0.2775  0.0274
   64SAPC   O13 5145   7.182   4.973   5.979  0.1347 -0.0661 -0.0645
   64SAPC   O14 5146   7.132   5.220   5.989  0.2975  0.0690  0.7992
   64SAPC   O12 5147   6.943   5.049   5.965  0.1260  0.1692  0.1463
   64SAPC   O11 5148   7.072   5.066   6.174 -0.0742  0.0890 -0.8240
   64SAPC    C1 5149   7.045   4.937   6.229 -0.1196 -0.4262 -0.1975
   64SAPC    HA 5150   6.951   4.896   6.186 -0.4951  0.0697  0.1390
   64SAPC    HB 5151   7.127   4.866   6.204  1.5974  1.9330 -1.7798
   64SAPC    C2 5152   7.027   4.946   6.380  0.4804 -0.3855 -0.6628
   64SAPC    HS 5153   6.945   5.019   6.398 -2.1914 -3.2503 -0.2807
   64SAPC   O21 5154   7.153   4.983   6.433  0.4202  0.5042  0.3155
   64SAPC   C21 5155   7.160   5.083   6.524  0.3849  0.0919 -0.1670
   64SAPC   O22 5156   7.064   5.145   6.564  0.6280 -0.3788 -0.7069
   64SAPC   C22 5157   7.307   5.114   6.563 -0.0991  0.5986  0.6506
   64SAPC   H2R 5158   7.344   5.139   6.461 -2.3552  0.4770 -0.2558
   64SAPC   H2S 5159   7.304   5.209   6.621 -0.5137  0.3815  0.9869
   64SAPC    C3 5160   6.965   4.819   6.447 -0.6480  0.0265 -0.1783
   64SAPC    HX 5161   7.036   4.735   6.430 -0.7322 -0.2153  0.6120
   64SAPC    HY 5162   6.868   4.801   6.396  0.1334  0.5307 -1.8998
   64SAPC   O31 5163   6.960   4.822   6.588  0.4250  0.2561 -0.2314
   64SAPC   C31 5164   6.843   4.886   6.638 -0.2987 -0.2314  0.2616
   64SAPC   O32 5165   6.761   4.933   6.569  0.7076 -0.1269 -0.0728
   64SAPC   C32 5166   6.827   4.848   6.785 -0.2120 -0.6374  0.4149
   64SAPC   H2X 5167   6.928   4.837   6.830 -0.3159  0.6750  1.0061
   64SAPC   H2Y 5168   6.767   4.756   6.796 -0.2270 -0.3844  3.3117
   64SAPC   C23 5169   7.390   5.004   6.641 -0.5018 -0.5792  0.1572
   64SAPC   H3R 5170   7.496   5.036   6.644 -0.8530  0.5983  1.5194
   64SAPC   H3S 5171   7.391   4.909   6.584  2.0131 -0.4996 -0.0048
   64SAPC   C24 5172   7.326   4.968   6.778 -0.0044 -0.3787 -0.0183
   64SAPC   H4R 5173   7.265   5.054   6.813 -0.1671 -0.1563 -0.8302
   64SAPC   H4S 5174   7.404   4.959   6.857 -0.9179 -3.0475  0.6948
   64SAPC   C25 5175   7.257   4.836   6.781  0.5956  0.3103 -0.3712
   64SAPC   H5R 5176   7.229   4.796   6.682  2.1092 -1.1263 -0.2595
   64SAPC   C26 5177   7.215   4.776   6.893  0.3399  0.3179 -0.0348
   64SAPC   H6R 5178   7.161   4.681   6.885  1.8737 -0.5862  0.0267
   64SAPC   C27 5179   7.242   4.830   7.036  0.0021 -1.2917 -0.5930
   64SAPC   H7R 5180   7.221   4.939   7.039  0.4526 -1.1985 -0.7553
   64SAPC   H7S 5181   7.351   4.825   7.059  0.0911 -1.2633 -0.9994
   64SAPC   C28 5182   7.172   4.747   7.131  0.2128 -0.4024  0.2385
   64SAPC   H8R 5183   7.184   4.642   7.101  2.3342 -0.4734  1.1909
   64SAPC   C29 5184   7.080   4.786   7.223 -0.8052  0.2612 -0.3451
   64SAPC   H9R 5185   7.054   4.705   7.293  0.9032 -0.3719 -0.3973
   64SAPC  C210 5186   7.050   4.923   7.278  0.5340 -1.1342  0.0023
   64SAPC  H10R 5187   7.130   4.991   7.239  1.1962 -1.5364  0.6382
   64SAPC  H10S 5188   7.071   4.914   7.387 -1.2696  0.9243  0.5910
   64SAPC  C211 5189   6.913   4.978   7.256 -0.0597 -0.7313 -0.5371
   64SAPC  H11R 5190   6.872   4.972   7.154 -1.1844  1.1791 -0.2528
   64SAPC  C212 5191   6.831   5.036   7.351 -0.1188  0.4264 -0.2910
   64SAPC  H12R 5192   6.733   5.078   7.322  0.0440  0.4139 -0.8584
   64SAPC  C213 5193   6.856   5.038   7.504 -0.6110  0.1473 -0.1705
   64SAPC  H13R 5194   6.872   5.146   7.524  0.0690 -0.0392  0.3508
   64SAPC  H13S 5195   6.953   4.994   7.537 -0.1796  0.9219 -0.3880
   64SAPC  C214 5196   6.752   4.977   7.588 -0.8305 -0.3050  0.1567
   64SAPC  H14R 5197   6.715   4.877   7.560  1.9447 -1.3684 -0.0678
   64SAPC  C215 5198   6.694   5.042   7.691 -0.7254  0.0678  0.2983
   64SAPC  H15R 5199   6.605   4.993   7.732 -0.5130 -0.8359 -0.2760
   64SAPC  C216 5200   6.727   5.182   7.751 -0.3814  0.1309 -0.1990
   64SAPC  H16R 5201   6.646   5.250   7.717  1.4800  1.6088 -1.9207
   64SAPC  H16S 5202   6.825   5.225   7.722  0.3325 -0.3777  1.3897
   64SAPC  C217 5203   6.716   5.173   7.904  0.6450 -0.7627 -0.2576
   64SAPC  H17R 5204   6.622   5.121   7.932 -0.7265  0.6215 -2.0796
   64SAPC  H17S 5205   6.700   5.269   7.957 -0.2504 -2.2798  2.4231
   64SAPC  C218 5206   6.830   5.085   7.969 -0.9731 -0.2573 -0.1825
   64SAPC  H18R 5207   6.934   5.123   7.963 -0.1467 -2.5649 -2.6185
   64SAPC  H18S 5208   6.832   4.987   7.917  1.5925 -1.6119  2.2482
   64SAPC  C219 5209   6.801   5.057   8.119  0.2491 -0.6804  0.3283
   64SAPC  H19R 5210   6.697   5.019   8.127 -0.2278  0.6494  0.7257
   64SAPC  H19S 5211   6.806   5.151   8.177  3.0430 -0.9956  0.7464
   64SAPC  C220 5212   6.913   4.961   8.174 -0.7145 -0.1104 -0.0640
   64SAPC  H20R 5213   7.010   5.011   8.195 -0.3707 -1.1978  1.0415
   64SAPC  H20S 5214   6.926   4.870   8.110 -1.2097 -1.4123  1.6295
   64SAPC  H20T 5215   6.876   4.912   8.266 -1.4678  1.7478  0.6540
   64SAPC   C33 5216   6.759   4.962   6.863  0.1803 -0.2690  0.0616
   64SAPC   H3X 5217   6.757   4.927   6.968  1.2123  0.4541  0.3391
   64SAPC   H3Y 5218   6.659   4.985   6.820  1.0135  0.5358 -1.5788
   64SAPC   C34 5219   6.835   5.096   6.863  0.1857 -0.2512  0.7046
   64SAPC   H4X 5220   6.841   5.131   6.758  1.0115  1.4593  1.2756
   64SAPC   H4Y 5221   6.936   5.073   6.902 -1.0703 -1.7786  3.3434
   64SAPC   C35 5222   6.772   5.211   6.948  0.8730 -0.0179 -0.0048
   64SAPC   H5X 5223   6.751   5.177   7.051  1.7205  1.2603  0.6047
   64SAPC   H5Y 5224   6.674   5.231   6.901  1.4965  0.1943 -1.2709
   64SAPC   C36 5225   6.846   5.344   6.943  0.6088  0.7109 -0.9239
   64SAPC   H6X 5226   6.852   5.385   6.840  2.5263  1.7954 -0.4299
   64SAPC   H6Y 5227   6.951   5.323   6.973 -0.5022 -0.2078  2.7528
   64SAPC   C37 5228   6.777   5.444   7.032 -0.4349  0.3934  0.4826
   64SAPC   H7X 5229   6.668   5.423   7.037 -0.3632 -0.5967 -1.3834
   64SAPC   H7Y 5230   6.780   5.544   6.983  0.0142 -0.1115 -0.5690
   64SAPC   C38 5231   6.832   5.449   7.171 -0.4115  0.0843 -0.6418
   64SAPC   H8X 5232   6.935   5.489   7.177  0.8172 -2.9349  0.7160
   64SAPC   H8Y 5233   6.843   5.356   7.231  1.7933  2.3008  2.6577
   64SAPC   C39 5234   6.743   5.528   7.270 -0.1145  0.1772 -0.7467
   64SAPC   H9X 5235   6.637   5.494   7.267 -0.2636  0.3873  1.0087
   64SAPC   H9Y 5236   6.741   5.634   7.235  2.9992  0.4573 -0.3681
   64SAPC  C310 5237   6.797   5.505   7.415  0.0501 -0.1460  0.4288
   64SAPC  H10X 5238   6.903   5.538   7.411 -0.3041  0.8982 -0.9489
   64SAPC  H10Y 5239   6.791   5.396   7.436  0.9336 -0.8570 -2.5304
   64SAPC  C311 5240   6.713   5.584   7.519  0.3414  0.2979 -0.2414
   64SAPC  H11X 5241   6.606   5.554   7.517  0.4580 -0.3573  1.7306
   64SAPC  H11Y 5242   6.712   5.692   7.493  1.7740  0.1117 -1.1615
   64SAPC  C312 5243   6.765   5.561   7.662  0.0231  0.4647  0.0595
   64SAPC  H12X 5244   6.873   5.584   7.671 -0.3361  3.0198 -1.3776
   64SAPC  H12Y 5245   6.742   5.455   7.686  2.1559  0.2633  1.4272
   64SAPC  C313 5246   6.698   5.642   7.774 -0.0615 -0.0436  0.0358
   64SAPC  H13X 5247   6.594   5.608   7.758  0.2151 -0.7666 -0.2989
   64SAPC  H13Y 5248   6.709   5.747   7.742  3.4088  0.4786  2.3183
   64SAPC  C314 5249   6.756   5.626   7.919  0.2951 -0.4695  0.2533
   64SAPC  H14X 5250   6.860   5.660   7.898 -0.2877 -0.4019 -3.0681
   64SAPC  H14Y 5251   6.749   5.519   7.946 -0.1711 -0.3002  0.8144
   64SAPC  C315 5252   6.693   5.714   8.034  0.0500 -0.5705  0.3963
   64SAPC  H15X 5253   6.685   5.820   8.003 -3.6098 -0.3353  1.7271
   64SAPC  H15Y 5254   6.756   5.707   8.126 -0.9591  0.3959  1.1872
   64SAPC  C316 5255   6.547   5.675   8.053 -0.3926 -0.4231 -0.7497
   64SAPC  H16X 5256   6.554   5.574   8.099  1.2001  0.7549  1.8549
   64SAPC  H16Y 5257   6.487   5.688   7.961 -1.7346 -2.0388 -0.1535
   64SAPC  C317 5258   6.480   5.752   8.165  0.0011  0.7607 -0.7395
   64SAPC  H17X 5259   6.372   5.726   8.169  0.4441 -1.1451 -0.4627
   64SAPC  H17Y 5260   6.486   5.862   8.145  2.2165  0.6496 -0.8891
   64SAPC  C318 5261   6.545   5.733   8.310 -0.2134 -0.0056  0.4196
   64SAPC  H18X 5262   6.473   5.756   8.392  1.6676  1.7439  1.6878
   64SAPC  H18Y 5263   6.633   5.801   8.306 -1.4906  1.6589 -0.8152
   64SAPC  H18Z 5264   6.583   5.631   8.330 -0.5556  0.0460  1.4130
   65SAPC     N 5265   6.505   0.013   5.627  0.0196  0.2850  0.3524
   65SAPC   C12 5266   6.414   0.049   5.747  0.1481  0.2250  0.0431
   65SAPC  H12A 5267   6.311   0.048   5.714  0.5181  0.5206 -1.1738
   65SAPC  H12B 5268   6.425   0.151   5.779 -0.5771  0.3191  0.0078
   65SAPC   C13 5269   6.490  -0.136   5.609 -0.1620 -0.4046 -0.1227
   65SAPC  H13A 5270   6.507  -0.183   5.705 -2.6393 -0.7111  0.2585
   65SAPC  H13B 5271   6.388  -0.153   5.576 -1.2525  1.5823  1.8753
   65SAPC  H13C 5272   6.561  -0.172   5.536  0.1113  0.1450 -0.1369
   65SAPC   C14 5273   6.458   0.089   5.503 -0.3809  0.0282 -0.3518
   65SAPC  H14A 5274   6.361   0.058   5.468 -0.1036  0.2916 -1.3881
   65SAPC  H14B 5275   6.445   0.194   5.527 -1.6459 -0.2050  0.0419
   65SAPC  H14C 5276   6.527   0.083   5.420 -2.0402  0.7919 -1.8378
   65SAPC   C15 5277   6.642   0.057   5.656 -0.0348  0.0235  0.3031
   65SAPC  H15A 5278   6.675   0.032   5.756  0.5529 -1.8656 -0.3283
   65SAPC  H15B 5279   6.710   0.007   5.590 -2.3189  1.2349 -3.2505
   65SAPC  H15C 5280   6.658   0.160   5.627  1.4488 -0.1671  0.4092
   65SAPC   C11 5281   6.426  -0.030   5.882 -0.3996 -0.4200 -0.2384
   65SAPC  H11A 5282   6.401  -0.137   5.873  0.7427 -0.5430 -3.2956
   65SAPC  H11B 5283   6.344   0.004   5.949 -0.4655  1.1608 -1.0541
   65SAPC     P 5284   6.574   0.105   6.037  0.3438 -0.2785 -0.4619
   65SAPC   O13 5285   6.692   0.173   5.986 -0.1428 -0.2125  0.0469
   65SAPC   O14 5286   6.450   0.184   6.042 -0.2261  0.0660  0.6110
   65SAPC   O12 5287   6.556  -0.022   5.944  0.3659  0.7874 -0.3694
   65SAPC   O11 5288   6.616   0.045   6.178  0.2359  0.0048 -0.0795
   65SAPC    C1 5289   6.594   0.129   6.287  0.0458 -0.6304  0.1672
   65SAPC    HA 5290   6.660   0.218   6.293  1.2296 -1.5556  1.8374
   65SAPC    HB 5291   6.497   0.183   6.288  0.7708  0.7021  0.6998
   65SAPC    C2 5292   6.617   0.056   6.424 -0.0893 -0.5879  0.4470
   65SAPC    HS 5293   6.637   0.128   6.506  0.5667 -1.8579  1.4353
   65SAPC   O21 5294   6.721  -0.046   6.418  0.2803  0.2770 -0.0425
   65SAPC   C21 5295   6.846   0.003   6.435 -0.1077  0.2208  0.5663
   65SAPC   O22 5296   6.874   0.124   6.445 -0.0677  0.6210 -1.0779
   65SAPC   C22 5297   6.937  -0.114   6.416 -0.1130 -0.1997  0.0296
   65SAPC   H2R 5298   6.900  -0.194   6.483 -1.2937  0.0244 -0.3446
   65SAPC   H2S 5299   6.915  -0.160   6.318 -0.0730  0.4065 -0.2708
   65SAPC    C3 5300   6.490  -0.014   6.470  0.1009  0.0688 -0.0056
   65SAPC    HX 5301   6.458  -0.102   6.410  0.8733  1.1806 -2.1682
   65SAPC    HY 5302   6.411   0.063   6.459  0.1469  0.1934  0.5021
   65SAPC   O31 5303   6.508  -0.042   6.607 -0.6473  0.1999  0.0150
   65SAPC   C31 5304   6.494  -0.159   6.654 -0.3286  0.3191  0.3215
   65SAPC   O32 5305   6.471  -0.261   6.590 -0.3066 -0.1563  0.0294
   65SAPC   C32 5306   6.533  -0.161   6.801  0.4783 -0.5847  0.4117
   65SAPC   H2X 5307   6.642  -0.140   6.806  0.7251 -1.9429  1.3248
   65SAPC   H2Y 5308   6.513  -0.267   6.831  0.5662 -1.2128 -1.6037
   65SAPC   C23 5309   7.089  -0.086   6.421  0.0072  0.2446  0.2494
   65SAPC   H3R 5310   7.114  -0.007   6.347 -2.7082  0.8266 -0.1611
   65SAPC   H3S 5311   7.145  -0.181   6.410 -0.3466 -0.3795  3.1294
   65SAPC   C24 5312   7.138  -0.045   6.564  0.2545  0.8188 -0.4975
   65SAPC   H4R 5313   7.114   0.063   6.565 -1.7010  0.4314 -1.5558
   65SAPC   H4S 5314   7.249  -0.053   6.564  0.1166 -2.5967  0.2529
   65SAPC   C25 5315   7.090  -0.137   6.680 -0.6437  0.0492  0.5536
   65SAPC   H5R 5316   7.106  -0.245   6.664  1.7405  0.5213 -0.6413
   65SAPC   C26 5317   7.035  -0.099   6.802  0.0382  0.3900  0.3102
   65SAPC   H6R 5318   7.001  -0.174   6.875 -0.5465 -0.3434 -0.6982
   65SAPC   C27 5319   7.034   0.046   6.846  0.4132  0.0821 -0.2571
   65SAPC   H7R 5320   7.105   0.102   6.782 -1.2045  0.2454 -2.0096
   65SAPC   H7S 5321   7.086   0.061   6.943  3.1091 -0.9538 -1.4378
   65SAPC   C28 5322   6.895   0.089   6.852 -0.4430  0.0297 -0.5543
   65SAPC   H8R 5323   6.858   0.139   6.761  1.7070 -0.8352 -1.9860
   65SAPC   C29 5324   6.806   0.065   6.957 -0.0308  0.2377  0.4147
   65SAPC   H9R 5325   6.711   0.120   6.963 -0.4394 -0.5631  1.9464
   65SAPC  C210 5326   6.846  -0.006   7.086 -0.4125 -0.4354 -0.2021
   65SAPC  H10R 5327   6.931  -0.075   7.065  0.9473  1.2340 -0.3123
   65SAPC  H10S 5328   6.770  -0.074   7.130 -1.2352  0.9779  0.6375
   65SAPC  C211 5329   6.892   0.079   7.194 -0.7136  0.3906  0.3950
   65SAPC  H11R 5330   6.952   0.159   7.146  1.0271 -1.9948 -1.6719
   65SAPC  C212 5331   6.860   0.073   7.324  0.0307 -0.4982 -0.4614
   65SAPC  H12R 5332   6.924   0.134   7.389 -1.4616  0.8483 -0.1808
   65SAPC  C213 5333   6.762  -0.030   7.380 -0.4276  0.0502 -0.1346
   65SAPC  H13R 5334   6.666  -0.014   7.328 -1.2611 -1.4990  0.8495
   65SAPC  H13S 5335   6.744  -0.016   7.489 -1.9275  0.1853 -0.3841
   65SAPC  C214 5336   6.802  -0.180   7.360 -0.4914  0.3084 -0.4742
   65SAPC  H14R 5337   6.869  -0.198   7.274 -2.1946 -1.6517 -1.4947
   65SAPC  C215 5338   6.757  -0.276   7.445 -0.5335  0.5606  0.5955
   65SAPC  H15R 5339   6.778  -0.378   7.410 -0.1210  1.6381 -2.7088
   65SAPC  C216 5340   6.647  -0.271   7.549  0.9955 -0.1600  0.1941
   65SAPC  H16R 5341   6.643  -0.165   7.582  1.6068  0.0649 -0.4057
   65SAPC  H16S 5342   6.680  -0.321   7.642  2.1445  0.5122  0.1711
   65SAPC  C217 5343   6.513  -0.330   7.497 -0.4148 -0.4285  0.1597
   65SAPC  H17R 5344   6.522  -0.437   7.468 -0.6178 -0.9899  1.9995
   65SAPC  H17S 5345   6.466  -0.271   7.416  0.1056 -1.1609 -0.6901
   65SAPC  C218 5346   6.404  -0.340   7.609  0.2481  0.5855 -0.4090
   65SAPC  H18R 5347   6.449  -0.409   7.684  0.4154  1.3199  0.1807
   65SAPC  H18S 5348   6.317  -0.394   7.567  1.7850 -0.2027 -2.7848
   65SAPC  C219 5349   6.368  -0.207   7.680  0.7423 -0.3937  0.1963
   65SAPC  H19R 5350   6.456  -0.158   7.726 -0.7309  1.9020  0.7217
   65SAPC  H19S 5351   6.295  -0.236   7.760 -0.4441 -1.1974 -1.1183
   65SAPC  C220 5352   6.325  -0.110   7.581 -0.1819  0.3027  0.6641
   65SAPC  H20R 5353   6.296  -0.011   7.624 -0.5088  1.3244 -1.7769
   65SAPC  H20S 5354   6.242  -0.152   7.520  2.5527 -2.8519 -1.2045
   65SAPC  H20T 5355   6.404  -0.082   7.509 -0.7311  1.5273  0.5186
   65SAPC   C33 5356   6.439  -0.076   6.888  0.1852  0.1406  1.0512
   65SAPC   H3X 5357   6.340  -0.110   6.850  2.2486 -2.7798 -2.2589
   65SAPC   H3Y 5358   6.446   0.031   6.860  2.2094  0.5159  2.7672
   65SAPC   C34 5359   6.470  -0.090   7.034  0.6842 -0.6206 -0.4169
   65SAPC   H4X 5360   6.569  -0.048   7.059  1.6001 -2.4224 -0.8727
   65SAPC   H4Y 5361   6.485  -0.198   7.057 -0.9993 -0.8138 -0.0502
   65SAPC   C35 5362   6.360  -0.053   7.136  0.0355  0.3888  0.4156
   65SAPC   H5X 5363   6.396  -0.078   7.238 -0.5644 -1.0534  0.3055
   65SAPC   H5Y 5364   6.285  -0.135   7.128  0.7660 -0.1152 -1.6914
   65SAPC   C36 5365   6.295   0.084   7.113 -0.0195  0.2651  0.4007
   65SAPC   H6X 5366   6.214   0.071   7.038  0.6039 -1.2863 -0.0385
   65SAPC   H6Y 5367   6.368   0.140   7.050 -3.0334 -0.1710 -3.8966
   65SAPC   C37 5368   6.260   0.158   7.245 -0.2647 -0.4865 -0.6933
   65SAPC   H7X 5369   6.199   0.085   7.303 -1.0760 -0.3385 -1.3419
   65SAPC   H7Y 5370   6.208   0.252   7.217 -0.8613 -0.8118 -0.7101
   65SAPC   C38 5371   6.387   0.199   7.319 -0.5254  0.5870  0.6425
   65SAPC   H8X 5372   6.439   0.266   7.246  2.1538 -2.4532 -0.4748
   65SAPC   H8Y 5373   6.445   0.106   7.336 -1.6843 -0.3107 -0.1836
   65SAPC   C39 5374   6.358   0.261   7.457  0.1758  0.2338 -0.2193
   65SAPC   H9X 5375   6.306   0.187   7.520  0.6545  0.2962  0.2632
   65SAPC   H9Y 5376   6.292   0.350   7.459 -0.9852 -0.6183  2.0895
   65SAPC  C310 5377   6.491   0.283   7.535 -0.1243 -0.2069  0.0448
   65SAPC  H10X 5378   6.535   0.364   7.473  3.6542 -1.6040  0.6707
   65SAPC  H10Y 5379   6.548   0.189   7.523 -0.9321 -0.5767 -0.9932
   65SAPC  C311 5380   6.478   0.316   7.685  0.0404 -0.0318  0.1406
   65SAPC  H11X 5381   6.385   0.374   7.702  0.1053  0.1977 -0.2640
   65SAPC  H11Y 5382   6.568   0.379   7.704  1.2765 -1.8303  0.5625
   65SAPC  C312 5383   6.473   0.200   7.781  0.0932 -0.7454 -0.0917
   65SAPC  H12X 5384   6.540   0.118   7.750 -1.6268 -2.3615  0.2883
   65SAPC  H12Y 5385   6.372   0.159   7.759  0.0657  0.2686 -2.1070
   65SAPC  C313 5386   6.512   0.250   7.926  0.0048 -0.6130 -0.8783
   65SAPC  H13X 5387   6.436   0.321   7.964 -0.6773 -1.1163 -1.2717
   65SAPC  H13Y 5388   6.605   0.310   7.914 -1.3187  1.4581 -1.4021
   65SAPC  C314 5389   6.537   0.145   8.031 -0.2291 -0.3658 -0.0514
   65SAPC  H14X 5390   6.533   0.193   8.131 -5.8478 -2.4195  1.0520
   65SAPC  H14Y 5391   6.630   0.088   8.008  0.3967  1.4112 -2.4129
   65SAPC  C315 5392   6.435   0.032   8.054 -0.7971 -0.6932 -0.3170
   65SAPC  H15X 5393   6.396  -0.003   7.956  1.0820 -2.6126 -0.4460
   65SAPC  H15Y 5394   6.347   0.071   8.109 -0.6286  0.9887 -1.1804
   65SAPC  C316 5395   6.489  -0.076   8.140 -0.2779  0.1566 -0.1929
   65SAPC  H16X 5396   6.541  -0.018   8.220 -2.6559  0.0095  1.5946
   65SAPC  H16Y 5397   6.552  -0.141   8.076 -0.3588 -1.0879  0.9310
   65SAPC  C317 5398   6.374  -0.157   8.203  0.1137 -0.6104  0.0163
   65SAPC  H17X 5399   6.327  -0.086   8.274 -0.7793 -0.7666 -0.4142
   65SAPC  H17Y 5400   6.423  -0.239   8.260  0.8262  0.2144  0.6072
   65SAPC  C318 5401   6.271  -0.225   8.115 -0.0869 -0.4678  0.0430
   65SAPC  H18X 5402   6.210  -0.292   8.179 -1.8039 -1.0369 -2.0585
   65SAPC  H18Y 5403   6.319  -0.301   8.049  2.8141  1.8174 -0.7065
   65SAPC  H18Z 5404   6.209  -0.157   8.053 -1.8093 -3.0325 -1.2341
   66SAPC     N 5405   4.396   5.921   5.695  0.0770  0.6866  0.3870
   66SAPC   C12 5406   4.276   5.954   5.786  0.0968 -0.0589 -0.0513
   66SAPC  H12A 5407   4.300   5.922   5.886 -1.8281  1.6984  1.0416
   66SAPC  H12B 5408   4.194   5.888   5.762  0.1960  0.0597 -0.7469
   66SAPC   C13 5409   4.505   6.025   5.723  0.1485 -0.2011 -0.2340
   66SAPC  H13A 5410   4.587   5.984   5.666  2.0860  1.9736  0.7810
   66SAPC  H13B 5411   4.491   6.130   5.700  3.3214  0.3730 -0.0537
   66SAPC  H13C 5412   4.548   6.011   5.821  0.7207  0.1234 -0.4324
   66SAPC   C14 5413   4.449   5.784   5.728 -0.1973  0.1916  0.0537
   66SAPC  H14A 5414   4.374   5.717   5.689  0.5464  0.1494 -1.3740
   66SAPC  H14B 5415   4.542   5.777   5.674  0.4917 -0.2259  1.2574
   66SAPC  H14C 5416   4.454   5.769   5.835  1.7383  0.2783  0.0031
   66SAPC   C15 5417   4.352   5.930   5.555  0.7371 -0.2043  0.6955
   66SAPC  H15A 5418   4.433   5.934   5.483  1.9601 -0.0629  2.0339
   66SAPC  H15B 5419   4.270   5.865   5.526 -0.1077  0.6692  1.0880
   66SAPC  H15C 5420   4.299   6.021   5.533 -0.6796 -0.8490  1.3646
   66SAPC   C11 5421   4.222   6.098   5.796  0.1490  0.2740  0.0496
   66SAPC  H11A 5422   4.115   6.089   5.823 -0.3102  2.3793 -0.8747
   66SAPC  H11B 5423   4.234   6.151   5.699  1.9737  1.4375  0.8479
   66SAPC     P 5424   4.279   6.135   6.054  0.5245 -0.2854 -0.4667
   66SAPC   O13 5425   4.368   6.019   6.090  0.0552 -0.0697  0.6386
   66SAPC   O14 5426   4.315   6.264   6.120 -0.4434  0.9446  0.0050
   66SAPC   O12 5427   4.290   6.159   5.900 -0.1770 -0.5694  0.1338
   66SAPC   O11 5428   4.126   6.093   6.068 -0.1064  0.0941 -0.3624
   66SAPC    C1 5429   4.026   6.184   6.122  0.0761  0.3254  0.2193
   66SAPC    HA 5430   4.047   6.291   6.098 -2.0544  0.7222 -0.1319
   66SAPC    HB 5431   3.929   6.153   6.076  0.0021  0.4553  0.2842
   66SAPC    C2 5432   4.005   6.174   6.279 -0.3894 -0.0054  0.0274
   66SAPC    HS 5433   3.915   6.233   6.309 -0.6836  0.6459 -1.9720
   66SAPC   O21 5434   4.107   6.222   6.365 -0.3837  0.4438 -0.6824
   66SAPC   C21 5435   4.134   6.357   6.357  1.0023  0.7037 -0.1258
   66SAPC   O22 5436   4.065   6.436   6.300  0.6434 -0.3063 -0.1952
   66SAPC   C22 5437   4.250   6.393   6.448 -0.4684  0.1099  0.3409
   66SAPC   H2R 5438   4.293   6.307   6.503 -1.2410  0.9505  2.3637
   66SAPC   H2S 5439   4.340   6.410   6.386 -0.9218 -2.1141 -1.0357
   66SAPC    C3 5440   3.977   6.023   6.318 -0.1777 -0.3990 -0.3103
   66SAPC    HX 5441   4.041   5.940   6.280 -1.7466 -2.5484  1.5007
   66SAPC    HY 5442   3.877   5.999   6.277  1.0700 -1.6582 -2.8520
   66SAPC   O31 5443   3.971   6.000   6.464  0.5173  0.1132  0.0725
   66SAPC   C31 5444   4.088   5.966   6.519 -0.0182  0.1311  0.1737
   66SAPC   O32 5445   4.188   5.930   6.456  0.4301  0.1119 -0.3464
   66SAPC   C32 5446   4.068   5.954   6.668 -0.2430 -0.0039 -0.1905
   66SAPC   H2X 5447   4.009   5.861   6.683  0.5627 -0.8818 -2.1001
   66SAPC   H2Y 5448   4.010   6.041   6.705 -2.7913 -1.1754 -1.1936
   66SAPC   C23 5449   4.210   6.502   6.556  0.3148  0.7942 -0.2931
   66SAPC   H3R 5450   4.172   6.591   6.502  2.1657  2.4493  0.9978
   66SAPC   H3S 5451   4.305   6.529   6.607  0.6038  0.1978 -0.4972
   66SAPC   C24 5452   4.095   6.462   6.654  0.2333  0.3010  0.7653
   66SAPC   H4R 5453   4.109   6.357   6.686 -0.9277 -0.4469 -0.9926
   66SAPC   H4S 5454   4.008   6.467   6.584  0.5615  0.2930  0.3499
   66SAPC   C25 5455   4.081   6.567   6.765 -0.5463  0.2992 -0.1984
   66SAPC   H5R 5456   4.008   6.647   6.745 -1.2915 -0.4794 -0.6209
   66SAPC   C26 5457   4.145   6.560   6.886  0.2238 -0.1706  0.3434
   66SAPC   H6R 5458   4.143   6.653   6.944 -2.8757  0.7346 -0.9905
   66SAPC   C27 5459   4.242   6.452   6.932 -0.6318 -0.1341  0.1119
   66SAPC   H7R 5460   4.275   6.377   6.856  1.3056 -0.1524  0.9243
   66SAPC   H7S 5461   4.204   6.395   7.019 -0.3729 -0.7240 -0.1565
   66SAPC   C28 5462   4.377   6.512   6.983 -0.1789 -0.4849 -0.8876
   66SAPC   H8R 5463   4.442   6.553   6.904  0.8763  0.9224  0.6352
   66SAPC   C29 5464   4.414   6.520   7.113  0.2263  0.2720 -0.6214
   66SAPC   H9R 5465   4.512   6.569   7.127  0.2977 -0.0225 -0.0896
   66SAPC  C210 5466   4.347   6.483   7.238  0.1127 -0.0942  0.3109
   66SAPC  H10R 5467   4.259   6.549   7.255  0.1141  0.0122 -0.1001
   66SAPC  H10S 5468   4.424   6.500   7.316  1.1272  2.4846 -1.1313
   66SAPC  C211 5469   4.303   6.336   7.254  0.5790 -0.6075 -0.7382
   66SAPC  H11R 5470   4.292   6.283   7.159 -2.8504 -1.1500 -0.1748
   66SAPC  C212 5471   4.283   6.267   7.372 -0.3048 -0.0734  0.5347
   66SAPC  H12R 5472   4.239   6.167   7.364  1.9909 -1.2670  1.7213
   66SAPC  C213 5473   4.288   6.321   7.518  0.7225 -0.2315  0.1469
   66SAPC  H13R 5474   4.188   6.339   7.562  1.4911  0.7613  1.5341
   66SAPC  H13S 5475   4.337   6.421   7.518  0.7948 -0.2654  0.0310
   66SAPC  C214 5476   4.358   6.225   7.609 -0.2140 -0.0084 -0.6063
   66SAPC  H14R 5477   4.352   6.120   7.576  3.1337 -0.7136  0.6941
   66SAPC  C215 5478   4.423   6.259   7.728  1.0008 -0.1781  0.3077
   66SAPC  H15R 5479   4.465   6.179   7.790  0.9013  1.3232  2.4062
   66SAPC  C216 5480   4.445   6.392   7.789  0.7495  0.0314  0.0825
   66SAPC  H16R 5481   4.350   6.446   7.770  0.6321 -0.3985 -0.5799
   66SAPC  H16S 5482   4.520   6.451   7.731 -0.0853  1.4539  0.4109
   66SAPC  C217 5483   4.490   6.387   7.935  0.4756 -0.5500 -0.3338
   66SAPC  H17R 5484   4.420   6.326   7.995  0.7104 -0.7151 -0.2270
   66SAPC  H17S 5485   4.490   6.489   7.979  1.9175 -0.3132 -0.8231
   66SAPC  C218 5486   4.631   6.329   7.947 -0.4250 -0.0561  0.7828
   66SAPC  H18R 5487   4.706   6.398   7.902  0.4257 -1.3553  0.1347
   66SAPC  H18S 5488   4.634   6.232   7.893 -0.8653  1.2730 -1.7893
   66SAPC  C219 5489   4.672   6.315   8.095  0.4903 -0.0982  0.0792
   66SAPC  H19R 5490   4.639   6.212   8.122  2.5779 -0.5867  0.9441
   66SAPC  H19S 5491   4.632   6.403   8.149 -2.1035 -0.7045 -0.7028
   66SAPC  C220 5492   4.822   6.307   8.105 -0.3040 -0.6031 -0.7574
   66SAPC  H20R 5493   4.865   6.238   8.028  0.6043  1.0758 -1.8150
   66SAPC  H20S 5494   4.852   6.268   8.205  0.2170  2.2317  0.2806
   66SAPC  H20T 5495   4.876   6.401   8.082  0.5247 -0.6465  0.8815
   66SAPC   C33 5496   4.195   5.936   6.754 -0.1260  0.1816  0.9452
   66SAPC   H3X 5497   4.274   6.000   6.709 -1.9478  1.5707 -0.4225
   66SAPC   H3Y 5498   4.232   5.833   6.730 -0.9627  0.2395 -0.7016
   66SAPC   C34 5499   4.164   5.960   6.901 -0.4458 -0.3182  0.4323
   66SAPC   H4X 5500   4.141   6.066   6.925 -0.9157 -0.8089  2.3069
   66SAPC   H4Y 5501   4.260   5.931   6.951  0.3298 -0.2823 -0.9882
   66SAPC   C35 5502   4.059   5.869   6.966 -0.0484  0.3249  0.3167
   66SAPC   H5X 5503   4.092   5.764   6.957  2.5895  0.8346  2.5004
   66SAPC   H5Y 5504   3.959   5.888   6.922 -0.2420 -0.3147  0.4717
   66SAPC   C36 5505   4.046   5.896   7.114  0.1967  0.0926  0.4607
   66SAPC   H6X 5506   3.981   5.817   7.157 -1.7182  1.8199  0.8849
   66SAPC   H6Y 5507   3.999   5.995   7.128 -0.9599 -0.2918 -0.5232
   66SAPC   C37 5508   4.183   5.888   7.184  0.0948  0.4105 -0.1440
   66SAPC   H7X 5509   4.249   5.976   7.170 -3.1550  2.8075 -1.7402
   66SAPC   H7Y 5510   4.234   5.795   7.149  1.2515 -0.0390  2.5006
   66SAPC   C38 5511   4.150   5.864   7.338  0.1458 -0.4738 -0.0310
   66SAPC   H8X 5512   4.088   5.773   7.345 -0.2502 -0.3724 -1.8015
   66SAPC   H8Y 5513   4.096   5.955   7.371 -0.2851 -0.4422 -0.8081
   66SAPC   C39 5514   4.270   5.836   7.425 -0.4324  0.5959  0.1147
   66SAPC   H9X 5515   4.347   5.915   7.412  0.5056 -0.2154  0.6659
   66SAPC   H9Y 5516   4.316   5.746   7.381 -0.0151  0.9218 -0.1226
   66SAPC  C310 5517   4.234   5.818   7.571 -0.3892  0.7599 -0.7210
   66SAPC  H10X 5518   4.177   5.725   7.592 -0.7120  1.2924  1.0057
   66SAPC  H10Y 5519   4.167   5.901   7.602 -1.4006 -0.8777  1.8355
   66SAPC  C311 5520   4.356   5.831   7.666  0.7312  0.5458  0.1512
   66SAPC  H11X 5521   4.399   5.928   7.632 -2.5076  1.9930 -0.1934
   66SAPC  H11Y 5522   4.426   5.744   7.662  0.9346  0.7342 -0.6086
   66SAPC  C312 5523   4.313   5.843   7.815  0.6494 -0.0648 -0.2966
   66SAPC  H12X 5524   4.246   5.757   7.834 -1.2583  0.7371 -2.8926
   66SAPC  H12Y 5525   4.257   5.939   7.809  2.0531  0.8453  0.4576
   66SAPC  C313 5526   4.426   5.869   7.910 -0.5376  0.2464 -0.2742
   66SAPC  H13X 5527   4.402   5.951   7.981 -0.7287 -2.3751  2.8574
   66SAPC  H13Y 5528   4.515   5.897   7.849 -0.9365  0.0981 -0.9460
   66SAPC  C314 5529   4.450   5.749   8.002  0.1731 -0.2742 -0.2827
   66SAPC  H14X 5530   4.351   5.714   8.040 -1.2946  1.5269 -2.1976
   66SAPC  H14Y 5531   4.517   5.776   8.086  1.5489 -3.3735 -0.2486
   66SAPC  C315 5532   4.532   5.635   7.932  0.3577  0.1818 -0.1492
   66SAPC  H15X 5533   4.591   5.677   7.847 -0.1718 -1.0161 -1.1515
   66SAPC  H15Y 5534   4.468   5.565   7.874  0.3660  0.7603 -0.8670
   66SAPC  C316 5535   4.612   5.558   8.037 -0.3072 -0.1048 -0.2311
   66SAPC  H16X 5536   4.538   5.511   8.106 -0.9948 -0.0568 -0.9238
   66SAPC  H16Y 5537   4.675   5.632   8.091  0.4173 -1.4113  0.7754
   66SAPC  C317 5538   4.695   5.446   7.976  0.1752 -0.3017 -0.1799
   66SAPC  H17X 5539   4.711   5.472   7.869 -1.4137  0.9137 -0.1503
   66SAPC  H17Y 5540   4.635   5.352   7.977 -2.1582  1.0684 -1.1486
   66SAPC  C318 5541   4.830   5.432   8.048 -0.4808 -0.2761 -0.8091
   66SAPC  H18X 5542   4.884   5.347   8.003  1.5716 -0.4810  1.7970
   66SAPC  H18Y 5543   4.815   5.394   8.151  4.1139 -0.6273 -0.0727
   66SAPC  H18Z 5544   4.882   5.530   8.057 -2.0267  0.5149 -0.1090
   67SAPC     N 5545   0.293   0.823   6.477  0.2215 -0.4218 -0.0223
   67SAPC   C12 5546   0.170   0.882   6.526  0.5678 -0.1047  0.0134
   67SAPC  H12A 5547   0.110   0.805   6.573  0.3921  0.2664  0.4108
   67SAPC  H12B 5548   0.113   0.919   6.443 -1.7282 -2.6397  0.3011
   67SAPC   C13 5549   0.352   0.723   6.568 -0.2829 -0.6995  0.7209
   67SAPC  H13A 5550   0.441   0.680   6.523 -0.3249  1.7529 -1.9544
   67SAPC  H13B 5551   0.384   0.770   6.660  3.1583 -0.1895 -0.5825
   67SAPC  H13C 5552   0.290   0.638   6.593  1.5383 -2.3692 -0.1523
   67SAPC   C14 5553   0.263   0.755   6.344  0.4305 -0.3120 -0.2323
   67SAPC  H14A 5554   0.217   0.658   6.355  0.2035 -0.1124  0.6763
   67SAPC  H14B 5555   0.212   0.817   6.272  0.4698 -0.8851 -0.7619
   67SAPC  H14C 5556   0.359   0.746   6.297  1.9498  1.5255  2.2425
   67SAPC   C15 5557   0.387   0.940   6.436  0.3969  0.8427  0.3672
   67SAPC  H15A 5558   0.428   0.998   6.517  0.7637 -0.3284  1.0515
   67SAPC  H15B 5559   0.462   0.903   6.367  0.7197 -2.0895  2.0863
   67SAPC  H15C 5560   0.338   1.008   6.369  0.3400 -1.0166 -1.5774
   67SAPC   C11 5561   0.183   0.997   6.623 -0.0977 -0.2503  0.1257
   67SAPC  H11A 5562   0.267   0.982   6.695 -0.2534 -0.5537  0.2447
   67SAPC  H11B 5563   0.091   0.986   6.684  0.6261 -1.2911  1.0667
   67SAPC     P 5564   0.085   1.199   6.496  0.7646  0.0339  0.1716
   67SAPC   O13 5565   0.140   1.325   6.451  0.5894 -0.5356  0.1248
   67SAPC   O14 5566   0.024   1.119   6.387  0.1775 -0.5175  0.6524
   67SAPC   O12 5567   0.206   1.123   6.557  0.4640  0.2099 -0.0861
   67SAPC   O11 5568   0.001   1.224   6.626 -0.0062  0.1494 -0.0551
   67SAPC    C1 5569  -0.132   1.272   6.611  0.1857 -0.0989 -0.0388
   67SAPC    HA 5570  -0.135   1.383   6.599 -0.0086 -0.2002 -1.0482
   67SAPC    HB 5571  -0.189   1.238   6.521 -1.3825 -1.0629  1.2632
   67SAPC    C2 5572  -0.221   1.219   6.730 -0.0208 -0.9969 -0.0627
   67SAPC    HS 5573  -0.319   1.271   6.725  0.9740  0.9641  0.1011
   67SAPC   O21 5574  -0.160   1.226   6.858  0.9967 -0.0159  0.5001
   67SAPC   C21 5575  -0.133   1.349   6.891  0.3339 -0.6160 -0.2100
   67SAPC   O22 5576  -0.189   1.449   6.838 -0.4686 -0.1848  0.2930
   67SAPC   C22 5577  -0.057   1.348   7.027  0.5685 -0.3757  0.4147
   67SAPC   H2R 5578  -0.120   1.306   7.109 -0.6386 -1.0819 -0.8400
   67SAPC   H2S 5579   0.033   1.289   7.001  1.0081  1.5963 -3.0413
   67SAPC    C3 5580  -0.259   1.068   6.708  0.7499 -0.0597  0.4855
   67SAPC    HX 5581  -0.171   1.005   6.685 -0.2680 -1.6618  0.8811
   67SAPC    HY 5582  -0.314   1.082   6.613 -0.1044  0.3284  1.0286
   67SAPC   O31 5583  -0.340   1.024   6.821  0.0965  0.4390 -0.1095
   67SAPC   C31 5584  -0.290   0.925   6.890 -0.9804  0.4926 -1.1988
   67SAPC   O32 5585  -0.189   0.862   6.867 -0.1034  0.2123 -0.2590
   67SAPC   C32 5586  -0.383   0.894   7.007  0.0130  0.1955 -0.5125
   67SAPC   H2X 5587  -0.393   0.788   7.040  0.5907  1.0228  2.7027
   67SAPC   H2Y 5588  -0.481   0.924   6.963  0.8444  1.4031 -1.6078
   67SAPC   C23 5589  -0.013   1.490   7.058 -0.2127 -0.1648 -0.4065
   67SAPC   H3R 5590  -0.090   1.570   7.058 -1.5742 -1.2845  3.3742
   67SAPC   H3S 5591   0.052   1.523   6.974  1.7163 -1.1382  0.6439
   67SAPC   C24 5592   0.068   1.498   7.188 -1.0774  0.2712 -0.4537
   67SAPC   H4R 5593   0.015   1.448   7.272 -1.0729  0.8363 -0.1134
   67SAPC   H4S 5594   0.071   1.606   7.211  2.1785 -0.1737  1.8979
   67SAPC   C25 5595   0.201   1.430   7.173 -0.5718 -0.1847 -0.6272
   67SAPC   H5R 5596   0.243   1.433   7.071 -0.6699 -0.3117 -0.6710
   67SAPC   C26 5597   0.264   1.360   7.275 -0.8098 -0.3424 -0.0326
   67SAPC   H6R 5598   0.363   1.315   7.260 -0.0897  0.9868  0.5557
   67SAPC   C27 5599   0.224   1.348   7.423 -0.3250  0.2103  0.3783
   67SAPC   H7R 5600   0.171   1.442   7.450  2.0860  1.6255  0.4616
   67SAPC   H7S 5601   0.314   1.346   7.488 -0.5524  0.4026  0.7019
   67SAPC   C28 5602   0.129   1.238   7.447 -0.1194  0.0539 -0.4300
   67SAPC   H8R 5603   0.075   1.199   7.359 -0.1094 -0.0379 -0.3952
   67SAPC   C29 5604   0.098   1.185   7.570 -0.1085  0.2123  0.1558
   67SAPC   H9R 5605   0.046   1.088   7.571  2.4514 -1.2923 -0.6154
   67SAPC  C210 5606   0.157   1.221   7.707  0.3229  0.3122  0.2189
   67SAPC  H10R 5607   0.102   1.302   7.758 -2.0007 -0.0806 -1.5268
   67SAPC  H10S 5608   0.262   1.252   7.685 -0.8638  3.1017 -1.9949
   67SAPC  C211 5609   0.162   1.107   7.804  0.2613  0.2282 -0.2610
   67SAPC  H11R 5610   0.209   1.013   7.769  1.2444 -0.2136  2.0432
   67SAPC  C212 5611   0.098   1.097   7.926 -0.1964  0.2457  0.6322
   67SAPC  H12R 5612   0.113   1.008   7.989 -1.7283 -0.9285 -0.6113
   67SAPC  C213 5613   0.012   1.200   7.989  0.7483  0.8277  1.1274
   67SAPC  H13R 5614  -0.089   1.174   7.949  0.7071 -0.4203  2.0010
   67SAPC  H13S 5615   0.034   1.303   7.954  0.7998  0.4867  0.1181
   67SAPC  C214 5616   0.008   1.200   8.140 -0.4212 -0.2210  0.3785
   67SAPC  H14R 5617  -0.059   1.126   8.186 -0.6500  0.5836  1.3682
   67SAPC  C215 5618   0.080   1.280   8.224 -1.1888 -0.0616  0.0932
   67SAPC  H15R 5619   0.078   1.251   8.330  3.9176  0.0134  0.4168
   67SAPC  C216 5620   0.184   1.379   8.188  0.0313 -0.1124  0.4887
   67SAPC  H16R 5621   0.219   1.382   8.083  2.6914  3.4382  1.2973
   67SAPC  H16S 5622   0.279   1.347   8.237  0.2643  0.0152  0.1208
   67SAPC  C217 5623   0.141   1.518   8.230  0.1680 -0.5315  0.3376
   67SAPC  H17R 5624   0.041   1.536   8.184  1.2384 -0.9446 -2.3358
   67SAPC  H17S 5625   0.206   1.597   8.186 -0.6079 -0.9616 -1.6660
   67SAPC  C218 5626   0.136   1.545   8.381 -0.2830 -0.1766  0.7805
   67SAPC  H18R 5627   0.066   1.469   8.424 -0.5770  0.4176  1.3678
   67SAPC  H18S 5628   0.084   1.642   8.393  1.3319  0.7658  0.3826
   67SAPC  C219 5629   0.274   1.549   8.456 -0.0050  0.2081 -0.1489
   67SAPC  H19R 5630   0.319   1.643   8.416 -0.2231 -0.1815 -1.3554
   67SAPC  H19S 5631   0.334   1.459   8.432  1.1949  1.0240 -0.3531
   67SAPC  C220 5632   0.262   1.564   8.605  1.5073  0.2271  0.0964
   67SAPC  H20R 5633   0.213   1.660   8.632 -1.7745 -1.6250  1.2614
   67SAPC  H20S 5634   0.365   1.569   8.646  0.5483  0.9367  2.6544
   67SAPC  H20T 5635   0.215   1.474   8.650  0.8830 -0.0318 -1.0322
   67SAPC   C33 5636  -0.347   0.981   7.128 -0.1579  0.1654 -0.5288
   67SAPC   H3X 5637  -0.439   0.989   7.190 -0.0467 -0.2649 -0.3026
   67SAPC   H3Y 5638  -0.333   1.086   7.095  1.9450 -0.8047 -3.0025
   67SAPC   C34 5639  -0.230   0.918   7.211 -0.4156  0.4204  0.6818
   67SAPC   H4X 5640  -0.137   0.958   7.164  0.1522 -2.0840 -0.5328
   67SAPC   H4Y 5641  -0.231   0.808   7.193 -0.8969  0.4376  0.6016
   67SAPC   C35 5642  -0.250   0.945   7.355  0.7561 -0.1868  0.2304
   67SAPC   H5X 5643  -0.349   0.903   7.382  0.0090  1.2406 -0.1489
   67SAPC   H5Y 5644  -0.242   1.056   7.362 -0.0477 -0.1506  0.5504
   67SAPC   C36 5645  -0.146   0.872   7.449 -0.1799 -0.3915  0.9557
   67SAPC   H6X 5646  -0.049   0.922   7.426 -1.2345  2.2707  1.9436
   67SAPC   H6Y 5647  -0.146   0.765   7.417  1.1463 -0.6772  1.8103
   67SAPC   C37 5648  -0.179   0.880   7.599 -0.3988  0.6771  0.6461
   67SAPC   H7X 5649  -0.284   0.848   7.617  0.3272 -2.1390  0.4760
   67SAPC   H7Y 5650  -0.157   0.979   7.643  0.2154  1.8958 -2.1731
   67SAPC   C38 5651  -0.101   0.766   7.677 -0.3397 -0.0968  1.1465
   67SAPC   H8X 5652   0.008   0.789   7.678 -0.2567 -0.0642 -1.4429
   67SAPC   H8Y 5653  -0.119   0.667   7.631 -0.7069  0.2882  0.4406
   67SAPC   C39 5654  -0.146   0.756   7.828  0.0516  0.5869  0.1401
   67SAPC   H9X 5655  -0.257   0.763   7.832  0.0899  0.7990  1.1919
   67SAPC   H9Y 5656  -0.111   0.843   7.888 -0.7102  0.5538  0.6506
   67SAPC  C310 5657  -0.102   0.622   7.897 -0.4876 -0.8642 -0.4873
   67SAPC  H10X 5658   0.008   0.616   7.886 -0.1010 -2.4978  2.9606
   67SAPC  H10Y 5659  -0.142   0.531   7.848 -1.9922 -0.6458  0.2655
   67SAPC  C311 5660  -0.149   0.612   8.047  0.4830 -0.5532 -0.4463
   67SAPC  H11X 5661  -0.134   0.506   8.074 -2.4128 -1.1485 -0.8415
   67SAPC  H11Y 5662  -0.250   0.660   8.052  0.2539 -0.9638 -1.0051
   67SAPC  C312 5663  -0.068   0.687   8.149 -0.3618  0.2068  0.5284
   67SAPC  H12X 5664  -0.055   0.793   8.120 -0.2520  0.4257  1.3768
   67SAPC  H12Y 5665   0.025   0.628   8.163  0.1696  0.9779  0.3188
   67SAPC  C313 5666  -0.151   0.680   8.280 -0.0884  0.6224 -0.0287
   67SAPC  H13X 5667  -0.172   0.573   8.305 -0.2553 -0.0175 -2.6490
   67SAPC  H13Y 5668  -0.250   0.725   8.256 -0.0575  1.5381  1.4480
   67SAPC  C314 5669  -0.091   0.764   8.399  0.4278  1.1970  0.2948
   67SAPC  H14X 5670  -0.173   0.786   8.471  1.0938 -0.9535  1.8031
   67SAPC  H14Y 5671  -0.055   0.860   8.356  1.0990  0.5921 -0.5304
   67SAPC  C315 5672   0.015   0.681   8.475 -0.7926 -0.4860  0.9122
   67SAPC  H15X 5673   0.102   0.667   8.407 -1.8137 -1.5181 -0.2361
   67SAPC  H15Y 5674  -0.024   0.579   8.495 -0.8306 -0.2948  1.8771
   67SAPC  C316 5675   0.069   0.741   8.606 -0.3539  0.1248  0.7795
   67SAPC  H16X 5676   0.163   0.685   8.625  1.1552  2.5252  0.7519
   67SAPC  H16Y 5677   0.004   0.712   8.691 -1.5095  1.6205  0.4448
   67SAPC  C317 5678   0.104   0.889   8.615 -0.3235 -0.1197 -0.0116
   67SAPC  H17X 5679   0.024   0.953   8.571 -0.4753 -0.5772 -0.4121
   67SAPC  H17Y 5680   0.192   0.913   8.553  2.1436 -3.0068  2.0749
   67SAPC  C318 5681   0.140   0.940   8.752  0.6162  0.7199 -0.2869
   67SAPC  H18X 5682   0.129   1.051   8.758 -2.7613  0.4268  1.2359
   67SAPC  H18Y 5683   0.246   0.915   8.774  0.4151  0.0497 -0.0698
   67SAPC  H18Z 5684   0.077   0.880   8.822  2.6752 -0.6619  0.4720
   68SAPC     N 5685   4.158   0.677   6.376  0.7444 -0.7773  0.6576
   68SAPC   C12 5686   4.239   0.553   6.418 -0.3589 -0.0145  0.8706
   68SAPC  H12A 5687   4.210   0.530   6.519 -0.2800 -0.1741  0.8579
   68SAPC  H12B 5688   4.341   0.588   6.421 -0.2733 -0.3052  1.5567
   68SAPC   C13 5689   4.011   0.651   6.397  0.2325  0.3399  0.3537
   68SAPC  H13A 5690   3.984   0.556   6.353  3.4866 -0.0493 -1.0402
   68SAPC  H13B 5691   3.993   0.645   6.504  1.4996 -1.6204  0.5122
   68SAPC  H13C 5692   3.946   0.720   6.347  0.6372  1.3267  1.1434
   68SAPC   C14 5693   4.191   0.803   6.446  0.0934  0.5968 -0.0586
   68SAPC  H14A 5694   4.127   0.884   6.415  1.8055  1.1709 -2.3253
   68SAPC  H14B 5695   4.173   0.782   6.551  0.3592 -0.1929 -0.1653
   68SAPC  H14C 5696   4.290   0.842   6.434 -0.5019  2.3035  0.2705
   68SAPC   C15 5697   4.175   0.706   6.225 -0.0380  0.0376 -0.5544
   68SAPC  H15A 5698   4.101   0.775   6.186  0.4821  0.2496 -1.1878
   68SAPC  H15B 5699   4.261   0.771   6.218  0.0144  0.0317  0.0255
   68SAPC  H15C 5700   4.192   0.619   6.164 -0.9625 -0.4865 -0.0901
   68SAPC   C11 5701   4.240   0.422   6.327 -0.4447  0.7212 -0.0701
   68SAPC  H11A 5702   4.137   0.400   6.291 -0.5730  2.1316 -0.6636
   68SAPC  H11B 5703   4.278   0.339   6.390 -3.1739  1.4789  2.8362
   68SAPC     P 5704   4.485   0.437   6.211  0.0945  0.1616 -0.4699
   68SAPC   O13 5705   4.532   0.377   6.081  0.2312 -0.2603 -0.8886
   68SAPC   O14 5706   4.531   0.575   6.241  0.0185 -0.0160 -0.6340
   68SAPC   O12 5707   4.328   0.435   6.216  0.7840  0.3680  0.4348
   68SAPC   O11 5708   4.528   0.337   6.333  0.3545  0.3415 -0.2483
   68SAPC    C1 5709   4.656   0.370   6.401 -0.4232 -1.0721  0.5810
   68SAPC    HA 5710   4.735   0.319   6.343  0.0068 -2.4008  2.2674
   68SAPC    HB 5711   4.674   0.480   6.399 -1.2950 -0.8925  1.4959
   68SAPC    C2 5712   4.663   0.327   6.551  0.5659 -1.2115  0.4863
   68SAPC    HS 5713   4.764   0.335   6.597  0.3752  0.4803  0.6594
   68SAPC   O21 5714   4.603   0.193   6.571  0.5240 -0.2500 -0.8323
   68SAPC   C21 5715   4.692   0.103   6.533 -0.5062 -0.3179 -0.3435
   68SAPC   O22 5716   4.805   0.117   6.497 -0.2796 -0.1733  0.1202
   68SAPC   C22 5717   4.630  -0.027   6.567  0.0777 -0.3254 -0.2574
   68SAPC   H2R 5718   4.558  -0.015   6.651  0.9511 -2.9538  0.9842
   68SAPC   H2S 5719   4.570  -0.054   6.478  1.5715  0.9838 -1.7250
   68SAPC    C3 5720   4.574   0.425   6.639 -0.1336  0.1767  0.7056
   68SAPC    HX 5721   4.469   0.407   6.609  0.7006 -0.7186 -1.9324
   68SAPC    HY 5722   4.606   0.520   6.592  0.1578 -0.9398 -1.4599
   68SAPC   O31 5723   4.612   0.412   6.780  0.1318 -0.0459  0.2567
   68SAPC   C31 5724   4.563   0.510   6.853 -0.9319  0.5524  0.4858
   68SAPC   O32 5725   4.469   0.578   6.828  0.0778 -0.1715 -0.3357
   68SAPC   C32 5726   4.639   0.507   6.995 -0.2756  0.4512  0.7158
   68SAPC   H2X 5727   4.740   0.552   6.987  0.2092 -0.7357 -0.2740
   68SAPC   H2Y 5728   4.663   0.401   7.017  0.2241  0.1361 -1.1354
   68SAPC   C23 5729   4.737  -0.137   6.609  0.2354  0.0145  1.0605
   68SAPC   H3R 5730   4.806  -0.100   6.687  2.2410  0.0637 -0.6446
   68SAPC   H3S 5731   4.800  -0.154   6.519 -0.8612  2.1433 -0.2139
   68SAPC   C24 5732   4.673  -0.268   6.670 -0.4652 -0.4604 -0.7179
   68SAPC   H4R 5733   4.589  -0.298   6.604 -1.6424  2.9952 -0.9790
   68SAPC   H4S 5734   4.618  -0.247   6.764  1.8468 -4.0406  1.6822
   68SAPC   C25 5735   4.782  -0.373   6.688  0.6233 -0.2392  0.3144
   68SAPC   H5R 5736   4.802  -0.433   6.598 -0.8175  0.8062 -0.7623
   68SAPC   C26 5737   4.830  -0.403   6.806 -0.4848  0.8568 -0.9797
   68SAPC   H6R 5738   4.913  -0.475   6.815 -0.2776  1.1633 -0.4269
   68SAPC   C27 5739   4.795  -0.357   6.943 -0.1779  0.0357  0.3651
   68SAPC   H7R 5740   4.700  -0.406   6.972 -0.5574 -0.8431 -2.1393
   68SAPC   H7S 5741   4.781  -0.248   6.929 -0.8263 -0.1494 -0.5117
   68SAPC   C28 5742   4.892  -0.397   7.049 -0.1847  0.3018 -0.3814
   68SAPC   H8R 5743   4.993  -0.425   7.016  0.0117  1.4863 -0.8281
   68SAPC   C29 5744   4.883  -0.370   7.182 -0.1124  0.0584 -0.2877
   68SAPC   H9R 5745   4.960  -0.397   7.256 -0.1253  2.4351  0.6935
   68SAPC  C210 5746   4.768  -0.296   7.249 -0.2142 -0.3995  0.1831
   68SAPC  H10R 5747   4.676  -0.354   7.231  0.0568 -0.1022 -2.6890
   68SAPC  H10S 5748   4.770  -0.197   7.198  0.5435 -1.0897 -1.2028
   68SAPC  C211 5749   4.780  -0.298   7.398  0.1272  0.2595  0.1266
   68SAPC  H11R 5750   4.776  -0.398   7.444 -1.3355 -0.4381 -1.4119
   68SAPC  C212 5751   4.755  -0.200   7.482 -1.0159 -0.5835 -0.5346
   68SAPC  H12R 5752   4.764  -0.218   7.590 -1.3115  0.5655 -0.3123
   68SAPC  C213 5753   4.727  -0.057   7.446 -0.4206  0.1165  0.4738
   68SAPC  H13R 5754   4.685   0.004   7.529 -0.9812 -1.2894  1.2493
   68SAPC  H13S 5755   4.642  -0.061   7.374 -0.8323  0.9221  0.9061
   68SAPC  C214 5756   4.845   0.017   7.393  0.2012 -0.1673 -0.1620
   68SAPC  H14R 5757   4.941   0.010   7.447 -0.1755 -2.5498  0.3067
   68SAPC  C215 5758   4.847   0.104   7.285  0.1715 -0.1409 -0.5241
   68SAPC  H15R 5759   4.939   0.151   7.249 -0.2726  0.4833 -0.8737
   68SAPC  C216 5760   4.727   0.148   7.201  0.1396  0.4958  0.6095
   68SAPC  H16R 5761   4.752   0.251   7.168  0.2091 -0.1373 -1.4372
   68SAPC  H16S 5762   4.642   0.140   7.272  1.1341  0.6213  1.8508
   68SAPC  C217 5763   4.705   0.069   7.064 -0.7302 -0.2767 -0.8808
   68SAPC  H17R 5764   4.626   0.130   7.018  1.7156  3.0068 -1.0961
   68SAPC  H17S 5765   4.650  -0.023   7.094 -3.9673  2.3540  2.1725
   68SAPC  C218 5766   4.830   0.054   6.975 -0.2476  0.0679  0.5348
   68SAPC  H18R 5767   4.815  -0.024   6.897  1.8690 -0.1492  0.2772
   68SAPC  H18S 5768   4.914   0.022   7.041  1.0670  0.7929 -0.7270
   68SAPC  C219 5769   4.875   0.184   6.909 -0.6250 -0.1200  0.4470
   68SAPC  H19R 5770   4.901   0.257   6.988 -2.0225  0.6243  0.2607
   68SAPC  H19S 5771   4.790   0.237   6.859  0.3678 -0.1554 -1.3785
   68SAPC  C220 5772   4.993   0.156   6.812 -0.1873 -0.3443  0.0185
   68SAPC  H20R 5773   5.027   0.246   6.757 -0.6246 -1.5156 -2.2603
   68SAPC  H20S 5774   4.963   0.078   6.739 -1.6379 -1.0030  1.2577
   68SAPC  H20T 5775   5.073   0.117   6.879 -0.0638 -0.0192  0.0631
   68SAPC   C33 5776   4.554   0.580   7.114  0.5222  0.7607  0.4686
   68SAPC   H3X 5777   4.462   0.526   7.146  0.7715  0.9365  1.5261
   68SAPC   H3Y 5778   4.529   0.684   7.085  0.6094  0.6917  0.1367
   68SAPC   C34 5779   4.643   0.590   7.237  0.2821  0.1536 -0.5742
   68SAPC   H4X 5780   4.713   0.672   7.211  0.6598 -0.1090 -0.4121
   68SAPC   H4Y 5781   4.705   0.498   7.247  0.0907 -0.2503 -2.6774
   68SAPC   C35 5782   4.579   0.623   7.370  0.3667  0.4012  0.5485
   68SAPC   H5X 5783   4.478   0.578   7.366  0.0457  1.0902  0.7586
   68SAPC   H5Y 5784   4.560   0.732   7.377 -1.5136  0.2843 -1.5606
   68SAPC   C36 5785   4.659   0.583   7.496 -0.9729  0.3498  0.0970
   68SAPC   H6X 5786   4.730   0.668   7.503 -1.1550  0.4671  0.5772
   68SAPC   H6Y 5787   4.709   0.485   7.481  0.1134  1.0633 -1.1080
   68SAPC   C37 5788   4.560   0.555   7.605 -0.2523 -0.3979  0.3343
   68SAPC   H7X 5789   4.504   0.459   7.603 -1.9653  0.4545  2.5560
   68SAPC   H7Y 5790   4.475   0.625   7.615  1.2989  1.5175  0.7652
   68SAPC   C38 5791   4.644   0.545   7.736 -0.2454 -1.3377 -0.2980
   68SAPC   H8X 5792   4.703   0.638   7.738 -0.9999 -0.8258 -1.0524
   68SAPC   H8Y 5793   4.718   0.465   7.713  0.9276  0.1775 -2.1020
   68SAPC   C39 5794   4.567   0.543   7.867 -0.2201 -0.1811 -0.3952
   68SAPC   H9X 5795   4.513   0.447   7.880 -0.3802  0.0210  0.5476
   68SAPC   H9Y 5796   4.505   0.634   7.883  3.1251  1.8887  2.5278
   68SAPC  C310 5797   4.670   0.537   7.991 -0.2411 -0.5994 -0.0553
   68SAPC  H10X 5798   4.614   0.574   8.080 -1.0585 -0.1857 -0.7365
   68SAPC  H10Y 5799   4.749   0.615   7.986  0.3657 -0.8538  3.1447
   68SAPC  C311 5800   4.736   0.397   8.006  0.1603 -0.2987 -0.6216
   68SAPC  H11X 5801   4.768   0.370   7.903  1.4415 -0.1267 -0.2938
   68SAPC  H11Y 5802   4.661   0.321   8.035 -0.3704  1.5410  3.4775
   68SAPC  C312 5803   4.859   0.389   8.101  0.8195  0.4358  0.2695
   68SAPC  H12X 5804   4.828   0.423   8.202 -0.0815 -0.3511  0.2827
   68SAPC  H12Y 5805   4.940   0.457   8.067  0.9567 -0.2595 -0.8454
   68SAPC  C313 5806   4.908   0.249   8.113 -0.1322  0.5249 -0.4501
   68SAPC  H13X 5807   4.914   0.204   8.011 -0.3304  0.8233 -0.5945
   68SAPC  H13Y 5808   4.841   0.179   8.167  3.1010 -1.3302  1.4952
   68SAPC  C314 5809   5.048   0.246   8.176 -0.2359  0.1702  0.4344
   68SAPC  H14X 5810   5.050   0.280   8.281  0.8584 -0.8121  0.7664
   68SAPC  H14Y 5811   5.108   0.320   8.120 -0.0989 -0.9410 -0.9584
   68SAPC  C315 5812   5.110   0.107   8.171 -0.0768  1.1083 -0.4692
   68SAPC  H15X 5813   5.142   0.089   8.066 -0.0362 -0.1084 -0.2631
   68SAPC  H15Y 5814   5.049   0.018   8.197  1.7428  0.2429  1.0861
   68SAPC  C316 5815   5.238   0.091   8.264 -0.5194  0.7207 -0.5491
   68SAPC  H16X 5816   5.231   0.151   8.357 -0.5498  1.6445 -1.1306
   68SAPC  H16Y 5817   5.323   0.137   8.209  0.0681  0.7907  0.3860
   68SAPC  C317 5818   5.285  -0.054   8.290  0.2970 -0.3224 -0.2202
   68SAPC  H17X 5819   5.293  -0.106   8.192  3.5048  2.5600 -1.6699
   68SAPC  H17Y 5820   5.195  -0.092   8.343 -0.3153  0.7195 -0.4836
   68SAPC  C318 5821   5.412  -0.063   8.379  0.0020 -0.2925  0.6497
   68SAPC  H18X 5822   5.403   0.013   8.459  0.6584  1.5785 -0.9756
   68SAPC  H18Y 5823   5.500  -0.028   8.321  1.3960 -2.4430  1.3567
   68SAPC  H18Z 5824   5.440  -0.164   8.415  0.9087 -0.0568  0.6334
   69SLPC     N 5825   2.438   4.944  11.360  0.0329 -0.3328 -0.3288
   69SLPC   C13 5826   2.388   4.802  11.371  0.2565  0.4346  0.2510
   69SLPC  H13A 5827   2.364   4.771  11.471  1.1152 -0.0760  0.3064
   69SLPC  H13B 5828   2.301   4.788  11.308  1.2833  0.8835 -1.3141
   69SLPC  H13C 5829   2.467   4.734  11.342  0.1593  0.0743  0.8182
   69SLPC   C14 5830   2.558   4.962  11.451  0.6733  0.3353 -0.4594
   69SLPC  H14A 5831   2.528   4.962  11.555  0.9978  0.2642 -0.3623
   69SLPC  H14B 5832   2.629   4.881  11.438  1.8244  1.3048 -0.4087
   69SLPC  H14C 5833   2.600   5.061  11.440  1.3534  0.2442  0.9568
   69SLPC   C15 5834   2.326   5.035  11.401  0.3572  0.2076 -0.0398
   69SLPC  H15A 5835   2.353   5.139  11.392  2.1559 -0.2039  0.2821
   69SLPC  H15B 5836   2.247   5.030  11.327  0.1399 -0.6199  0.2434
   69SLPC  H15C 5837   2.286   5.023  11.500  1.1926  2.1377  0.5839
   69SLPC   C12 5838   2.481   4.981  11.219  0.5064  0.6977  0.8620
   69SLPC  H12A 5839   2.569   4.922  11.199  0.2272  0.7562 -0.6667
   69SLPC  H12B 5840   2.517   5.083  11.215  2.5750 -0.0018  0.2575
   69SLPC   C11 5841   2.378   4.952  11.108 -0.1600  0.1689  0.4873
   69SLPC  H11A 5842   2.357   4.843  11.116  3.6338 -0.7426 -0.2200
   69SLPC  H11B 5843   2.420   4.945  11.006 -0.1044 -1.6901  0.6008
   69SLPC     P 5844   2.260   5.169  11.054  0.1743 -0.2295 -0.1955
   69SLPC   O13 5845   2.135   5.236  11.083 -0.0275  0.1523  0.4785
   69SLPC   O14 5846   2.377   5.252  11.090  0.3238  0.2427 -0.5612
   69SLPC   O12 5847   2.266   5.035  11.133 -0.0746 -0.2506  0.1138
   69SLPC   O11 5848   2.264   5.134  10.902  0.0847  0.3997  0.4074
   69SLPC    C1 5849   2.152   5.051  10.850 -0.1721  0.0027 -0.2698
   69SLPC    HA 5850   2.166   4.947  10.887 -0.0408  0.2229  0.3144
   69SLPC    HB 5851   2.053   5.077  10.893  0.4634  0.8475  0.7497
   69SLPC    C2 5852   2.142   5.068  10.696 -0.1865  0.2845  0.2031
   69SLPC    HS 5853   2.237   5.021  10.660 -0.8031 -0.9727  0.1561
   69SLPC   O21 5854   2.121   5.207  10.660  0.0679  0.5276  0.1614
   69SLPC   C21 5855   2.233   5.271  10.627  0.5821 -0.2156  1.0991
   69SLPC   O22 5856   2.339   5.218  10.617 -0.1687  0.2018  0.0044
   69SLPC   C22 5857   2.200   5.411  10.578  0.5046 -0.1848  0.4158
   69SLPC   H2R 5858   2.140   5.476  10.645  1.3565  1.9024 -0.7328
   69SLPC   H2S 5859   2.294   5.471  10.581  0.3667  0.2588 -1.9652
   69SLPC    C3 5860   2.025   4.994  10.635  0.7416  0.3540 -0.8621
   69SLPC    HX 5861   1.931   5.019  10.688  1.3905 -1.0292  1.0569
   69SLPC    HY 5862   2.026   4.885  10.653 -0.6126  0.6140  1.0987
   69SLPC   O31 5863   2.013   5.012  10.493  0.0539  0.5584 -0.2653
   69SLPC   C31 5864   2.096   4.962  10.415  0.3480  0.4471 -0.5291
   69SLPC   O32 5865   2.201   4.909  10.434  0.0846  0.4420 -0.2306
   69SLPC   C32 5866   2.027   4.976  10.276 -0.3039 -0.2647 -1.2959
   69SLPC   H2X 5867   2.006   5.083  10.257  1.8577  0.7808  1.5357
   69SLPC   H2Y 5868   1.926   4.930  10.284 -1.0398  1.4555 -0.0553
   69SLPC   C23 5869   2.144   5.422  10.432 -0.1542  0.1978  0.4962
   69SLPC   H3R 5870   2.209   5.364  10.364 -1.1049 -1.4216  0.8922
   69SLPC   H3S 5871   2.140   5.530  10.410  1.9961  0.7752  2.5161
   69SLPC   C24 5872   2.007   5.368  10.424  0.3059 -0.1773 -0.8164
   69SLPC   H4R 5873   1.950   5.412  10.508  2.1251 -0.0260  0.3722
   69SLPC   H4S 5874   2.014   5.260  10.449  2.2609  0.4508  1.7129
   69SLPC   C25 5875   1.947   5.403  10.289 -0.2319  0.7510  0.5542
   69SLPC   H5R 5876   2.022   5.369  10.215 -1.7825 -0.9466 -0.3028
   69SLPC   H5S 5877   1.946   5.512  10.268  0.7097  0.6062 -0.2929
   69SLPC   C26 5878   1.802   5.355  10.267 -0.5940 -0.1346  0.2404
   69SLPC   H6R 5879   1.748   5.405  10.350  1.3182  0.4475  1.2130
   69SLPC   H6S 5880   1.797   5.245  10.279 -0.7655 -0.4590 -2.2131
   69SLPC   C27 5881   1.752   5.376  10.118  0.3575  0.0717  0.1316
   69SLPC   H7R 5882   1.729   5.483  10.101 -1.8775 -0.3599  0.2074
   69SLPC   H7S 5883   1.665   5.308  10.112 -0.0395  0.4959  0.9296
   69SLPC   C28 5884   1.826   5.315  10.001 -0.0671  0.0251  0.5358
   69SLPC   H8R 5885   1.750   5.280   9.928  1.0741  0.4277 -0.8885
   69SLPC   H8S 5886   1.865   5.220  10.043 -1.2643 -0.8435 -0.2319
   69SLPC   C29 5887   1.935   5.402   9.939  0.1526  0.2686 -0.1613
   69SLPC   H9R 5888   2.020   5.431  10.003  0.9319 -2.1795  0.0494
   69SLPC  C210 5889   1.935   5.438   9.804 -0.0995 -0.8383 -0.6506
   69SLPC  H10R 5890   2.028   5.494   9.781 -0.8854  1.5392  1.5206
   69SLPC  C211 5891   1.835   5.398   9.697 -0.5870 -0.4752 -0.2365
   69SLPC  H11R 5892   1.855   5.467   9.612 -0.7768 -0.8826 -0.6194
   69SLPC  H11S 5893   1.733   5.422   9.733 -1.1517 -2.5659 -0.3104
   69SLPC  C212 5894   1.838   5.257   9.646  1.4247  0.1990 -0.9904
   69SLPC  H12R 5895   1.926   5.202   9.681  0.2374 -1.0367  0.1689
   69SLPC  C213 5896   1.738   5.192   9.581 -0.6048  0.2075  0.0371
   69SLPC  H13R 5897   1.767   5.089   9.558  0.1127  0.0814  1.3858
   69SLPC  C214 5898   1.600   5.239   9.534  0.4305  0.2169  0.6445
   69SLPC  H14R 5899   1.565   5.327   9.592  1.6184 -0.3189  2.2667
   69SLPC  H14S 5900   1.528   5.155   9.534 -2.5989  2.6196 -0.8753
   69SLPC  C215 5901   1.617   5.280   9.382  0.4059 -0.3682 -0.3481
   69SLPC  H15R 5902   1.697   5.356   9.373  1.7414 -1.6730  0.1885
   69SLPC  H15S 5903   1.522   5.331   9.353  1.1129  1.0394 -0.3016
   69SLPC  C216 5904   1.628   5.157   9.290  0.0390 -0.1428 -0.4117
   69SLPC  H16R 5905   1.550   5.086   9.325  2.4608 -2.4653  0.6201
   69SLPC  H16S 5906   1.721   5.103   9.318 -0.1697  0.6126  1.9536
   69SLPC  C217 5907   1.625   5.201   9.147  0.2784 -0.1365  0.2898
   69SLPC  H17R 5908   1.653   5.307   9.131 -0.8720  0.0227 -0.9329
   69SLPC  H17S 5909   1.515   5.202   9.128  0.4408 -0.6132 -0.7443
   69SLPC  C218 5910   1.680   5.096   9.050 -0.0666 -0.2777  0.5127
   69SLPC  H18R 5911   1.784   5.066   9.076 -0.7636 -1.1509  2.4761
   69SLPC  H18S 5912   1.687   5.133   8.945 -1.5325 -1.3031  0.0261
   69SLPC  H18T 5913   1.616   5.006   9.049  0.5911 -0.7585  0.4684
   69SLPC   C33 5914   2.117   4.904  10.169  0.6673 -0.0511  0.3986
   69SLPC   H3X 5915   2.149   4.801  10.193 -2.8928 -2.0303 -2.4553
   69SLPC   H3Y 5916   2.211   4.963  10.176 -0.9792  2.9202 -0.5038
   69SLPC   C34 5917   2.039   4.921  10.035 -0.3193 -0.0561 -0.5966
   69SLPC   H4X 5918   2.014   5.027  10.011 -0.2170  0.0359 -0.3061
   69SLPC   H4Y 5919   1.950   4.857  10.046  0.4372 -0.7386  2.5788
   69SLPC   C35 5920   2.118   4.859   9.925  0.3964 -0.2186  0.7888
   69SLPC   H5X 5921   2.134   4.750   9.943 -1.2041 -0.2238  2.4045
   69SLPC   H5Y 5922   2.220   4.903   9.927  1.1536 -1.8511  2.8593
   69SLPC   C36 5923   2.055   4.867   9.787 -1.0581 -0.2032 -0.4456
   69SLPC   H6X 5924   2.030   4.975   9.777  1.3943  0.3916 -0.6517
   69SLPC   H6Y 5925   1.965   4.802   9.789 -1.5875  0.5164 -0.1704
   69SLPC   C37 5926   2.148   4.835   9.671 -0.0339 -0.4056 -0.6234
   69SLPC   H7X 5927   2.148   4.725   9.652 -2.0451 -0.6214  0.4004
   69SLPC   H7Y 5928   2.248   4.876   9.699 -0.9568  1.7269 -0.3223
   69SLPC   C38 5929   2.114   4.899   9.537  0.2794 -0.8449 -0.6677
   69SLPC   H8X 5930   2.194   4.885   9.462  1.0664  1.8410 -0.4260
   69SLPC   H8Y 5931   2.119   5.006   9.564  1.6129 -0.9992 -0.2531
   69SLPC   C39 5932   1.982   4.853   9.490 -0.2119  0.0774  1.1691
   69SLPC   H9X 5933   1.900   4.860   9.565 -1.3962 -3.4886  0.4288
   69SLPC   H9Y 5934   2.001   4.745   9.472  2.9965  0.5147  1.2571
   69SLPC  C310 5935   1.928   4.928   9.361 -0.9102  0.7444 -0.0137
   69SLPC  H10X 5936   1.916   5.037   9.384 -2.3882  1.1654 -2.5175
   69SLPC  H10Y 5937   1.825   4.897   9.333 -0.1156 -1.0919 -1.0729
   69SLPC  C311 5938   2.012   4.927   9.230  0.3489  0.0794 -0.3362
   69SLPC  H11X 5939   2.108   4.975   9.256 -0.4632  0.2558  2.6683
   69SLPC  H11Y 5940   1.965   4.983   9.146  1.5142 -0.3606 -1.3202
   69SLPC  C312 5941   2.026   4.780   9.183  0.4356  0.0787 -0.6548
   69SLPC  H12X 5942   1.925   4.735   9.173  1.3013 -2.4172  0.8350
   69SLPC  H12Y 5943   2.065   4.720   9.268  0.6920 -0.2770 -1.0163
   69SLPC  C313 5944   2.104   4.756   9.060 -0.0056  0.4744  0.1508
   69SLPC  H13X 5945   2.037   4.749   8.971 -0.9756 -1.3467  0.9675
   69SLPC  H13Y 5946   2.142   4.652   9.070 -0.0731  0.3632 -0.6282
   69SLPC  C314 5947   2.211   4.855   9.031  0.1115 -0.4966  0.3805
   69SLPC  H14X 5948   2.279   4.860   9.119 -1.4450 -0.0080  1.5910
   69SLPC  H14Y 5949   2.177   4.957   9.004  3.5105  0.9213  1.0018
   69SLPC  C315 5950   2.287   4.820   8.902  0.5062 -0.2206 -0.3555
   69SLPC  H15X 5951   2.222   4.796   8.815  0.6112 -1.4402 -0.1192
   69SLPC  H15Y 5952   2.351   4.729   8.913  2.6280  0.6729 -3.7528
   69SLPC  C316 5953   2.399   4.923   8.851 -0.2362  0.1954 -0.3641
   69SLPC  H16X 5954   2.464   4.964   8.932 -0.0539  0.4853 -0.6542
   69SLPC  H16Y 5955   2.354   5.003   8.788  0.3793  0.1430 -0.8751
   69SLPC  C317 5956   2.501   4.846   8.766  0.1663 -0.3269  0.0680
   69SLPC  H17X 5957   2.445   4.772   8.706  0.0516 -1.9806  2.0918
   69SLPC  H17Y 5958   2.569   4.794   8.837  1.5753  3.3938  1.6956
   69SLPC  C318 5959   2.591   4.933   8.682  0.1180 -0.0552  0.1371
   69SLPC  H18X 5960   2.524   5.002   8.627  0.2282 -1.1798 -1.4696
   69SLPC  H18Y 5961   2.632   4.870   8.600 -0.5774 -0.8669  0.4027
   69SLPC  H18Z 5962   2.677   4.983   8.731 -0.0954  1.3328 -0.8242
   70SLPC     N 5963   3.238   3.224  11.020  0.1071 -0.7425  0.4594
   70SLPC   C13 5964   3.108   3.247  11.084  0.4125  0.0467  0.1494
   70SLPC  H13A 5965   3.045   3.324  11.043  0.7238  0.6826  0.8468
   70SLPC  H13B 5966   3.040   3.163  11.078 -2.5866  2.3257 -0.0411
   70SLPC  H13C 5967   3.114   3.276  11.187 -1.0844  0.5214  0.1192
   70SLPC   C14 5968   3.319   3.349  11.044 -0.4469 -0.0531  0.3595
   70SLPC  H14A 5969   3.350   3.344  11.147  2.6020 -2.4203 -0.5029
   70SLPC  H14B 5970   3.415   3.341  10.995 -0.2133  3.5451 -0.0045
   70SLPC  H14C 5971   3.272   3.438  11.006  0.7062  0.9483  1.1786
   70SLPC   C15 5972   3.220   3.207  10.878  0.0976 -0.1877 -0.1688
   70SLPC  H15A 5973   3.317   3.174  10.844  0.2644 -0.2385  0.3435
   70SLPC  H15B 5974   3.157   3.122  10.855  1.2099 -0.7535 -1.2774
   70SLPC  H15C 5975   3.191   3.293  10.819 -1.6508 -1.4392 -1.2212
   70SLPC   C12 5976   3.314   3.101  11.076 -0.9731  0.2818  0.0550
   70SLPC  H12A 5977   3.337   3.121  11.179  0.0953 -0.2742 -0.0620
   70SLPC  H12B 5978   3.407   3.096  11.022 -0.3101 -0.9440  1.2476
   70SLPC   C11 5979   3.247   2.963  11.065 -0.8067 -0.4291  0.2732
   70SLPC  H11A 5980   3.149   2.958  11.117 -0.7769  1.1884  0.5224
   70SLPC  H11B 5981   3.314   2.889  11.115  1.6293  0.7587 -1.0425
   70SLPC     P 5982   3.328   2.848  10.846  0.1038 -0.4754 -0.0553
   70SLPC   O13 5983   3.462   2.905  10.869 -0.0149  0.0575  0.0685
   70SLPC   O14 5984   3.312   2.710  10.892  0.6783  0.6274  0.4340
   70SLPC   O12 5985   3.223   2.930  10.927 -0.0232  0.2698  0.4934
   70SLPC   O11 5986   3.285   2.862  10.696 -0.5410  0.3117  0.4705
   70SLPC    C1 5987   3.158   2.827  10.646 -0.2942 -0.0162  0.2740
   70SLPC    HA 5988   3.081   2.850  10.722  1.1386  0.9145  1.4911
   70SLPC    HB 5989   3.136   2.895  10.561  1.2555  0.1310 -0.0438
   70SLPC    C2 5990   3.139   2.683  10.589  0.0080  0.0346  1.0076
   70SLPC    HS 5991   3.185   2.615  10.664  1.8597  0.5998  0.4270
   70SLPC   O21 5992   3.206   2.682  10.459 -0.8104 -0.0678  0.3897
   70SLPC   C21 5993   3.231   2.557  10.412  0.5099  0.3813 -0.0799
   70SLPC   O22 5994   3.206   2.455  10.474 -0.3521 -0.1237  0.0803
   70SLPC   C22 5995   3.300   2.566  10.276 -0.4322 -0.1431  0.8567
   70SLPC   H2R 5996   3.230   2.600  10.197 -0.0590  1.6149  1.2549
   70SLPC   H2S 5997   3.377   2.646  10.281 -2.8940  2.4085  0.0528
   70SLPC    C3 5998   2.990   2.649  10.566 -0.1345  0.0748 -0.6892
   70SLPC    HX 5999   2.955   2.642  10.671  3.9443  2.0590  1.0505
   70SLPC    HY 6000   2.978   2.552  10.514 -2.4477 -0.4854  0.7699
   70SLPC   O31 6001   2.919   2.753  10.492  0.4032 -0.5439  0.4392
   70SLPC   C31 6002   2.791   2.743  10.498  0.2719  0.2287  0.1692
   70SLPC   O32 6003   2.726   2.658  10.556 -0.5929  0.5123  0.0458
   70SLPC   C32 6004   2.731   2.856  10.417 -0.3196 -0.1547  0.1580
   70SLPC   H2X 6005   2.805   2.904  10.350 -1.0874 -2.3308 -2.4710
   70SLPC   H2Y 6006   2.700   2.936  10.486  0.4782 -1.0002  1.5485
   70SLPC   C23 6007   3.367   2.436  10.233  0.1680 -0.4967 -0.0255
   70SLPC   H3R 6008   3.311   2.350  10.275 -1.1539  0.0774 -0.5544
   70SLPC   H3S 6009   3.473   2.424  10.266  1.3127 -0.3327 -3.2699
   70SLPC   C24 6010   3.371   2.419  10.079 -0.1124  0.8643  0.0481
   70SLPC   H4R 6011   3.269   2.406  10.037  0.0631  1.6365 -0.6166
   70SLPC   H4S 6012   3.425   2.323  10.064 -0.3735  0.9189 -1.3560
   70SLPC   C25 6013   3.439   2.537  10.008  0.2549  0.4723 -0.6085
   70SLPC   H5R 6014   3.546   2.533  10.038  0.2788 -0.8568 -0.8113
   70SLPC   H5S 6015   3.382   2.629  10.030  2.6179  1.8267  0.2083
   70SLPC   C26 6016   3.418   2.523   9.858 -0.4310  0.2632  0.7475
   70SLPC   H6R 6017   3.308   2.529   9.843 -0.3693  1.0792  0.5165
   70SLPC   H6S 6018   3.459   2.429   9.815 -0.7565  0.8895 -1.0329
   70SLPC   C27 6019   3.479   2.649   9.793  0.0117  0.3786  0.7487
   70SLPC   H7R 6020   3.590   2.648   9.783  0.0166 -1.9777  0.5727
   70SLPC   H7S 6021   3.448   2.749   9.830  0.1798  1.5006 -1.9598
   70SLPC   C28 6022   3.430   2.661   9.646  0.4690 -0.0842 -0.0183
   70SLPC   H8R 6023   3.456   2.760   9.604  0.9541 -0.3914 -0.4590
   70SLPC   H8S 6024   3.319   2.665   9.653  0.5499 -0.4401  2.0638
   70SLPC   C29 6025   3.458   2.560   9.536 -0.6146 -0.1229  0.4783
   70SLPC   H9R 6026   3.433   2.454   9.552  0.7486 -0.8033 -1.4513
   70SLPC  C210 6027   3.518   2.583   9.417  0.2281 -0.9846  0.4618
   70SLPC  H10R 6028   3.538   2.491   9.361 -2.1303  0.9634 -4.0617
   70SLPC  C211 6029   3.559   2.710   9.349 -0.6227  0.5711  0.8641
   70SLPC  H11R 6030   3.670   2.703   9.346 -0.6997 -0.5328  0.1247
   70SLPC  H11S 6031   3.518   2.794   9.410 -0.8279 -0.1705  1.7622
   70SLPC  C212 6032   3.501   2.724   9.204 -0.6204 -0.6909  0.0442
   70SLPC  H12R 6033   3.441   2.634   9.184  0.8060 -1.7471  0.3070
   70SLPC  C213 6034   3.533   2.827   9.115 -0.0547 -0.0135 -0.1415
   70SLPC  H13R 6035   3.479   2.834   9.019  0.6318 -0.2403 -0.5502
   70SLPC  C214 6036   3.632   2.940   9.142 -0.2239 -0.3032 -0.8785
   70SLPC  H14R 6037   3.698   2.921   9.229 -1.4097 -0.3866  0.0308
   70SLPC  H14S 6038   3.566   3.029   9.155  0.3994 -0.0546  0.9401
   70SLPC  C215 6039   3.729   2.958   9.025 -0.0248 -0.1530 -0.5040
   70SLPC  H15R 6040   3.681   2.929   8.929 -1.7536  1.0510 -0.0471
   70SLPC  H15S 6041   3.811   2.883   9.028  0.5978  0.2388 -3.6803
   70SLPC  C216 6042   3.795   3.096   9.019  0.4837 -0.3113 -0.0037
   70SLPC  H16R 6043   3.827   3.113   9.124  0.2732  0.9318 -0.1298
   70SLPC  H16S 6044   3.717   3.173   9.005  1.0450  0.5623  1.4103
   70SLPC  C217 6045   3.918   3.103   8.933 -0.7370 -0.1666 -0.1304
   70SLPC  H17R 6046   3.867   3.095   8.835 -2.6867  3.8603  0.3535
   70SLPC  H17S 6047   3.992   3.021   8.949 -0.2400 -0.1857 -2.2552
   70SLPC  C218 6048   3.990   3.242   8.934 -0.4439  0.4226 -0.2592
   70SLPC  H18R 6049   4.070   3.256   8.858  0.3012 -1.3396  0.1267
   70SLPC  H18S 6050   4.031   3.259   9.036 -2.3429 -0.9497  0.8163
   70SLPC  H18T 6051   3.911   3.320   8.925 -0.6768  0.2795  0.4903
   70SLPC   C33 6052   2.607   2.812  10.328  0.2401 -0.1855  0.0353
   70SLPC   H3X 6053   2.564   2.907  10.290  2.3069  0.5400 -0.6023
   70SLPC   H3Y 6054   2.528   2.758  10.385 -1.2700  1.1304 -0.7254
   70SLPC   C34 6055   2.659   2.737  10.210  0.0243 -0.1930  0.1288
   70SLPC   H4X 6056   2.603   2.642  10.195  0.1782 -0.3773  0.7019
   70SLPC   H4Y 6057   2.767   2.712  10.220  0.4912  1.9417  0.8247
   70SLPC   C35 6058   2.638   2.813  10.077 -0.9972  0.4358  0.3529
   70SLPC   H5X 6059   2.693   2.909  10.083  0.2852 -0.2238 -0.4489
   70SLPC   H5Y 6060   2.534   2.840  10.051 -0.8389  0.5921 -0.1223
   70SLPC   C36 6061   2.688   2.729   9.960 -0.5576 -0.5574 -0.2141
   70SLPC   H6X 6062   2.627   2.637   9.972 -3.1898  1.1453  0.3981
   70SLPC   H6Y 6063   2.793   2.694   9.960 -0.5990 -1.3862 -5.1487
   70SLPC   C37 6064   2.675   2.799   9.831  0.0177 -0.0009 -0.0257
   70SLPC   H7X 6065   2.758   2.873   9.827 -1.3753  1.7376  1.5894
   70SLPC   H7Y 6066   2.582   2.859   9.828 -0.1068 -0.2121 -0.5666
   70SLPC   C38 6067   2.677   2.693   9.713 -0.2300 -0.6516 -0.5510
   70SLPC   H8X 6068   2.620   2.598   9.728 -0.7245 -0.2684  0.0733
   70SLPC   H8Y 6069   2.783   2.664   9.701  0.6655  1.5258  1.2694
   70SLPC   C39 6070   2.630   2.764   9.582 -0.4264 -0.2981 -0.2827
   70SLPC   H9X 6071   2.708   2.836   9.548 -1.0026  1.0875  1.1922
   70SLPC   H9Y 6072   2.539   2.822   9.611  1.0412  1.2344  1.5137
   70SLPC  C310 6073   2.593   2.659   9.483 -0.1093  0.0636  0.0470
   70SLPC  H10X 6074   2.508   2.603   9.526  0.8793 -0.3609  1.5355
   70SLPC  H10Y 6075   2.681   2.595   9.461  0.9718  1.8014 -0.9328
   70SLPC  C311 6076   2.535   2.712   9.351  0.0157 -0.1945  0.6148
   70SLPC  H11X 6077   2.615   2.775   9.306  0.8086 -1.3322  0.3928
   70SLPC  H11Y 6078   2.444   2.774   9.362 -0.2785  0.3202 -3.1527
   70SLPC  C312 6079   2.512   2.594   9.250 -0.0578  0.4843 -0.1945
   70SLPC  H12X 6080   2.444   2.517   9.293  2.0527 -1.0893  0.5291
   70SLPC  H12Y 6081   2.613   2.549   9.232  0.4234  1.7443 -0.7442
   70SLPC  C313 6082   2.467   2.643   9.116  0.5545  0.1141 -0.4973
   70SLPC  H13X 6083   2.546   2.702   9.065  0.9093 -0.8993 -1.1559
   70SLPC  H13Y 6084   2.382   2.713   9.127  0.2202 -0.4156  0.3971
   70SLPC  C314 6085   2.426   2.528   9.025  0.4087 -0.1946  0.1212
   70SLPC  H14X 6086   2.373   2.449   9.083 -0.5033  0.5435  0.3228
   70SLPC  H14Y 6087   2.516   2.478   8.985 -1.7384 -2.1048 -2.6583
   70SLPC  C315 6088   2.343   2.581   8.909  1.1153 -0.3120  0.5789
   70SLPC  H15X 6089   2.408   2.644   8.844 -0.9039  0.1412 -1.1028
   70SLPC  H15Y 6090   2.262   2.648   8.946  0.5299 -0.4116 -0.4953
   70SLPC  C316 6091   2.268   2.465   8.837  0.0417 -0.0125  0.6364
   70SLPC  H16X 6092   2.229   2.382   8.900  1.4373 -1.9110 -0.8452
   70SLPC  H16Y 6093   2.344   2.425   8.766  0.9345  0.3001  1.3934
   70SLPC  C317 6094   2.149   2.517   8.761  0.1989  0.2516  0.7573
   70SLPC  H17X 6095   2.191   2.585   8.684  1.6795 -2.0637 -0.6048
   70SLPC  H17Y 6096   2.080   2.570   8.830  2.1375  2.4266  1.1594
   70SLPC  C318 6097   2.086   2.395   8.701 -0.0805 -0.2458  0.3603
   70SLPC  H18X 6098   2.159   2.327   8.651 -1.5506 -0.9681 -0.8847
   70SLPC  H18Y 6099   2.027   2.428   8.613 -0.1576  2.9043  1.4939
   70SLPC  H18Z 6100   2.014   2.342   8.767  0.5496 -1.2332  0.2723
   71SLPC     N 6101   2.768   0.760  10.731  0.1854 -0.1845  0.7506
   71SLPC   C13 6102   2.750   0.670  10.614 -0.3390  0.1125  0.0097
   71SLPC  H13A 6103   2.843   0.615  10.600  0.3045  1.5016 -1.5041
   71SLPC  H13B 6104   2.658   0.614  10.625  0.3375 -0.9230  0.5400
   71SLPC  H13C 6105   2.741   0.716  10.516  0.4199 -3.1159 -1.7296
   71SLPC   C14 6106   2.887   0.842  10.715 -0.5410  0.0077 -0.1076
   71SLPC  H14A 6107   2.976   0.781  10.709 -0.4135  0.2830 -1.1424
   71SLPC  H14B 6108   2.869   0.922  10.645 -1.6938  0.3741  0.5788
   71SLPC  H14C 6109   2.892   0.893  10.810 -1.9529  0.5943 -0.3258
   71SLPC   C15 6110   2.772   0.677  10.855  0.6239  0.0949  0.0092
   71SLPC  H15A 6111   2.851   0.604  10.846  1.0932  0.7210 -1.0669
   71SLPC  H15B 6112   2.799   0.736  10.942  1.0033  0.4772 -0.3651
   71SLPC  H15C 6113   2.687   0.613  10.873  0.0380  0.7956 -0.2519
   71SLPC   C12 6114   2.642   0.850  10.738 -0.0369  0.3249  0.6409
   71SLPC  H12A 6115   2.659   0.903  10.830  3.2292 -1.4915  1.2157
   71SLPC  H12B 6116   2.560   0.781  10.752 -1.0135  0.9463 -1.4861
   71SLPC   C11 6117   2.613   0.952  10.625 -0.4137  0.1986 -0.1396
   71SLPC  H11A 6118   2.509   0.991  10.632 -1.0055 -1.5154  1.6736
   71SLPC  H11B 6119   2.607   0.898  10.529 -0.6171 -2.4370  1.2603
   71SLPC     P 6120   2.728   1.166  10.726  0.0899  0.2032 -0.1034
   71SLPC   O13 6121   2.725   1.106  10.862 -0.9007  0.0064  0.3716
   71SLPC   O14 6122   2.843   1.250  10.690 -0.4589 -0.4132 -0.0784
   71SLPC   O12 6123   2.718   1.046  10.612  0.5170  0.4473 -0.3461
   71SLPC   O11 6124   2.605   1.258  10.702  0.5293 -0.5957 -0.0965
   71SLPC    C1 6125   2.609   1.363  10.599 -0.2004 -0.2158  0.3249
   71SLPC    HA 6126   2.603   1.467  10.635  1.3729 -0.0251  0.0951
   71SLPC    HB 6127   2.693   1.358  10.527  0.3936 -0.1533  1.0027
   71SLPC    C2 6128   2.491   1.352  10.498 -1.2985 -0.1457 -0.1339
   71SLPC    HS 6129   2.396   1.354  10.554 -1.8541  0.6146 -1.0864
   71SLPC   O21 6130   2.509   1.230  10.426 -0.1795  0.1153  0.6354
   71SLPC   C21 6131   2.403   1.197  10.360 -0.4933  0.2736 -0.4255
   71SLPC   O22 6132   2.293   1.250  10.362 -0.1018  0.2149 -0.2441
   71SLPC   C22 6133   2.448   1.076  10.275 -0.0708  0.3149 -0.2842
   71SLPC   H2R 6134   2.547   1.102  10.231 -0.8980  1.3221 -1.6484
   71SLPC   H2S 6135   2.456   0.992  10.347  2.9047 -0.1109 -0.9537
   71SLPC    C3 6136   2.497   1.481  10.396  0.0061 -0.1971 -0.7909
   71SLPC    HX 6137   2.483   1.581  10.444 -0.5426 -0.7331  0.1996
   71SLPC    HY 6138   2.404   1.477  10.334  0.2805 -0.7197 -1.1754
   71SLPC   O31 6139   2.626   1.484  10.327 -0.5752 -0.3927  0.2534
   71SLPC   C31 6140   2.642   1.578  10.235 -0.1210 -0.1752  0.0229
   71SLPC   O32 6141   2.554   1.631  10.171  0.1773 -0.7725 -0.1402
   71SLPC   C32 6142   2.791   1.601  10.204 -0.4542  0.6127 -0.1681
   71SLPC   H2X 6143   2.846   1.570  10.296 -0.6247  0.7272 -0.0280
   71SLPC   H2Y 6144   2.814   1.709  10.199  3.1993 -0.0632 -2.0354
   71SLPC   C23 6145   2.350   1.031  10.162  0.0500  0.6792 -0.0222
   71SLPC   H3R 6146   2.242   1.053  10.178  0.0817  1.8409 -1.2229
   71SLPC   H3S 6147   2.350   0.924  10.130 -3.4191  1.0671 -1.9088
   71SLPC   C24 6148   2.386   1.104  10.029 -0.1925  0.2321  0.1169
   71SLPC   H4R 6149   2.486   1.075   9.989 -0.5223  1.4663 -1.7282
   71SLPC   H4S 6150   2.388   1.215  10.036  2.0788  0.3677 -1.4864
   71SLPC   C25 6151   2.288   1.062   9.916  0.1529  0.2893 -0.5119
   71SLPC   H5R 6152   2.185   1.093   9.945  0.6404  0.3895  1.2188
   71SLPC   H5S 6153   2.287   0.951   9.911 -3.0739  0.1719  0.2592
   71SLPC   C26 6154   2.332   1.120   9.781  0.1331 -0.1738  0.3409
   71SLPC   H6R 6155   2.431   1.076   9.756 -0.6753 -2.0104  0.2210
   71SLPC   H6S 6156   2.341   1.230   9.789  0.2006 -0.2212  0.9823
   71SLPC   C27 6157   2.225   1.089   9.672 -0.2234  0.1436  0.4607
   71SLPC   H7R 6158   2.124   1.129   9.692 -0.6477 -0.3194 -0.7056
   71SLPC   H7S 6159   2.204   0.980   9.665  0.7946 -0.1647  1.7908
   71SLPC   C28 6160   2.258   1.138   9.524 -0.3461  0.0148  0.2822
   71SLPC   H8R 6161   2.256   1.249   9.519  0.1723 -0.0009 -0.3413
   71SLPC   H8S 6162   2.183   1.095   9.454 -2.3742 -0.4791  2.6111
   71SLPC   C29 6163   2.390   1.095   9.471 -0.3446  0.5654  0.5773
   71SLPC   H9R 6164   2.468   1.111   9.547 -1.4658 -1.0011  2.1458
   71SLPC  C210 6165   2.412   1.032   9.356 -0.0311  0.9077 -0.9809
   71SLPC  H10R 6166   2.515   0.997   9.339  0.1747 -0.0126  1.6253
   71SLPC  C211 6167   2.317   0.986   9.250  0.1340  0.1215 -0.8430
   71SLPC  H11R 6168   2.362   1.007   9.151  2.4720 -2.2309 -0.3770
   71SLPC  H11S 6169   2.219   1.039   9.248 -0.4432 -0.9020 -0.2733
   71SLPC  C212 6170   2.280   0.842   9.262  0.4974  0.2347  0.7328
   71SLPC  H12R 6171   2.363   0.773   9.285 -0.0659 -0.9790 -0.7158
   71SLPC  C213 6172   2.167   0.780   9.245  0.8304 -0.1734  0.1970
   71SLPC  H13R 6173   2.153   0.674   9.270 -1.7776  0.5881  2.3645
   71SLPC  C214 6174   2.031   0.846   9.211 -0.2172  0.0004 -0.2913
   71SLPC  H14R 6175   2.006   0.807   9.110 -0.1289 -2.4858  0.5799
   71SLPC  H14S 6176   2.046   0.956   9.212  3.0533 -0.2874 -2.2726
   71SLPC  C215 6177   1.935   0.799   9.307  0.2801  0.1642  0.4085
   71SLPC  H15R 6178   1.940   0.689   9.316 -1.1418 -0.2894 -2.9409
   71SLPC  H15S 6179   1.838   0.827   9.261  0.3654  0.7466  0.5673
   71SLPC  C216 6180   1.929   0.868   9.444 -0.2551 -0.2919  0.5695
   71SLPC  H16R 6181   1.938   0.975   9.418  1.6941 -0.7900 -1.0881
   71SLPC  H16S 6182   2.023   0.838   9.495  0.2133  0.3084  0.0715
   71SLPC  C217 6183   1.808   0.829   9.534 -0.1735  0.5550 -0.1059
   71SLPC  H17R 6184   1.812   0.719   9.548 -2.7894  0.3442 -0.4692
   71SLPC  H17S 6185   1.715   0.848   9.476 -0.5444  3.6415  1.3041
   71SLPC  C218 6186   1.803   0.909   9.656  0.5647 -0.5164  0.4772
   71SLPC  H18R 6187   1.765   1.010   9.631  0.9733 -0.5968 -0.4955
   71SLPC  H18S 6188   1.906   0.928   9.694  1.1774 -0.3020 -1.2058
   71SLPC  H18T 6189   1.749   0.860   9.740 -1.5860  0.2323 -0.3977
   71SLPC   C33 6190   2.852   1.507  10.094  0.4056 -0.5355 -0.0179
   71SLPC   H3X 6191   2.840   1.402  10.129  0.4621 -0.5178  0.0546
   71SLPC   H3Y 6192   2.955   1.544  10.079 -0.0363  0.2565 -1.2663
   71SLPC   C34 6193   2.774   1.532   9.964 -0.4424  0.4741  0.6006
   71SLPC   H4X 6194   2.787   1.637   9.930  0.8597 -0.0858 -0.7570
   71SLPC   H4Y 6195   2.664   1.517   9.967 -0.7535  2.2829 -0.0306
   71SLPC   C35 6196   2.829   1.447   9.852  0.6578 -0.0003  0.7995
   71SLPC   H5X 6197   2.818   1.342   9.884 -0.1933  0.0194  0.6160
   71SLPC   H5Y 6198   2.936   1.466   9.830  0.4574  0.5264  0.2131
   71SLPC   C36 6199   2.746   1.462   9.724  0.2796  0.0268  0.5699
   71SLPC   H6X 6200   2.753   1.566   9.685 -0.5375 -0.7956 -1.9084
   71SLPC   H6Y 6201   2.639   1.438   9.742  0.1089  1.1548  1.1618
   71SLPC   C37 6202   2.791   1.364   9.612 -0.2729 -0.5418  0.5911
   71SLPC   H7X 6203   2.779   1.258   9.642  1.4078 -1.2279 -1.0429
   71SLPC   H7Y 6204   2.898   1.387   9.597 -0.7207  1.5838  0.2149
   71SLPC   C38 6205   2.721   1.390   9.477  0.3277  0.5169  0.4669
   71SLPC   H8X 6206   2.735   1.497   9.449  4.4424 -0.0408 -0.3330
   71SLPC   H8Y 6207   2.612   1.372   9.488  0.0219  0.3516 -2.2943
   71SLPC   C39 6208   2.778   1.315   9.354 -0.2862  0.2536 -0.2127
   71SLPC   H9X 6209   2.745   1.209   9.357  1.3091 -0.2540  0.5645
   71SLPC   H9Y 6210   2.889   1.309   9.349 -0.2362  1.1510 -0.2988
   71SLPC  C310 6211   2.726   1.383   9.228  0.0453  0.1935  0.6187
   71SLPC  H10X 6212   2.774   1.483   9.214  0.3329 -0.1472 -1.0491
   71SLPC  H10Y 6213   2.621   1.418   9.231  0.5928  1.9675  0.2173
   71SLPC  C311 6214   2.745   1.305   9.096 -0.7317 -0.2034  0.1890
   71SLPC  H11X 6215   2.690   1.209   9.100  1.6422 -1.8193 -2.2880
   71SLPC  H11Y 6216   2.853   1.288   9.076 -0.8143  0.5057 -0.9765
   71SLPC  C312 6217   2.698   1.392   8.978 -0.0402  0.4283 -0.1839
   71SLPC  H12X 6218   2.775   1.452   8.924 -1.1855  2.1081 -0.0418
   71SLPC  H12Y 6219   2.623   1.470   9.004  0.6791  0.9925  0.2333
   71SLPC  C313 6220   2.633   1.298   8.865 -1.1670  0.2931 -0.0647
   71SLPC  H13X 6221   2.584   1.365   8.791 -1.9744 -1.7139 -1.4319
   71SLPC  H13Y 6222   2.548   1.244   8.913 -1.0525  1.2819  1.3060
   71SLPC  C314 6223   2.728   1.202   8.795  0.5941 -0.1888 -0.1786
   71SLPC  H14X 6224   2.674   1.153   8.711 -1.1666 -1.1853  1.4550
   71SLPC  H14Y 6225   2.744   1.118   8.867  1.2933 -1.8227 -2.1362
   71SLPC  C315 6226   2.853   1.258   8.736 -0.3185 -0.4743  0.0834
   71SLPC  H15X 6227   2.925   1.276   8.819 -0.2480 -1.9917  0.3802
   71SLPC  H15Y 6228   2.816   1.352   8.691 -1.6674 -0.8288  0.4020
   71SLPC  C316 6229   2.918   1.164   8.635  0.2233  0.3959  0.4675
   71SLPC  H16X 6230   2.992   1.228   8.580 -0.7831  1.4335  0.2898
   71SLPC  H16Y 6231   2.845   1.126   8.561  0.1972  0.0888  0.6501
   71SLPC  C317 6232   2.989   1.041   8.687  0.2603  0.1427  0.3043
   71SLPC  H17X 6233   3.011   0.969   8.605 -2.1896 -0.3768  0.0475
   71SLPC  H17Y 6234   2.927   0.977   8.753  0.5601 -1.4048 -0.8331
   71SLPC  C318 6235   3.112   1.082   8.769  0.1680 -0.3320  0.8138
   71SLPC  H18X 6236   3.185   1.000   8.784  0.5242  0.2389  2.3325
   71SLPC  H18Y 6237   3.074   1.108   8.870 -0.5213  0.1607  0.4348
   71SLPC  H18Z 6238   3.150   1.169   8.710 -0.7847 -0.4597 -0.0150
   72SLPC     N 6239   4.161   6.745  10.951 -0.3546 -0.0525 -0.4680
   72SLPC   C13 6240   4.180   6.697  11.094 -0.6800  0.4918 -0.8667
   72SLPC  H13A 6241   4.207   6.782  11.155  3.2484 -1.0900 -0.1347
   72SLPC  H13B 6242   4.100   6.637  11.134  2.0889 -1.4214  2.2977
   72SLPC  H13C 6243   4.262   6.628  11.094  0.5803  1.8053  1.9172
   72SLPC   C14 6244   4.289   6.814  10.907 -0.2681  0.3065 -0.7754
   72SLPC  H14A 6245   4.371   6.748  10.930 -0.7848  0.0097  0.2562
   72SLPC  H14B 6246   4.285   6.835  10.801 -1.1183  0.4011 -0.7303
   72SLPC  H14C 6247   4.290   6.907  10.962  2.3057 -0.4980  0.7195
   72SLPC   C15 6248   4.045   6.836  10.955  0.0036 -0.3547 -0.0427
   72SLPC  H15A 6249   4.071   6.919  11.019 -0.4851 -1.2271  1.3174
   72SLPC  H15B 6250   4.017   6.885  10.862  1.2734 -0.1776 -0.3574
   72SLPC  H15C 6251   3.958   6.786  10.994 -0.8733  1.0897 -0.0656
   72SLPC   C12 6252   4.130   6.629  10.860 -0.1934 -0.3706  0.3223
   72SLPC  H12A 6253   4.095   6.654  10.761  0.3485 -1.5144 -0.1812
   72SLPC  H12B 6254   4.043   6.579  10.899 -0.6746  0.7891  0.7807
   72SLPC   C11 6255   4.239   6.519  10.837  0.5038  0.2036  0.5230
   72SLPC  H11A 6256   4.266   6.472  10.934 -0.5107  1.8322  1.6480
   72SLPC  H11B 6257   4.329   6.559  10.786 -1.2108  0.3645 -2.6793
   72SLPC     P 6258   4.104   6.311  10.795  0.1363  0.1167  0.4513
   72SLPC   O13 6259   4.202   6.222  10.860  0.5130  0.2278  0.0203
   72SLPC   O14 6260   3.995   6.364  10.872  1.5663 -0.2087  0.0984
   72SLPC   O12 6261   4.181   6.433  10.732 -0.6470 -0.0868 -0.4556
   72SLPC   O11 6262   4.048   6.248  10.660  0.3045 -0.3814  0.1868
   72SLPC    C1 6263   4.020   6.345  10.546  0.0052 -0.4025 -0.0376
   72SLPC    HA 6264   4.001   6.449  10.578  2.3332  0.1418 -0.2699
   72SLPC    HB 6265   4.097   6.333  10.466 -0.8631 -2.7601 -0.6158
   72SLPC    C2 6266   3.893   6.299  10.480 -0.0369 -0.4878 -0.6017
   72SLPC    HS 6267   3.910   6.203  10.427  0.5306 -0.0472 -1.2371
   72SLPC   O21 6268   3.870   6.409  10.395 -0.5126 -0.4157  0.2611
   72SLPC   C21 6269   3.913   6.401  10.273  0.1924  0.2367 -0.1549
   72SLPC   O22 6270   3.969   6.306  10.225 -0.1015  0.5848  0.8828
   72SLPC   C22 6271   3.892   6.524  10.190  0.9345 -0.3424  0.2649
   72SLPC   H2R 6272   3.795   6.574  10.211 -0.2892 -2.4874  0.1155
   72SLPC   H2S 6273   3.974   6.592  10.219 -1.1567  1.0058  3.5469
   72SLPC    C3 6274   3.776   6.285  10.576  0.9102  0.1473 -0.3977
   72SLPC    HX 6275   3.778   6.386  10.622  3.3852 -0.2817  0.5699
   72SLPC    HY 6276   3.822   6.211  10.645  1.5049 -0.0944 -1.0398
   72SLPC   O31 6277   3.649   6.228  10.532 -0.4429 -0.0478 -0.0165
   72SLPC   C31 6278   3.560   6.321  10.497  1.0554  0.1895  0.2364
   72SLPC   O32 6279   3.563   6.441  10.518 -0.2537  0.1648  0.5148
   72SLPC   C32 6280   3.465   6.249  10.403  0.0985 -1.1045 -0.1475
   72SLPC   H2X 6281   3.371   6.308  10.398  0.4823 -0.5819 -2.3575
   72SLPC   H2Y 6282   3.442   6.147  10.441 -0.6918 -0.6763  0.5429
   72SLPC   C23 6283   3.888   6.505  10.039 -0.0124  0.3904 -0.5861
   72SLPC   H3R 6284   3.973   6.442  10.003 -0.5061  0.1061 -1.2819
   72SLPC   H3S 6285   3.910   6.602   9.989  0.5041  0.8508  0.5040
   72SLPC   C24 6286   3.753   6.461   9.980 -0.1233  0.3924 -0.5112
   72SLPC   H4R 6287   3.672   6.529  10.012  0.2324  1.9051 -2.5861
   72SLPC   H4S 6288   3.730   6.359  10.017 -2.6700  1.6310  1.5724
   72SLPC   C25 6289   3.754   6.466   9.829 -0.0172  0.0528  1.3068
   72SLPC   H5R 6290   3.822   6.546   9.791  1.6792 -1.1653  1.6522
   72SLPC   H5S 6291   3.651   6.487   9.793  0.1871 -0.5924  0.2975
   72SLPC   C26 6292   3.814   6.344   9.759 -0.7981 -0.6731 -0.0346
   72SLPC   H6R 6293   3.767   6.260   9.814  1.5972  0.3023  3.8639
   72SLPC   H6S 6294   3.923   6.350   9.779 -1.0003  3.5812  0.7780
   72SLPC   C27 6295   3.785   6.331   9.610 -0.2099 -0.7561  0.2307
   72SLPC   H7R 6296   3.814   6.432   9.575 -0.2153 -0.7780  0.1626
   72SLPC   H7S 6297   3.676   6.316   9.592 -0.2487 -1.6243  1.0806
   72SLPC   C28 6298   3.856   6.217   9.535  0.3574  0.4709 -0.0907
   72SLPC   H8R 6299   3.791   6.197   9.447 -0.3772  1.1740  0.2676
   72SLPC   H8S 6300   3.847   6.126   9.597 -0.8305  1.0663  0.6575
   72SLPC   C29 6301   3.998   6.253   9.510  0.2606  0.2625 -0.3321
   72SLPC   H9R 6302   4.051   6.267   9.605 -0.7629  1.1528  0.1267
   72SLPC  C210 6303   4.051   6.249   9.383 -0.0481  0.9455 -0.4649
   72SLPC  H10R 6304   4.154   6.283   9.365  0.2563  1.1175  1.3728
   72SLPC  C211 6305   3.979   6.203   9.256  0.2182  0.3243  0.4395
   72SLPC  H11R 6306   3.872   6.232   9.266  0.8388  4.4703 -2.3600
   72SLPC  H11S 6307   3.990   6.094   9.241  0.1532  0.2877  0.6490
   72SLPC  C212 6308   4.027   6.260   9.125 -0.7659  0.3216 -0.3068
   72SLPC  H12R 6309   4.135   6.276   9.110 -1.1956  2.1204 -1.8472
   72SLPC  C213 6310   3.948   6.275   9.020 -0.1969 -0.7800  0.5898
   72SLPC  H13R 6311   3.991   6.312   8.926 -0.7963 -0.3136  0.4954
   72SLPC  C214 6312   3.796   6.266   9.009 -0.3982 -0.4381  0.5303
   72SLPC  H14R 6313   3.769   6.373   8.995 -1.2368 -0.7201 -0.0912
   72SLPC  H14S 6314   3.746   6.250   9.106 -2.1640  0.9237 -0.1092
   72SLPC  C215 6315   3.746   6.172   8.902 -1.1831 -0.0268 -0.6685
   72SLPC  H15R 6316   3.636   6.159   8.911 -1.2495  1.2520  0.6904
   72SLPC  H15S 6317   3.789   6.070   8.911  0.2873  0.7681  2.3491
   72SLPC  C216 6318   3.764   6.242   8.769 -0.0771 -0.5748  0.1463
   72SLPC  H16R 6319   3.861   6.296   8.776 -0.0789 -0.7057  1.5074
   72SLPC  H16S 6320   3.688   6.320   8.746  1.1869  0.6413 -0.0602
   72SLPC  C217 6321   3.779   6.148   8.645  0.2212 -0.3222  0.1940
   72SLPC  H17R 6322   3.873   6.094   8.668  0.8429  0.6223 -0.0493
   72SLPC  H17S 6323   3.798   6.212   8.556 -0.1753  0.8758  0.9481
   72SLPC  C218 6324   3.659   6.061   8.621  0.4177 -1.0853 -0.0495
   72SLPC  H18R 6325   3.648   5.985   8.701  1.4690 -2.0961 -0.8376
   72SLPC  H18S 6326   3.660   6.014   8.521  2.4125  0.6251 -0.8950
   72SLPC  H18T 6327   3.566   6.122   8.631  0.5628 -0.5831 -1.5205
   72SLPC   C33 6328   3.513   6.250  10.256 -0.0474  0.0135 -0.2860
   72SLPC   H3X 6329   3.618   6.217  10.241  0.6851  2.3272 -0.6319
   72SLPC   H3Y 6330   3.511   6.357  10.228  3.0698  0.6289  1.4034
   72SLPC   C34 6331   3.418   6.180  10.168  0.2823  0.5155 -0.1048
   72SLPC   H4X 6332   3.314   6.206  10.199  0.4865 -0.3185  1.4128
   72SLPC   H4Y 6333   3.428   6.072  10.191  2.7145  0.3211 -1.7012
   72SLPC   C35 6334   3.452   6.197  10.021 -0.3254  0.1993  0.2844
   72SLPC   H5X 6335   3.555   6.160  10.004 -0.9845 -2.2199  1.1410
   72SLPC   H5Y 6336   3.444   6.304   9.994  0.3916 -0.0150 -0.8360
   72SLPC   C36 6337   3.352   6.109   9.939 -0.6896 -0.5286  0.3606
   72SLPC   H6X 6338   3.255   6.156   9.967 -1.1456 -1.6343  0.7095
   72SLPC   H6Y 6339   3.359   6.007   9.981 -1.6489 -0.9546 -0.4687
   72SLPC   C37 6340   3.386   6.102   9.787 -0.2369  0.1635  0.2808
   72SLPC   H7X 6341   3.316   6.029   9.741 -1.4734  0.2150  1.9719
   72SLPC   H7Y 6342   3.486   6.054   9.778 -0.5046 -0.3617  0.0356
   72SLPC   C38 6343   3.382   6.233   9.707 -0.2776 -0.4235 -0.1812
   72SLPC   H8X 6344   3.473   6.290   9.735 -0.6150 -0.9902  2.4122
   72SLPC   H8Y 6345   3.289   6.284   9.740  0.1663  0.8942 -0.9299
   72SLPC   C39 6346   3.369   6.193   9.552  0.2334  0.0760  0.0334
   72SLPC   H9X 6347   3.287   6.118   9.551  1.7704 -1.6595 -1.5155
   72SLPC   H9Y 6348   3.468   6.152   9.522  1.0999  1.2024  1.2184
   72SLPC  C310 6349   3.328   6.318   9.463  0.0577  0.0910 -0.2988
   72SLPC  H10X 6350   3.409   6.394   9.458  0.5124 -0.3460  0.1268
   72SLPC  H10Y 6351   3.240   6.362   9.514  2.0955  2.0115  1.8616
   72SLPC  C311 6352   3.288   6.278   9.320  0.4032 -0.0731  0.0465
   72SLPC  H11X 6353   3.217   6.350   9.274  1.4624 -0.0161 -1.5949
   72SLPC  H11Y 6354   3.249   6.176   9.299  1.4851 -0.2110 -1.5033
   72SLPC  C312 6355   3.415   6.282   9.225 -0.6268  0.0458  0.4976
   72SLPC  H12X 6356   3.496   6.210   9.246 -0.5280  0.0556  0.1555
   72SLPC  H12Y 6357   3.461   6.381   9.246 -1.2835 -0.2090  3.7522
   72SLPC  C313 6358   3.372   6.266   9.076 -0.0138 -0.0406 -0.5183
   72SLPC  H13X 6359   3.438   6.324   9.007 -0.6271  1.9647  0.5070
   72SLPC  H13Y 6360   3.285   6.334   9.068  0.8402  1.0295 -0.9189
   72SLPC  C314 6361   3.358   6.122   9.031  0.3437  0.5786  0.0061
   72SLPC  H14X 6362   3.265   6.085   9.077  0.4637 -0.8490 -0.8242
   72SLPC  H14Y 6363   3.449   6.062   9.051  1.0425  1.1819 -1.2181
   72SLPC  C315 6364   3.333   6.099   8.877  0.0884 -0.1614 -0.0482
   72SLPC  H15X 6365   3.430   6.119   8.826 -0.0867 -1.5314 -0.9563
   72SLPC  H15Y 6366   3.255   6.172   8.847  1.3495  1.0118 -0.6419
   72SLPC  C316 6367   3.300   5.964   8.826 -0.0517 -0.0703 -0.8296
   72SLPC  H16X 6368   3.211   5.921   8.876  1.9238 -1.0572  2.1427
   72SLPC  H16Y 6369   3.381   5.903   8.872 -2.9281 -0.4516  4.5864
   72SLPC  C317 6370   3.289   5.946   8.674  0.1625 -0.0914  1.0580
   72SLPC  H17X 6371   3.256   5.842   8.658 -1.7671  0.8241 -1.6697
   72SLPC  H17Y 6372   3.393   5.961   8.638 -0.2405  1.0401  0.3029
   72SLPC  C318 6373   3.186   6.032   8.589  0.0524 -0.3430 -0.0699
   72SLPC  H18X 6374   3.212   6.015   8.482  0.4651 -0.9335  0.1181
   72SLPC  H18Y 6375   3.193   6.138   8.620  2.0980 -0.2265 -0.7685
   72SLPC  H18Z 6376   3.084   5.992   8.606 -0.1611 -0.2935 -1.1687
   73SLPC     N 6377   4.090   5.044  10.753  0.4577  0.0747  0.0008
   73SLPC   C13 6378   4.215   5.095  10.800 -0.6006 -0.2893 -0.6934
   73SLPC  H13A 6379   4.225   5.201  10.816  2.4624 -0.4806 -0.8630
   73SLPC  H13B 6380   4.239   5.059  10.898 -0.9385  0.6826 -0.2481
   73SLPC  H13C 6381   4.295   5.053  10.741 -0.4687 -2.3717  0.8650
   73SLPC   C14 6382   4.074   5.090  10.609 -0.5738  0.0385 -0.4509
   73SLPC  H14A 6383   3.975   5.050  10.588  0.1799 -2.3591  0.1636
   73SLPC  H14B 6384   4.075   5.198  10.604  0.0967  0.2076  1.9274
   73SLPC  H14C 6385   4.149   5.053  10.541 -1.3752 -0.6250 -1.0061
   73SLPC   C15 6386   3.979   5.100  10.831  0.0275 -0.0643 -0.4484
   73SLPC  H15A 6387   3.949   5.199  10.801  1.5864  0.1502 -1.4036
   73SLPC  H15B 6388   3.899   5.028  10.835  1.8940 -2.2226  1.1209
   73SLPC  H15C 6389   4.023   5.112  10.929  0.9748  2.0712 -1.0683
   73SLPC   C12 6390   4.090   4.894  10.767  0.2998  0.4791  0.4862
   73SLPC  H12A 6391   4.083   4.875  10.873 -1.1074 -2.1659 -0.0026
   73SLPC  H12B 6392   4.188   4.849  10.757 -0.0566 -0.2270  0.0338
   73SLPC   C11 6393   3.983   4.808  10.689  0.3883 -0.1424  0.6521
   73SLPC  H11A 6394   4.016   4.702  10.696 -0.3198 -0.3475  0.9067
   73SLPC  H11B 6395   3.975   4.852  10.587  0.5338  3.1784  1.9371
   73SLPC     P 6396   3.803   4.754  10.865  0.2224 -0.1636 -0.2110
   73SLPC   O13 6397   3.919   4.712  10.947 -0.3274  0.3030 -0.6036
   73SLPC   O14 6398   3.710   4.853  10.921 -0.5710  0.3748  0.2856
   73SLPC   O12 6399   3.854   4.825  10.738 -0.2345  0.2399 -0.0040
   73SLPC   O11 6400   3.735   4.629  10.804  0.2913 -0.0991  0.1674
   73SLPC    C1 6401   3.631   4.636  10.696 -0.7238  0.2445  0.2603
   73SLPC    HA 6402   3.551   4.560  10.704 -0.8518  0.2511 -0.8472
   73SLPC    HB 6403   3.582   4.735  10.702 -0.9936  0.0274  3.2443
   73SLPC    C2 6404   3.702   4.603  10.565  0.2166  0.5702 -0.2636
   73SLPC    HS 6405   3.764   4.693  10.544  0.5230  1.2230  2.9521
   73SLPC   O21 6406   3.611   4.592  10.456  0.3229  0.3462 -0.5497
   73SLPC   C21 6407   3.564   4.703  10.401 -0.2668  0.2509 -0.2540
   73SLPC   O22 6408   3.621   4.808  10.409 -0.4402 -0.4005 -0.2623
   73SLPC   C22 6409   3.426   4.664  10.328  0.0359 -0.2618  0.4032
   73SLPC   H2R 6410   3.431   4.557  10.301 -3.1186 -0.1457 -0.9957
   73SLPC   H2S 6411   3.360   4.686  10.414  1.2004  0.8304  1.0575
   73SLPC    C3 6412   3.796   4.477  10.574  0.3910 -0.3552 -0.6533
   73SLPC    HX 6413   3.741   4.392  10.618  0.9226  0.0861  0.9269
   73SLPC    HY 6414   3.876   4.508  10.645  0.9180 -0.8584 -1.0144
   73SLPC   O31 6415   3.844   4.429  10.446  0.6230 -0.4027  0.0041
   73SLPC   C31 6416   3.936   4.508  10.381 -0.6695 -0.6439  0.2704
   73SLPC   O32 6417   3.981   4.612  10.423 -0.2423 -0.0358  0.1517
   73SLPC   C32 6418   3.955   4.447  10.244  0.0320 -0.5377  0.5607
   73SLPC   H2X 6419   3.882   4.364  10.233  0.1082 -0.6663  1.0335
   73SLPC   H2Y 6420   4.061   4.414  10.243  0.3732  0.4056  2.5266
   73SLPC   C23 6421   3.400   4.748  10.203  0.7415  0.2831  0.0597
   73SLPC   H3R 6422   3.420   4.857  10.211  1.5924  0.2109 -0.8719
   73SLPC   H3S 6423   3.290   4.738  10.192  0.5548  0.1722  1.6941
   73SLPC   C24 6424   3.483   4.696  10.079  0.0964 -0.3647  0.5588
   73SLPC   H4R 6425   3.442   4.595  10.062 -0.4015 -0.7915  3.6702
   73SLPC   H4S 6426   3.591   4.682  10.104  0.5617 -0.0438 -1.1592
   73SLPC   C25 6427   3.472   4.794   9.962  0.5843 -0.2967 -0.0856
   73SLPC   H5R 6428   3.502   4.894  10.001 -2.6447 -0.1238  2.4007
   73SLPC   H5S 6429   3.366   4.784   9.929 -0.3539 -3.5038  3.1825
   73SLPC   C26 6430   3.555   4.748   9.841  0.0752 -0.4672  0.2356
   73SLPC   H6R 6431   3.516   4.661   9.784 -1.4995  0.4929 -0.2365
   73SLPC   H6S 6432   3.660   4.729   9.870  0.0045 -0.7033  0.3342
   73SLPC   C27 6433   3.550   4.867   9.738  0.7076 -0.2155  0.5494
   73SLPC   H7R 6434   3.576   4.963   9.787 -1.6027  0.4237  0.6248
   73SLPC   H7S 6435   3.441   4.871   9.716  0.4055 -1.1594  1.7360
   73SLPC   C28 6436   3.642   4.849   9.617  0.4755  0.7019 -0.6256
   73SLPC   H8R 6437   3.745   4.858   9.657 -0.1870 -1.6176  1.8195
   73SLPC   H8S 6438   3.640   4.927   9.538  2.0728  1.8621  0.4091
   73SLPC   C29 6439   3.623   4.710   9.559  0.5552 -0.4138  0.0586
   73SLPC   H9R 6440   3.699   4.640   9.596  0.3401 -1.4407 -1.3756
   73SLPC  C210 6441   3.538   4.662   9.471 -0.1976 -0.4066 -0.0076
   73SLPC  H10R 6442   3.544   4.556   9.445 -0.7701 -0.0911 -1.5575
   73SLPC  C211 6443   3.422   4.736   9.400 -0.2565 -0.3135 -0.0208
   73SLPC  H11R 6444   3.379   4.814   9.467  1.6177  0.4780  0.3343
   73SLPC  H11S 6445   3.350   4.662   9.360  0.3117 -1.3319  0.7698
   73SLPC  C212 6446   3.481   4.814   9.287 -0.0611 -0.1789  0.2949
   73SLPC  H12R 6447   3.560   4.888   9.308  1.2556 -0.9498 -1.6833
   73SLPC  C213 6448   3.429   4.811   9.161 -0.1871  0.0851  0.3430
   73SLPC  H13R 6449   3.479   4.855   9.074 -1.7486  0.4912 -0.3792
   73SLPC  C214 6450   3.301   4.738   9.111  0.6704  0.4569  0.2676
   73SLPC  H14R 6451   3.283   4.646   9.171  0.1953  0.5150  0.2200
   73SLPC  H14S 6452   3.319   4.695   9.010  1.3452  0.3407  0.4356
   73SLPC  C215 6453   3.171   4.821   9.113 -0.1640  0.1049  0.2563
   73SLPC  H15R 6454   3.177   4.899   9.192 -0.7811 -1.4964  1.9433
   73SLPC  H15S 6455   3.081   4.759   9.132 -0.7177  1.5258  2.8392
   73SLPC  C216 6456   3.134   4.891   8.983 -0.1736  0.1538  0.2501
   73SLPC  H16R 6457   3.116   4.813   8.906 -3.3466  0.3657  0.6295
   73SLPC  H16S 6458   3.221   4.953   8.953 -1.4419  2.6304  1.3658
   73SLPC  C217 6459   3.010   4.978   9.004 -0.3719 -0.2251  0.2568
   73SLPC  H17R 6460   2.991   5.024   8.904 -1.3004 -0.3226  0.3817
   73SLPC  H17S 6461   3.034   5.069   9.063  1.2395  0.4750 -1.3453
   73SLPC  C218 6462   2.881   4.914   9.058  0.4283  0.3919  0.3566
   73SLPC  H18R 6463   2.857   4.823   8.999  0.7357 -2.2931  3.9900
   73SLPC  H18S 6464   2.793   4.981   9.061  0.2885  0.1933  0.7129
   73SLPC  H18T 6465   2.894   4.881   9.164 -0.5261 -0.9939  0.0680
   73SLPC   C33 6466   3.940   4.551  10.129  0.1874  0.1306  0.2968
   73SLPC   H3X 6467   4.009   4.633  10.157 -0.1096  0.1104  1.1163
   73SLPC   H3Y 6468   3.837   4.593  10.140  1.1975  2.4081  1.8243
   73SLPC   C34 6469   3.957   4.491   9.986  0.4836  0.2605 -0.5803
   73SLPC   H4X 6470   3.869   4.427   9.963  1.8777 -2.5288  1.2162
   73SLPC   H4Y 6471   4.040   4.418   9.995 -0.9879 -1.2566  1.9063
   73SLPC   C35 6472   3.994   4.597   9.887  0.5697  0.2308 -0.7210
   73SLPC   H5X 6473   4.103   4.614   9.900  0.3907 -0.5474  2.5314
   73SLPC   H5Y 6474   3.936   4.689   9.906  0.4256 -0.2796  1.5106
   73SLPC   C36 6475   3.963   4.567   9.739 -0.0163  0.5208 -0.5981
   73SLPC   H6X 6476   3.854   4.555   9.721  0.1374 -4.0421  0.4522
   73SLPC   H6Y 6477   4.012   4.470   9.715  2.0111  0.9787  1.3498
   73SLPC   C37 6478   4.018   4.669   9.644 -0.4620 -0.2491  0.2351
   73SLPC   H7X 6479   4.122   4.696   9.673 -1.1612  0.3478  2.2790
   73SLPC   H7Y 6480   3.968   4.768   9.640  0.0971  0.0119 -2.7985
   73SLPC   C38 6481   4.029   4.622   9.499  0.5738 -0.2495  0.5258
   73SLPC   H8X 6482   3.924   4.610   9.463  1.1360  0.2630 -1.4075
   73SLPC   H8Y 6483   4.066   4.517   9.497 -1.1166 -0.8774  0.1795
   73SLPC   C39 6484   4.113   4.710   9.403  0.0183 -0.3145  0.0173
   73SLPC   H9X 6485   4.220   4.680   9.409 -0.2839 -1.3765  0.4550
   73SLPC   H9Y 6486   4.121   4.819   9.419  0.5665 -0.5202  1.2452
   73SLPC  C310 6487   4.061   4.687   9.260 -0.0816 -0.6067  0.0122
   73SLPC  H10X 6488   4.039   4.580   9.240 -1.0459 -0.3602 -0.3504
   73SLPC  H10Y 6489   4.154   4.699   9.200  1.2885 -2.3578  1.6877
   73SLPC  C311 6490   3.939   4.779   9.227 -0.4055  0.7368  0.0781
   73SLPC  H11X 6491   3.971   4.883   9.253  0.3856  0.4625  0.2507
   73SLPC  H11Y 6492   3.854   4.743   9.289 -0.9421  2.3737  0.3591
   73SLPC  C312 6493   3.897   4.769   9.083 -0.4454  0.1920 -0.2191
   73SLPC  H12X 6494   3.839   4.675   9.080 -2.7265  1.4234  1.6674
   73SLPC  H12Y 6495   3.995   4.755   9.032 -1.0518 -3.6597 -0.5775
   73SLPC  C313 6496   3.822   4.887   9.027  0.1453 -0.4558  0.3698
   73SLPC  H13X 6497   3.857   4.983   9.072 -1.0761 -0.4788  1.4202
   73SLPC  H13Y 6498   3.715   4.878   9.058 -0.0389  0.4964  0.0470
   73SLPC  C314 6499   3.852   4.900   8.879  0.3528  0.1872 -0.4266
   73SLPC  H14X 6500   3.867   4.798   8.836 -1.4945 -0.0181 -0.6669
   73SLPC  H14Y 6501   3.931   4.974   8.854 -1.1073  1.7915 -0.5021
   73SLPC  C315 6502   3.723   4.946   8.804 -0.1987  0.1904 -0.1461
   73SLPC  H15X 6503   3.749   4.992   8.706  0.4103  2.2828  0.9291
   73SLPC  H15Y 6504   3.680   5.030   8.864 -1.2211 -1.3940  1.4478
   73SLPC  C316 6505   3.617   4.836   8.793  0.5015 -0.0976  0.7587
   73SLPC  H16X 6506   3.582   4.811   8.896  1.1393 -0.8717  0.7993
   73SLPC  H16Y 6507   3.666   4.745   8.753  0.3358 -0.1595  0.6963
   73SLPC  C317 6508   3.490   4.862   8.710 -0.4847  0.1836  0.1627
   73SLPC  H17X 6509   3.458   4.968   8.722  0.2649  0.4539 -0.2050
   73SLPC  H17Y 6510   3.405   4.802   8.748 -1.3210 -0.2774 -2.2612
   73SLPC  C318 6511   3.510   4.828   8.560  0.2601 -0.2130 -0.0070
   73SLPC  H18X 6512   3.525   4.720   8.540  2.7084 -0.0120  0.4677
   73SLPC  H18Y 6513   3.597   4.882   8.517  0.0300 -0.6631 -1.0953
   73SLPC  H18Z 6514   3.420   4.850   8.498  0.4448  1.5844  0.2965
   74SLPC     N 6515   4.553   6.185  10.684  0.0324  0.2520  0.1751
   74SLPC   C13 6516   4.544   6.053  10.752 -0.4576  0.1335  0.0427
   74SLPC  H13A 6517   4.469   6.051  10.829  0.2492 -2.6498  0.7671
   74SLPC  H13B 6518   4.520   5.968  10.690  2.8153  0.2456 -1.5816
   74SLPC  H13C 6519   4.645   6.037  10.786  0.0915  0.9626 -1.1342
   74SLPC   C14 6520   4.600   6.292  10.779 -0.0690 -0.4674  0.1169
   74SLPC  H14A 6521   4.700   6.266  10.811 -0.0602 -0.6464 -0.0600
   74SLPC  H14B 6522   4.597   6.389  10.731 -0.4011 -0.2851  0.4942
   74SLPC  H14C 6523   4.539   6.300  10.868  3.2641  0.8134  2.5327
   74SLPC   C15 6524   4.423   6.229  10.635 -0.0053 -0.1846 -0.4619
   74SLPC  H15A 6525   4.351   6.213  10.715  1.3092 -0.2650  0.7422
   74SLPC  H15B 6526   4.412   6.335  10.617  1.0804 -0.1704 -1.0826
   74SLPC  H15C 6527   4.388   6.174  10.549  0.5653 -0.9924 -0.1876
   74SLPC   C12 6528   4.660   6.179  10.573 -0.1370 -0.2243 -0.2774
   74SLPC  H12A 6529   4.633   6.090  10.517  0.2738 -1.3391  1.2393
   74SLPC  H12B 6530   4.751   6.141  10.618 -0.7274 -1.5860 -0.1661
   74SLPC   C11 6531   4.678   6.295  10.471  0.4878  0.6389 -0.6500
   74SLPC  H11A 6532   4.599   6.298  10.394 -0.8627  0.3615  0.6759
   74SLPC  H11B 6533   4.772   6.268  10.419  0.2055 -2.1606  0.1334
   74SLPC     P 6534   4.809   6.523  10.507 -0.0631  0.2761  0.2308
   74SLPC   O13 6535   4.767   6.660  10.540  1.5047 -0.2650 -0.1958
   74SLPC   O14 6536   4.939   6.478  10.568  0.4005 -0.3506  0.1790
   74SLPC   O12 6537   4.685   6.423  10.539 -0.1912  0.6870 -0.6038
   74SLPC   O11 6538   4.820   6.512  10.355 -0.5281  0.1317  0.1764
   74SLPC    C1 6539   4.738   6.586  10.268 -0.3163  0.5114  0.1898
   74SLPC    HA 6540   4.631   6.558  10.284 -0.5140  1.5473  0.7606
   74SLPC    HB 6541   4.738   6.694  10.294 -0.5193  0.4532  0.4394
   74SLPC    C2 6542   4.776   6.578  10.121  0.7597 -0.4840  0.2423
   74SLPC    HS 6543   4.759   6.477  10.079 -0.6996 -0.2062  0.1141
   74SLPC   O21 6544   4.904   6.638  10.102 -0.4370 -0.1706 -0.0584
   74SLPC   C21 6545   5.005   6.552  10.085  0.7918 -0.5630 -0.4446
   74SLPC   O22 6546   4.997   6.431  10.084  0.5802  0.2632  0.3657
   74SLPC   C22 6547   5.137   6.629  10.076  0.1362  0.4013  0.1265
   74SLPC   H2R 6548   5.123   6.735  10.043  0.0494 -0.0274 -1.2807
   74SLPC   H2S 6549   5.194   6.618  10.170 -1.3217 -4.0497  0.7249
   74SLPC    C3 6550   4.675   6.661  10.038  0.5297  0.0472  0.6836
   74SLPC    HX 6551   4.684   6.767  10.071 -0.5665  0.4872 -0.3761
   74SLPC    HY 6552   4.579   6.621  10.077 -0.3309  1.9000  0.5982
   74SLPC   O31 6553   4.696   6.652   9.896 -1.3237  0.2604 -0.2763
   74SLPC   C31 6554   4.612   6.572   9.826 -0.0262 -0.4020 -0.6052
   74SLPC   O32 6555   4.527   6.501   9.877 -0.0580 -0.2220  0.4179
   74SLPC   C32 6556   4.634   6.581   9.685  0.5809  0.4930  0.2483
   74SLPC   H2X 6557   4.600   6.684   9.658 -2.4096 -0.1360  1.2605
   74SLPC   H2Y 6558   4.577   6.493   9.650  1.4987 -0.0172  0.0203
   74SLPC   C23 6559   5.231   6.557   9.980  0.0916 -0.4800  0.0678
   74SLPC   H3R 6560   5.223   6.449  10.006 -0.6162  0.1185  2.5569
   74SLPC   H3S 6561   5.335   6.592   9.998 -0.8121  1.6038  1.5844
   74SLPC   C24 6562   5.193   6.581   9.832  0.1028  0.0285 -0.6014
   74SLPC   H4R 6563   5.240   6.679   9.809  3.4635 -1.4664 -0.6912
   74SLPC   H4S 6564   5.083   6.581   9.818  0.1917 -0.9217 -1.3279
   74SLPC   C25 6565   5.273   6.482   9.743  0.0439 -0.3811 -0.2343
   74SLPC   H5R 6566   5.229   6.380   9.747 -1.9963  0.4383 -0.2373
   74SLPC   H5S 6567   5.375   6.470   9.784 -0.5349 -0.0428  1.3921
   74SLPC   C26 6568   5.281   6.532   9.603 -0.7878  0.2559 -0.4036
   74SLPC   H6R 6569   5.351   6.618   9.590  1.1360 -0.9095  1.5950
   74SLPC   H6S 6570   5.181   6.572   9.575 -0.8360 -1.2502 -2.5715
   74SLPC   C27 6571   5.313   6.431   9.498 -0.0428  0.4009 -0.4223
   74SLPC   H7R 6572   5.223   6.365   9.486 -1.9146  2.5890  0.7787
   74SLPC   H7S 6573   5.410   6.382   9.517  0.6195  1.0288 -2.0428
   74SLPC   C28 6574   5.339   6.493   9.363 -0.0490  0.6115  0.6787
   74SLPC   H8R 6575   5.415   6.574   9.372  0.8607  0.4257 -3.2804
   74SLPC   H8S 6576   5.252   6.554   9.331 -0.9541 -0.8578  0.2317
   74SLPC   C29 6577   5.378   6.389   9.254 -0.2614  0.0331  0.0992
   74SLPC   H9R 6578   5.296   6.337   9.204  0.4878  1.2656 -2.6575
   74SLPC  C210 6579   5.500   6.355   9.204 -0.1238  0.4899  0.0700
   74SLPC  H10R 6580   5.509   6.272   9.133 -1.6811 -0.1137  0.5400
   74SLPC  C211 6581   5.630   6.417   9.231  0.2123 -0.5484  0.3275
   74SLPC  H11R 6582   5.624   6.519   9.275 -0.6635 -0.7894  0.7766
   74SLPC  H11S 6583   5.688   6.419   9.136  1.1343 -2.3559  0.8084
   74SLPC  C212 6584   5.706   6.354   9.349  0.2889 -0.3007  0.3968
   74SLPC  H12R 6585   5.679   6.395   9.447  1.9221 -1.1678  1.2474
   74SLPC  C213 6586   5.804   6.259   9.342 -0.6858 -0.2667 -0.4147
   74SLPC  H13R 6587   5.854   6.234   9.436 -2.5930 -0.0960  0.7007
   74SLPC  C214 6588   5.859   6.191   9.220 -0.2727 -0.2396  0.0471
   74SLPC  H14R 6589   5.967   6.218   9.222  0.1858 -1.9075 -0.6295
   74SLPC  H14S 6590   5.817   6.221   9.121  3.2465 -2.7257 -2.4648
   74SLPC  C215 6591   5.836   6.041   9.236  0.6238 -0.3995  0.0115
   74SLPC  H15R 6592   5.731   6.021   9.266  0.3662  0.0378 -0.5777
   74SLPC  H15S 6593   5.901   5.999   9.315 -1.2282 -2.1457  0.7222
   74SLPC  C216 6594   5.869   5.968   9.098  0.6574  0.1430 -0.1473
   74SLPC  H16R 6595   5.975   5.987   9.069  1.0944  0.5812  1.6242
   74SLPC  H16S 6596   5.802   5.997   9.014 -2.0375  0.8618  2.1015
   74SLPC  C217 6597   5.856   5.814   9.107  0.3037 -0.1536 -0.5704
   74SLPC  H17R 6598   5.754   5.781   9.135 -0.1789  2.0748  0.5629
   74SLPC  H17S 6599   5.929   5.782   9.185  0.2178 -0.0460 -0.4453
   74SLPC  C218 6600   5.883   5.743   8.971 -0.0889 -0.3514  0.6633
   74SLPC  H18R 6601   5.844   5.639   8.972  0.7518 -0.7340 -1.4488
   74SLPC  H18S 6602   5.992   5.735   8.948 -0.2850 -1.9372  0.1759
   74SLPC  H18T 6603   5.825   5.798   8.894  0.1947  3.0935  2.7252
   74SLPC   C33 6604   4.782   6.574   9.640 -0.1227 -0.1474  0.5017
   74SLPC   H3X 6605   4.842   6.520   9.717  1.2940  2.5463  1.3866
   74SLPC   H3Y 6606   4.812   6.680   9.641 -1.0932  0.1459  0.0683
   74SLPC   C34 6607   4.794   6.526   9.497 -0.0701  0.6580  0.1290
   74SLPC   H4X 6608   4.736   6.434   9.478 -1.8153  1.4887  1.2222
   74SLPC   H4Y 6609   4.902   6.507   9.478 -0.5304 -1.7719 -0.4206
   74SLPC   C35 6610   4.761   6.624   9.387  0.1362  0.6796  0.8016
   74SLPC   H5X 6611   4.810   6.723   9.388 -2.3228  1.9965 -0.5409
   74SLPC   H5Y 6612   4.654   6.647   9.403  0.1077  0.4879  0.8925
   74SLPC   C36 6613   4.778   6.559   9.247  0.2593 -0.0064 -0.2767
   74SLPC   H6X 6614   4.744   6.455   9.261 -0.2075  0.3726  1.7381
   74SLPC   H6Y 6615   4.886   6.548   9.220  0.0190 -1.4507 -0.7331
   74SLPC   C37 6616   4.696   6.625   9.140 -0.2437 -0.4393 -0.1772
   74SLPC   H7X 6617   4.713   6.735   9.136 -1.5964 -0.1335  1.1532
   74SLPC   H7Y 6618   4.586   6.611   9.152 -0.4516  0.4153 -1.0244
   74SLPC   C38 6619   4.736   6.560   9.009 -0.1643 -0.3112  0.1032
   74SLPC   H8X 6620   4.653   6.579   8.937 -0.8858 -3.0259  0.1175
   74SLPC   H8Y 6621   4.747   6.450   9.013  0.5875 -0.2223  0.6381
   74SLPC   C39 6622   4.864   6.625   8.959 -0.0250 -0.0531  0.2810
   74SLPC   H9X 6623   4.944   6.628   9.036  0.5467 -0.3324 -0.2886
   74SLPC   H9Y 6624   4.839   6.731   8.940  0.4978 -0.1671 -1.1360
   74SLPC  C310 6625   4.911   6.566   8.816  0.1459  0.3098 -0.5647
   74SLPC  H10X 6626   5.022   6.556   8.814  0.4579  2.9418 -1.5351
   74SLPC  H10Y 6627   4.897   6.649   8.743  1.0179  0.4440 -0.5967
   74SLPC  C311 6628   4.847   6.443   8.755 -0.0500 -0.6067  0.2890
   74SLPC  H11X 6629   4.738   6.461   8.744 -0.0622 -1.4304 -1.0673
   74SLPC  H11Y 6630   4.858   6.350   8.814  1.6857 -0.2344  0.6065
   74SLPC  C312 6631   4.903   6.420   8.616  0.5776  0.2011  0.6022
   74SLPC  H12X 6632   5.010   6.392   8.603  0.0710 -0.8455 -1.9325
   74SLPC  H12Y 6633   4.889   6.508   8.551 -0.2739  0.2098  0.7863
   74SLPC  C313 6634   4.822   6.311   8.545  0.5066 -0.0485  0.6312
   74SLPC  H13X 6635   4.876   6.294   8.450  1.0118 -0.4461  0.9841
   74SLPC  H13Y 6636   4.723   6.357   8.520 -0.2244 -0.4709  2.5795
   74SLPC  C314 6637   4.797   6.174   8.618 -0.1447 -0.2537  0.0214
   74SLPC  H14X 6638   4.789   6.196   8.727  1.7467  0.2806  0.0982
   74SLPC  H14Y 6639   4.874   6.096   8.599 -1.4462 -1.0551 -2.4003
   74SLPC  C315 6640   4.668   6.110   8.567  0.1134 -0.3535  0.3982
   74SLPC  H15X 6641   4.672   6.063   8.467 -1.4360  3.3642 -1.6186
   74SLPC  H15Y 6642   4.592   6.190   8.557  1.1880  0.7093  0.4313
   74SLPC  C316 6643   4.623   6.001   8.667  1.1417  0.1933 -0.4110
   74SLPC  H16X 6644   4.604   6.057   8.761  3.7635 -0.5218  0.6174
   74SLPC  H16Y 6645   4.706   5.930   8.689 -0.5456 -1.7482 -0.0207
   74SLPC  C317 6646   4.508   5.916   8.619  0.2854  0.0207  0.4115
   74SLPC  H17X 6647   4.542   5.829   8.558 -1.3941 -1.2782  1.2507
   74SLPC  H17Y 6648   4.456   5.983   8.548  0.8946 -2.0130 -2.1406
   74SLPC  C318 6649   4.408   5.859   8.713  0.5266 -0.3881 -0.3600
   74SLPC  H18X 6650   4.349   5.940   8.762 -0.2202 -1.1135 -0.0184
   74SLPC  H18Y 6651   4.471   5.810   8.790  0.8323 -0.0540 -0.3987
   74SLPC  H18Z 6652   4.329   5.792   8.670 -0.0265 -1.1462  1.7272
   75SLPC     N 6653   2.805   3.206   6.547 -0.1428 -0.3287 -0.0407
   75SLPC   C13 6654   2.836   3.332   6.476 -0.7421  0.0212  0.4443
   75SLPC  H13A 6655   2.792   3.333   6.377 -0.8477  0.7526  0.4947
   75SLPC  H13B 6656   2.802   3.422   6.524  0.3623 -0.0311  1.3767
   75SLPC  H13C 6657   2.942   3.340   6.456 -0.7956 -0.4877 -0.0715
   75SLPC   C14 6658   2.849   3.090   6.467  0.1635  0.4732  0.4988
   75SLPC  H14A 6659   2.957   3.089   6.464  0.2176  0.4114  1.9439
   75SLPC  H14B 6660   2.828   3.000   6.523 -0.6819  0.4148  0.1102
   75SLPC  H14C 6661   2.814   3.086   6.365 -1.1631  1.0112  0.9102
   75SLPC   C15 6662   2.661   3.199   6.570  0.3167 -0.0009 -0.4922
   75SLPC  H15A 6663   2.628   3.102   6.605  1.7181 -0.7201 -1.1145
   75SLPC  H15B 6664   2.617   3.278   6.630  0.9886  0.6409 -0.8438
   75SLPC  H15C 6665   2.601   3.206   6.481 -1.7755 -1.8912  0.6489
   75SLPC   C12 6666   2.876   3.214   6.682  0.5538  0.5063 -0.0529
   75SLPC  H12A 6667   2.857   3.120   6.730  1.6396  0.2088 -0.1783
   75SLPC  H12B 6668   2.827   3.291   6.740  0.5342  1.5154 -1.3598
   75SLPC   C11 6669   3.031   3.238   6.688  0.4140 -0.2543 -0.2325
   75SLPC  H11A 6670   3.069   3.209   6.788  3.0433  1.5857 -0.5910
   75SLPC  H11B 6671   3.032   3.349   6.677  0.6471 -0.2551 -0.2114
   75SLPC     P 6672   3.151   3.025   6.604 -0.3670  0.0631 -0.2702
   75SLPC   O13 6673   3.137   2.953   6.479  0.0216  0.5434 -0.2511
   75SLPC   O14 6674   3.279   3.029   6.677  0.2693  0.1507  0.5442
   75SLPC   O12 6675   3.109   3.177   6.586 -0.3153  0.5935 -0.1277
   75SLPC   O11 6676   3.043   2.978   6.705 -0.3781 -0.2497  0.5421
   75SLPC    C1 6677   2.984   2.847   6.701 -0.0552 -1.0400  0.6125
   75SLPC    HA 6678   2.912   2.837   6.617  0.3463 -0.1742  0.1547
   75SLPC    HB 6679   3.067   2.774   6.691  0.5117 -0.2609 -0.7069
   75SLPC    C2 6680   2.911   2.825   6.832 -0.0379  0.1048  0.4019
   75SLPC    HS 6681   2.831   2.902   6.834 -1.6557 -1.4591 -0.7277
   75SLPC   O21 6682   3.008   2.826   6.938 -0.2397  0.4167 -0.1686
   75SLPC   C21 6683   2.991   2.926   7.019  0.0145 -0.0784  0.3141
   75SLPC   O22 6684   2.894   3.005   7.017 -0.7091 -0.0670  0.7091
   75SLPC   C22 6685   3.098   2.927   7.126  0.1303  0.5637  0.6633
   75SLPC   H2R 6686   3.121   2.827   7.169 -0.5498 -0.3261 -0.9573
   75SLPC   H2S 6687   3.189   2.958   7.070  0.8529  1.5777  2.3316
   75SLPC    C3 6688   2.846   2.683   6.817 -0.5051 -0.2377 -0.7019
   75SLPC    HX 6689   2.925   2.607   6.801 -1.6151 -1.5843  0.0545
   75SLPC    HY 6690   2.786   2.684   6.723 -0.2988 -0.3655 -0.8351
   75SLPC   O31 6691   2.770   2.644   6.936 -0.0701  0.3307  0.3276
   75SLPC   C31 6692   2.653   2.707   6.945  0.7867  0.1199 -0.4068
   75SLPC   O32 6693   2.600   2.779   6.866 -0.2978 -0.4457  0.0234
   75SLPC   C32 6694   2.588   2.653   7.073 -0.3702  0.3131 -0.5679
   75SLPC   H2X 6695   2.563   2.547   7.053 -4.2445  1.0243 -0.2565
   75SLPC   H2Y 6696   2.489   2.702   7.083  0.6893  2.3595  0.4325
   75SLPC   C23 6697   3.065   3.026   7.235  0.1919 -0.3715  0.6220
   75SLPC   H3R 6698   3.024   3.118   7.190  2.2807 -0.3823 -1.4606
   75SLPC   H3S 6699   3.159   3.059   7.285  0.1105  2.5235 -0.9450
   75SLPC   C24 6700   2.955   2.966   7.337  0.2999 -0.3854 -0.9372
   75SLPC   H4R 6701   2.987   2.873   7.389 -3.3316 -0.8896  0.7084
   75SLPC   H4S 6702   2.866   2.953   7.271  0.3711  2.8389 -1.8262
   75SLPC   C25 6703   2.928   3.074   7.454 -0.5139  0.3182 -0.2354
   75SLPC   H5R 6704   2.827   3.053   7.495  0.1282 -0.1969  1.1396
   75SLPC   H5S 6705   2.914   3.169   7.399 -2.1562  0.7905  0.9118
   75SLPC   C26 6706   3.026   3.090   7.559 -0.0130 -0.5392 -0.2370
   75SLPC   H6R 6707   2.992   3.175   7.622  0.0475 -0.3907 -0.4035
   75SLPC   H6S 6708   3.123   3.131   7.523  0.1703 -0.4116  0.3957
   75SLPC   C27 6709   3.040   2.982   7.669 -0.0961 -0.0872  0.3693
   75SLPC   H7R 6710   3.121   3.019   7.736 -1.5033 -0.9871  2.6704
   75SLPC   H7S 6711   3.075   2.888   7.622 -1.7285 -0.7136  0.3658
   75SLPC   C28 6712   2.915   2.962   7.759  0.0891  0.0717 -0.1766
   75SLPC   H8R 6713   2.823   2.942   7.701 -0.3736 -0.3825  0.6934
   75SLPC   H8S 6714   2.884   3.056   7.810 -2.1984 -0.1611 -1.0572
   75SLPC   C29 6715   2.930   2.858   7.864 -0.6188  0.5743 -0.5198
   75SLPC   H9R 6716   2.921   2.756   7.824  0.1167  0.7641 -1.2055
   75SLPC  C210 6717   2.971   2.872   7.992  0.5478 -0.3194 -0.7048
   75SLPC  H10R 6718   2.981   2.782   8.055  0.0935 -2.0928 -3.0380
   75SLPC  C211 6719   3.015   2.999   8.060  0.1290  0.9936 -0.1722
   75SLPC  H11R 6720   2.962   3.012   8.157  1.7740 -0.0162  0.9239
   75SLPC  H11S 6721   2.999   3.089   7.997  1.2757  2.8903  2.0742
   75SLPC  C212 6722   3.169   3.021   8.088 -0.1678  0.3885  0.5015
   75SLPC  H12R 6723   3.230   3.024   7.996 -2.2599 -0.2787 -0.9767
   75SLPC  C213 6724   3.232   3.013   8.207 -0.3527 -0.5446  1.2189
   75SLPC  H13R 6725   3.341   3.015   8.202 -0.3772  0.0385  0.8289
   75SLPC  C214 6726   3.169   2.969   8.331 -0.1596 -0.5751 -0.3216
   75SLPC  H14R 6727   3.092   2.889   8.321 -0.8682 -0.0722  0.8379
   75SLPC  H14S 6728   3.129   3.057   8.387 -0.8605  0.0361 -1.7493
   75SLPC  C215 6729   3.269   2.920   8.439 -0.0361  0.2160  0.3243
   75SLPC  H15R 6730   3.212   2.907   8.533 -1.0264 -0.4637 -0.3448
   75SLPC  H15S 6731   3.355   2.988   8.457 -1.9463  2.7017  0.6006
   75SLPC  C216 6732   3.326   2.777   8.412 -0.1938 -0.5055  0.6038
   75SLPC  H16R 6733   3.382   2.779   8.317 -0.4378  0.2931  0.4674
   75SLPC  H16S 6734   3.245   2.702   8.401  0.2948 -1.0524  0.7027
   75SLPC  C217 6735   3.422   2.729   8.525 -0.4390  0.2190 -0.3337
   75SLPC  H17R 6736   3.430   2.619   8.524  1.0397  0.3059 -1.1363
   75SLPC  H17S 6737   3.367   2.752   8.618  0.1715  2.0514 -0.3782
   75SLPC  C218 6738   3.551   2.797   8.528 -0.2056 -0.1842  0.2145
   75SLPC  H18R 6739   3.602   2.765   8.435  1.9217 -2.2889  1.9697
   75SLPC  H18S 6740   3.614   2.757   8.610  1.0111  2.1671  0.4787
   75SLPC  H18T 6741   3.553   2.906   8.546  1.6979 -0.0794 -0.4774
   75SLPC   C33 6742   2.671   2.684   7.191 -0.7230  0.2776 -0.6764
   75SLPC   H3X 6743   2.772   2.640   7.178 -0.7883 -0.2867  0.5432
   75SLPC   H3Y 6744   2.691   2.793   7.195  1.0162 -0.0075 -0.8941
   75SLPC   C34 6745   2.627   2.642   7.333 -0.3046 -0.0368 -0.6967
   75SLPC   H4X 6746   2.648   2.533   7.337 -0.9147 -0.1782 -1.0735
   75SLPC   H4Y 6747   2.517   2.660   7.341 -0.3604 -0.9055  0.8797
   75SLPC   C35 6748   2.705   2.721   7.442  1.1760 -0.3238  0.8233
   75SLPC   H5X 6749   2.665   2.824   7.447  0.4889 -0.5528  0.2345
   75SLPC   H5Y 6750   2.808   2.736   7.403  0.3636  1.1640 -0.9240
   75SLPC   C36 6751   2.703   2.655   7.579  0.3322  0.0592  0.2887
   75SLPC   H6X 6752   2.809   2.666   7.609  0.4826  1.7222 -0.7415
   75SLPC   H6Y 6753   2.694   2.544   7.575  1.6971 -0.1363  1.6542
   75SLPC   C37 6754   2.596   2.705   7.677 -0.7481 -0.1325 -0.0442
   75SLPC   H7X 6755   2.494   2.685   7.638 -0.5971 -0.0604 -0.4882
   75SLPC   H7Y 6756   2.608   2.815   7.687 -1.6120  0.0168 -0.5405
   75SLPC   C38 6757   2.587   2.648   7.817 -0.8273 -0.6474  0.1203
   75SLPC   H8X 6758   2.681   2.666   7.873 -0.2887 -1.4744 -0.5052
   75SLPC   H8Y 6759   2.591   2.540   7.791  3.0187 -0.4194 -0.9497
   75SLPC   C39 6760   2.463   2.700   7.887  0.4488 -0.3764  0.1444
   75SLPC   H9X 6761   2.383   2.689   7.811 -0.3792 -0.4373  1.0138
   75SLPC   H9Y 6762   2.475   2.808   7.909  3.1290 -0.9422  2.0075
   75SLPC  C310 6763   2.443   2.625   8.017 -0.0768 -0.2530  0.1576
   75SLPC  H10X 6764   2.542   2.632   8.069 -1.3278 -0.3575  2.7243
   75SLPC  H10Y 6765   2.422   2.521   7.986 -1.3863  0.7262 -2.4902
   75SLPC  C311 6766   2.333   2.687   8.097  0.4594 -0.1595 -0.1106
   75SLPC  H11X 6767   2.243   2.691   8.032  1.1265  0.1650 -1.0373
   75SLPC  H11Y 6768   2.376   2.787   8.120 -0.4773  0.5613 -1.3978
   75SLPC  C312 6769   2.299   2.601   8.226 -0.2676 -0.3215  0.7110
   75SLPC  H12X 6770   2.247   2.512   8.184 -1.4064  0.5201  0.3066
   75SLPC  H12Y 6771   2.224   2.650   8.291  0.4427  0.2634  1.1128
   75SLPC  C313 6772   2.418   2.569   8.318 -0.2199  0.3693 -0.1705
   75SLPC  H13X 6773   2.473   2.662   8.344  0.8775  0.0315 -1.1872
   75SLPC  H13Y 6774   2.490   2.509   8.259  2.2524  3.6717 -0.7978
   75SLPC  C314 6775   2.368   2.472   8.432  1.0883 -0.1253 -0.5280
   75SLPC  H14X 6776   2.297   2.400   8.386 -2.3350  1.2877  2.1335
   75SLPC  H14Y 6777   2.294   2.523   8.498  0.3635  0.7593 -1.9573
   75SLPC  C315 6778   2.489   2.407   8.509  0.1406 -0.1068  0.0902
   75SLPC  H15X 6779   2.558   2.368   8.431  0.5711  0.9154 -0.0621
   75SLPC  H15Y 6780   2.451   2.319   8.565  2.6892 -2.6209 -1.7987
   75SLPC  C316 6781   2.565   2.507   8.589  0.5680 -0.7246 -0.1050
   75SLPC  H16X 6782   2.501   2.547   8.671  1.4476  0.6229 -0.0327
   75SLPC  H16Y 6783   2.594   2.596   8.530  2.6066  0.9328  3.0755
   75SLPC  C317 6784   2.703   2.464   8.640  0.2806  0.4577 -0.1581
   75SLPC  H17X 6785   2.765   2.548   8.676  1.6041 -0.5294 -0.0583
   75SLPC  H17Y 6786   2.743   2.419   8.546 -0.6828  1.8146 -1.2500
   75SLPC  C318 6787   2.696   2.366   8.755 -0.3870  0.3333 -0.4141
   75SLPC  H18X 6788   2.626   2.282   8.736 -0.0523 -0.0024 -0.1896
   75SLPC  H18Y 6789   2.663   2.428   8.841 -0.1097  0.1483 -0.1702
   75SLPC  H18Z 6790   2.796   2.330   8.787  0.1827  2.5763  0.5450
   76SLPC     N 6791   5.309   1.641   6.023 -0.4019 -0.5286 -0.4743
   76SLPC   C13 6792   5.423   1.540   6.019 -0.1271 -0.3706 -0.6041
   76SLPC  H13A 6793   5.499   1.556   5.943 -0.1459  1.4427 -0.2878
   76SLPC  H13B 6794   5.471   1.533   6.115 -1.6332 -2.0106  0.0692
   76SLPC  H13C 6795   5.377   1.445   5.999  0.1597 -0.0491 -3.1529
   76SLPC   C14 6796   5.241   1.645   5.895 -0.1198  0.2854  0.3276
   76SLPC  H14A 6797   5.309   1.670   5.815  0.0543 -3.0833 -0.7252
   76SLPC  H14B 6798   5.192   1.554   5.863 -0.3702  0.1171  1.1626
   76SLPC  H14C 6799   5.162   1.719   5.894 -0.3430  0.1466 -3.1351
   76SLPC   C15 6800   5.375   1.772   6.057 -0.0808 -0.0315 -0.4686
   76SLPC  H15A 6801   5.307   1.856   6.045  0.0367  0.2792  0.8682
   76SLPC  H15B 6802   5.413   1.771   6.158 -0.1143 -0.6696 -0.4597
   76SLPC  H15C 6803   5.459   1.778   5.990  0.5963 -0.6440  0.3068
   76SLPC   C12 6804   5.199   1.608   6.122  0.4261  0.8829 -0.4044
   76SLPC  H12A 6805   5.159   1.511   6.095 -2.0186  0.7603  2.9904
   76SLPC  H12B 6806   5.124   1.683   6.102 -0.3107  0.0574 -0.8152
   76SLPC   C11 6807   5.212   1.597   6.278  0.8538  0.1707 -0.5531
   76SLPC  H11A 6808   5.118   1.592   6.337  1.6880  1.2079  0.9139
   76SLPC  H11B 6809   5.247   1.693   6.320  5.7267 -1.7261  0.3952
   76SLPC     P 6810   5.256   1.343   6.278  0.0258  0.6802 -0.1549
   76SLPC   O13 6811   5.108   1.335   6.269  0.3928 -0.4158 -0.0576
   76SLPC   O14 6812   5.327   1.299   6.152 -0.0410 -0.4195  0.2591
   76SLPC   O12 6813   5.298   1.489   6.317 -0.2402 -1.1019 -0.2639
   76SLPC   O11 6814   5.302   1.256   6.400  0.3587  0.9088 -0.1026
   76SLPC    C1 6815   5.252   1.119   6.409 -0.3803 -0.7236  0.3578
   76SLPC    HA 6816   5.256   1.067   6.311 -0.0709 -0.7414  0.3818
   76SLPC    HB 6817   5.322   1.059   6.470  1.0985  0.5213 -0.0698
   76SLPC    C2 6818   5.101   1.108   6.465 -0.7891 -0.1828 -0.2243
   76SLPC    HS 6819   5.033   1.169   6.401 -0.3758  1.1432  0.5547
   76SLPC   O21 6820   5.095   1.157   6.603  0.5075  0.2022  0.5209
   76SLPC   C21 6821   4.975   1.212   6.635 -0.4321 -0.2090 -0.7721
   76SLPC   O22 6822   4.873   1.211   6.573 -0.0137 -0.7647  0.3175
   76SLPC   C22 6823   4.979   1.262   6.773 -0.0909  0.6576  0.4812
   76SLPC   H2R 6824   4.909   1.202   6.835  2.0861 -1.4585  1.0507
   76SLPC   H2S 6825   5.074   1.250   6.829  1.1198 -1.3758 -1.8446
   76SLPC    C3 6826   5.051   0.962   6.456  0.5481 -0.3253 -0.1747
   76SLPC    HX 6827   5.137   0.895   6.477  1.2941  0.4045 -0.8065
   76SLPC    HY 6828   5.016   0.945   6.352  1.2564 -1.6400 -0.2167
   76SLPC   O31 6829   4.941   0.936   6.550  0.5232 -0.1335 -0.5122
   76SLPC   C31 6830   4.898   0.808   6.539 -0.2367  0.3267 -0.1220
   76SLPC   O32 6831   4.959   0.730   6.464  0.2642 -0.9173  0.2616
   76SLPC   C32 6832   4.797   0.778   6.651 -0.4286  0.2181  0.9733
   76SLPC   H2X 6833   4.831   0.679   6.689  0.4625 -0.5983 -1.7533
   76SLPC   H2Y 6834   4.692   0.764   6.616  0.0883 -1.8145  0.0661
   76SLPC   C23 6835   4.939   1.410   6.789  0.0008 -1.1522 -0.4250
   76SLPC   H3R 6836   4.835   1.419   6.752  0.7864 -0.0212 -2.4749
   76SLPC   H3S 6837   5.004   1.476   6.728 -1.7068  0.2161 -0.8367
   76SLPC   C24 6838   4.953   1.465   6.927 -0.1982  0.2833  0.4770
   76SLPC   H4R 6839   4.903   1.564   6.934  2.1569  1.6955 -1.1007
   76SLPC   H4S 6840   5.062   1.485   6.933 -0.3118  0.7351  1.1519
   76SLPC   C25 6841   4.893   1.376   7.036 -0.4202  0.1258 -0.3089
   76SLPC   H5R 6842   4.938   1.274   7.042 -0.3060  0.2199  0.5331
   76SLPC   H5S 6843   4.790   1.375   6.995  0.4916  1.3001 -2.7928
   76SLPC   C26 6844   4.886   1.456   7.175  0.0845  1.3334 -0.0467
   76SLPC   H6R 6845   4.835   1.553   7.160 -1.4463  0.8013  1.4516
   76SLPC   H6S 6846   4.988   1.478   7.213  0.5970 -1.2787  0.2922
   76SLPC   C27 6847   4.806   1.375   7.278  0.4584 -0.4329 -0.1754
   76SLPC   H7R 6848   4.838   1.273   7.310 -0.0535 -0.1320  1.3236
   76SLPC   H7S 6849   4.714   1.342   7.225  0.4400 -1.0582  0.2332
   76SLPC   C28 6850   4.768   1.456   7.406 -0.1997 -0.1423 -0.4040
   76SLPC   H8R 6851   4.729   1.554   7.369  0.2349 -0.6901 -2.4562
   76SLPC   H8S 6852   4.680   1.406   7.451 -0.7553  0.1595 -1.1361
   76SLPC   C29 6853   4.884   1.453   7.503 -0.3314 -0.2565 -0.1976
   76SLPC   H9R 6854   4.983   1.435   7.459 -0.2727 -1.2101  0.2812
   76SLPC  C210 6855   4.877   1.444   7.637  0.1947  0.4035  1.0643
   76SLPC  H10R 6856   4.971   1.449   7.695 -0.0231  1.3202  1.3639
   76SLPC  C211 6857   4.759   1.435   7.723 -0.1920 -0.5000  0.4485
   76SLPC  H11R 6858   4.661   1.417   7.673  0.0489 -1.0326  0.1646
   76SLPC  H11S 6859   4.751   1.533   7.774  0.5241 -0.9844  1.5484
   76SLPC  C212 6860   4.770   1.338   7.836  0.2892  0.7104  0.3735
   76SLPC  H12R 6861   4.854   1.269   7.821  0.0943  1.0071 -2.5557
   76SLPC  C213 6862   4.711   1.355   7.958  0.5600  0.6602  0.1939
   76SLPC  H13R 6863   4.756   1.297   8.040  1.7278 -2.6770 -2.5885
   76SLPC  C214 6864   4.602   1.450   7.993  1.2501  0.5129 -0.3938
   76SLPC  H14R 6865   4.523   1.388   8.042  1.2846 -1.1736 -2.3528
   76SLPC  H14S 6866   4.560   1.507   7.908 -1.3162 -0.2681  0.2666
   76SLPC  C215 6867   4.648   1.562   8.085  0.1055  0.9598  0.3836
   76SLPC  H15R 6868   4.572   1.640   8.110  1.5951  2.3662  0.6609
   76SLPC  H15S 6869   4.729   1.606   8.023 -0.0058 -1.1845 -1.4205
   76SLPC  C216 6870   4.707   1.515   8.213  0.0785  0.1841 -0.1029
   76SLPC  H16R 6871   4.797   1.450   8.205  0.8388  1.0573  1.0769
   76SLPC  H16S 6872   4.627   1.459   8.265 -0.1287  0.1165 -0.4937
   76SLPC  C217 6873   4.741   1.634   8.317  0.1860  0.4028 -0.0082
   76SLPC  H17R 6874   4.665   1.617   8.396  0.2429 -2.4472 -0.4429
   76SLPC  H17S 6875   4.718   1.732   8.271 -2.0810  1.6218  3.3616
   76SLPC  C218 6876   4.881   1.633   8.384  0.1365  0.4002 -0.1991
   76SLPC  H18R 6877   4.894   1.731   8.435 -0.0630  0.2637  0.1201
   76SLPC  H18S 6878   4.967   1.634   8.314 -0.9099  1.4791 -1.5079
   76SLPC  H18T 6879   4.896   1.539   8.442 -1.1609 -0.2017 -0.8171
   76SLPC   C33 6880   4.803   0.892   6.759 -0.0535 -0.2805  0.5467
   76SLPC   H3X 6881   4.752   0.982   6.718  0.5637  0.0467  0.4876
   76SLPC   H3Y 6882   4.905   0.929   6.779 -0.6587  1.1987  1.0442
   76SLPC   C34 6883   4.757   0.853   6.902  0.8414  0.6933  0.2056
   76SLPC   H4X 6884   4.835   0.787   6.946  0.2764 -0.3805 -0.3776
   76SLPC   H4Y 6885   4.662   0.797   6.889  0.8971  0.3836  1.0619
   76SLPC   C35 6886   4.732   0.973   6.983 -0.2582 -0.7436 -0.0764
   76SLPC   H5X 6887   4.671   1.049   6.930  3.5696  3.0101  0.3535
   76SLPC   H5Y 6888   4.830   1.012   7.018 -0.2902 -0.8899  0.1801
   76SLPC   C36 6889   4.642   0.952   7.106 -0.0537 -0.8175 -0.2891
   76SLPC   H6X 6890   4.686   0.876   7.175 -1.1443 -1.1634  0.0430
   76SLPC   H6Y 6891   4.553   0.903   7.062 -0.2969 -1.0142  0.4044
   76SLPC   C37 6892   4.610   1.085   7.184  0.2817 -0.6093 -0.7065
   76SLPC   H7X 6893   4.568   1.161   7.114 -0.0577  0.8664  1.0295
   76SLPC   H7Y 6894   4.707   1.122   7.222 -0.4812 -0.9494  1.7543
   76SLPC   C38 6895   4.520   1.061   7.301 -0.5746 -0.6312  0.0759
   76SLPC   H8X 6896   4.568   0.987   7.370 -1.0486  1.2329  2.5504
   76SLPC   H8Y 6897   4.428   1.019   7.255 -0.4544 -0.4038 -0.3670
   76SLPC   C39 6898   4.481   1.191   7.381 -0.2139  0.2612 -0.3144
   76SLPC   H9X 6899   4.437   1.266   7.312  1.6531  0.1031 -1.7538
   76SLPC   H9Y 6900   4.567   1.234   7.436  0.2933 -1.1875  0.0738
   76SLPC  C310 6901   4.387   1.149   7.494 -0.0978 -0.7225 -0.1119
   76SLPC  H10X 6902   4.438   1.064   7.544  2.7208  1.8450  1.7792
   76SLPC  H10Y 6903   4.293   1.123   7.441  0.3615 -2.0477 -0.3006
   76SLPC  C311 6904   4.376   1.256   7.598 -0.0621  0.3286  0.0902
   76SLPC  H11X 6905   4.315   1.342   7.560 -1.1032 -0.4783 -0.1240
   76SLPC  H11Y 6906   4.474   1.305   7.612 -0.6361  1.7275 -0.4994
   76SLPC  C312 6907   4.323   1.218   7.727 -0.1284  0.0480  0.6996
   76SLPC  H12X 6908   4.395   1.157   7.786  1.5178  0.3265 -0.9383
   76SLPC  H12Y 6909   4.230   1.157   7.726  0.4919 -0.9228  0.7719
   76SLPC  C313 6910   4.293   1.340   7.810  0.4554 -0.6990 -0.0873
   76SLPC  H13X 6911   4.218   1.400   7.755  1.3997 -0.1243 -0.7660
   76SLPC  H13Y 6912   4.384   1.400   7.826  0.0618  0.3831 -1.7097
   76SLPC  C314 6913   4.248   1.303   7.956 -0.0136 -0.1713  0.6165
   76SLPC  H14X 6914   4.308   1.222   8.002  0.1309  1.8177  4.2878
   76SLPC  H14Y 6915   4.145   1.266   7.936 -0.3487  1.9240 -2.3100
   76SLPC  C315 6916   4.234   1.427   8.051  0.0756 -0.7673 -0.4361
   76SLPC  H15X 6917   4.183   1.510   7.998 -2.0854 -0.2814  2.1669
   76SLPC  H15Y 6918   4.334   1.444   8.097  0.3259 -1.5966 -0.6518
   76SLPC  C316 6919   4.138   1.398   8.169 -0.5254  0.2048  0.8741
   76SLPC  H16X 6920   4.157   1.480   8.242  2.4274  0.1292  0.3288
   76SLPC  H16Y 6921   4.183   1.308   8.217  0.7851  0.7571  0.7207
   76SLPC  C317 6922   3.992   1.397   8.126 -0.3965 -0.3716 -0.1017
   76SLPC  H17X 6923   3.981   1.312   8.054 -0.1219 -1.0720  0.6665
   76SLPC  H17Y 6924   3.972   1.493   8.074 -0.1330 -0.7665 -0.9569
   76SLPC  C318 6925   3.902   1.387   8.243 -0.4270 -0.0021  0.1136
   76SLPC  H18X 6926   3.909   1.283   8.283  0.4810 -0.0202 -0.0805
   76SLPC  H18Y 6927   3.795   1.399   8.217 -0.3883 -0.3842 -0.2338
   76SLPC  H18Z 6928   3.910   1.453   8.332  0.2756  0.1203 -0.0340
   77SLPC     N 6929   0.838   0.425   6.227 -0.3310 -0.2971 -0.4939
   77SLPC   C13 6930   0.736   0.351   6.134 -0.0255  0.4166  0.9344
   77SLPC  H13A 6931   0.701   0.259   6.178 -0.7127  0.4977  0.5729
   77SLPC  H13B 6932   0.654   0.420   6.123 -0.3821 -0.2690 -1.4545
   77SLPC  H13C 6933   0.785   0.340   6.038 -1.0344  0.7425  0.3642
   77SLPC   C14 6934   0.879   0.560   6.170  0.2400 -0.2858 -0.3322
   77SLPC  H14A 6935   0.934   0.618   6.243 -0.6969  1.7759 -1.2074
   77SLPC  H14B 6936   0.943   0.554   6.083  0.5067  2.4207 -0.3967
   77SLPC  H14C 6937   0.794   0.618   6.140 -1.1082 -1.8419  0.3147
   77SLPC   C15 6938   0.967   0.345   6.244  1.0402 -0.1284  0.1376
   77SLPC  H15A 6939   1.019   0.366   6.337  1.7103  0.3577 -0.3358
   77SLPC  H15B 6940   0.958   0.238   6.231 -0.5560 -0.1138  0.8981
   77SLPC  H15C 6941   1.037   0.384   6.172  0.7367  1.3352  0.6123
   77SLPC   C12 6942   0.772   0.447   6.364  0.6653 -0.2133  0.5018
   77SLPC  H12A 6943   0.726   0.355   6.396  0.3047 -0.8503 -1.6649
   77SLPC  H12B 6944   0.685   0.508   6.342  0.6623 -0.1516  0.6853
   77SLPC   C11 6945   0.854   0.506   6.482  0.5127  0.7239  0.4042
   77SLPC  H11A 6946   0.931   0.430   6.509  1.6581  1.6409 -0.1460
   77SLPC  H11B 6947   0.786   0.518   6.569 -0.3610  1.9794 -0.4185
   77SLPC     P 6948   1.016   0.710   6.529  0.0610  0.3877  0.1900
   77SLPC   O13 6949   1.136   0.623   6.541  0.1621 -0.6227  0.2171
   77SLPC   O14 6950   1.037   0.849   6.484  0.5908  0.1407 -0.4160
   77SLPC   O12 6951   0.907   0.630   6.441 -0.1376  0.0156  0.3381
   77SLPC   O11 6952   0.942   0.714   6.669  0.1880 -0.1161  1.0768
   77SLPC    C1 6953   0.841   0.812   6.688 -0.0614  0.0731 -0.1664
   77SLPC    HA 6954   0.869   0.907   6.639 -0.8214  0.2778 -0.2219
   77SLPC    HB 6955   0.747   0.772   6.643 -0.1927  0.7418 -0.4934
   77SLPC    C2 6956   0.806   0.826   6.843 -0.5516  0.2772  0.2440
   77SLPC    HS 6957   0.748   0.919   6.862  0.6838  0.8997  1.1042
   77SLPC   O21 6958   0.929   0.826   6.915 -0.3703  0.3391 -0.0869
   77SLPC   C21 6959   1.005   0.927   6.891  0.1959 -0.5740  0.3668
   77SLPC   O22 6960   0.978   1.030   6.828 -0.3619  0.4446 -0.2175
   77SLPC   C22 6961   1.138   0.913   6.960  0.3424 -0.0439  0.5469
   77SLPC   H2R 6962   1.167   0.806   6.958 -0.8175 -0.3983 -2.2895
   77SLPC   H2S 6963   1.217   0.967   6.904  0.3306 -0.0306  0.5436
   77SLPC    C3 6964   0.733   0.708   6.893 -0.0794  0.6903  0.0133
   77SLPC    HX 6965   0.778   0.614   6.853  0.3474  0.1405  1.7084
   77SLPC    HY 6966   0.642   0.704   6.829  0.4399 -0.5707 -0.6899
   77SLPC   O31 6967   0.695   0.718   7.028  1.1632  0.8824  0.1758
   77SLPC   C31 6968   0.702   0.616   7.108 -0.3193 -0.1166 -0.4309
   77SLPC   O32 6969   0.714   0.497   7.073 -0.7970  0.0772 -0.1024
   77SLPC   C32 6970   0.679   0.666   7.246 -0.0690  0.3989 -0.4641
   77SLPC   H2X 6971   0.606   0.750   7.245  2.5119  2.8518  1.3759
   77SLPC   H2Y 6972   0.765   0.715   7.295 -0.1408 -0.4063  0.5049
   77SLPC   C23 6973   1.142   0.958   7.110 -0.0978  0.5480 -0.1596
   77SLPC   H3R 6974   1.091   1.056   7.123  1.4644  1.4145 -0.3250
   77SLPC   H3S 6975   1.248   0.968   7.141 -0.0601  0.9847 -0.4115
   77SLPC   C24 6976   1.087   0.857   7.201  0.4036 -0.9855 -0.0196
   77SLPC   H4R 6977   0.994   0.822   7.152  1.2810 -0.4997 -2.1805
   77SLPC   H4S 6978   1.056   0.918   7.289 -2.7740 -0.6787 -1.2249
   77SLPC   C25 6979   1.183   0.743   7.247 -0.4371 -0.6729  0.7259
   77SLPC   H5R 6980   1.262   0.788   7.312  0.4269 -0.9717 -0.0844
   77SLPC   H5S 6981   1.239   0.712   7.155  0.7023 -0.5344  1.3542
   77SLPC   C26 6982   1.116   0.629   7.319  0.5510  0.3839  0.3769
   77SLPC   H6R 6983   1.037   0.596   7.247  0.6966 -0.3837  0.5598
   77SLPC   H6S 6984   1.066   0.658   7.414 -1.4956 -1.4876 -0.0203
   77SLPC   C27 6985   1.208   0.511   7.341  0.4939 -0.1587 -0.1140
   77SLPC   H7R 6986   1.308   0.545   7.377 -0.2019  2.6031 -0.6095
   77SLPC   H7S 6987   1.226   0.463   7.242  2.7315  1.6793 -0.6940
   77SLPC   C28 6988   1.161   0.383   7.428  0.4843 -0.1252  0.1411
   77SLPC   H8R 6989   1.246   0.311   7.429  0.0752 -0.6195  1.1642
   77SLPC   H8S 6990   1.082   0.328   7.374  0.0543  0.2450  0.3875
   77SLPC   C29 6991   1.097   0.422   7.561 -0.7272 -0.3526 -0.0302
   77SLPC   H9R 6992   1.034   0.512   7.555 -1.2633 -0.6834  0.4905
   77SLPC  C210 6993   1.123   0.368   7.677 -0.3225 -0.0689  0.3485
   77SLPC  H10R 6994   1.083   0.417   7.767  0.7461  3.1015 -0.7338
   77SLPC  C211 6995   1.233   0.266   7.705 -0.2148  0.5045  0.6222
   77SLPC  H11R 6996   1.278   0.230   7.610 -1.0454 -0.6516  0.6546
   77SLPC  H11S 6997   1.199   0.170   7.749  2.3607  0.0579  1.8373
   77SLPC  C212 6998   1.345   0.329   7.788 -0.7271  0.7663 -0.1934
   77SLPC  H12R 6999   1.431   0.379   7.740  0.6355 -1.2620  0.0372
   77SLPC  C213 7000   1.364   0.321   7.920 -0.1626 -0.4955 -0.4168
   77SLPC  H13R 7001   1.453   0.362   7.968 -0.1898  0.0428 -0.8206
   77SLPC  C214 7002   1.270   0.258   8.013  0.1437  0.3238  0.1804
   77SLPC  H14R 7003   1.304   0.153   8.028 -0.1310  0.4060  1.5244
   77SLPC  H14S 7004   1.166   0.252   7.975  0.2634 -1.3874  0.0228
   77SLPC  C215 7005   1.288   0.315   8.156  0.4190 -0.4270 -0.0259
   77SLPC  H15R 7006   1.296   0.426   8.147  0.3590 -0.5737 -2.6367
   77SLPC  H15S 7007   1.386   0.287   8.200  0.5973  0.5663  0.2464
   77SLPC  C216 7008   1.181   0.261   8.260  0.4399  0.3170 -0.1854
   77SLPC  H16R 7009   1.217   0.265   8.365 -1.5546  2.5087  0.5167
   77SLPC  H16S 7010   1.167   0.153   8.243 -2.9323  0.3803  1.4011
   77SLPC  C217 7011   1.050   0.336   8.252 -0.4549 -0.7268  0.6364
   77SLPC  H17R 7012   1.006   0.349   8.151 -0.2540  1.7813  0.8242
   77SLPC  H17S 7013   1.064   0.438   8.293 -0.3129  0.5608 -2.4213
   77SLPC  C218 7014   0.945   0.266   8.339  0.3553  0.2040 -0.1703
   77SLPC  H18R 7015   0.979   0.271   8.444 -1.0099  0.0748  0.3026
   77SLPC  H18S 7016   0.936   0.161   8.304  3.3614 -0.7340  1.5485
   77SLPC  H18T 7017   0.846   0.316   8.329  0.8397  0.8958 -1.8584
   77SLPC   C33 7018   0.626   0.543   7.340 -0.2018  0.2773  0.0411
   77SLPC   H3X 7019   0.551   0.486   7.280  0.3474  0.4989 -0.8729
   77SLPC   H3Y 7020   0.574   0.588   7.426  1.6523  0.5348  1.0867
   77SLPC   C34 7021   0.749   0.464   7.388  0.3016  0.0819  0.6617
   77SLPC   H4X 7022   0.826   0.528   7.435 -0.2942  1.4865 -0.2194
   77SLPC   H4Y 7023   0.792   0.423   7.295 -2.4014 -3.8245  0.8975
   77SLPC   C35 7024   0.712   0.353   7.482  0.2394 -0.6485 -0.5620
   77SLPC   H5X 7025   0.610   0.318   7.454  0.2698 -2.3096  1.1951
   77SLPC   H5Y 7026   0.697   0.400   7.581 -0.1575 -1.2686 -0.3244
   77SLPC   C36 7027   0.802   0.228   7.482 -0.1008 -0.4273  0.1773
   77SLPC   H6X 7028   0.910   0.252   7.469  0.1912 -1.3653  0.7633
   77SLPC   H6Y 7029   0.784   0.173   7.387  1.4596 -0.6634 -0.0100
   77SLPC   C37 7030   0.769   0.151   7.606  0.5363 -0.4219 -0.7508
   77SLPC   H7X 7031   0.664   0.117   7.597  0.2528  0.6854 -1.9147
   77SLPC   H7Y 7032   0.768   0.210   7.700 -0.5267 -1.8274  0.1449
   77SLPC   C38 7033   0.865   0.031   7.623 -0.2874  0.1288 -0.1145
   77SLPC   H8X 7034   0.970   0.067   7.624  0.3703 -1.6831  0.3842
   77SLPC   H8Y 7035   0.857  -0.044   7.541 -0.4723 -1.3408  1.1799
   77SLPC   C39 7036   0.828  -0.034   7.754  0.5095  0.0406 -0.0180
   77SLPC   H9X 7037   0.864  -0.138   7.761  1.7680  0.2273 -2.6246
   77SLPC   H9Y 7038   0.717  -0.028   7.764  0.1106 -3.1470 -1.5106
   77SLPC  C310 7039   0.890   0.024   7.885  0.3530  0.2723 -1.4411
   77SLPC  H10X 7040   0.846   0.126   7.884 -3.7357 -1.3240 -0.6064
   77SLPC  H10Y 7041   1.000   0.029   7.867  0.5327  0.5133 -0.3915
   77SLPC  C311 7042   0.842  -0.045   8.014  0.6892 -0.0943  0.7157
   77SLPC  H11X 7043   0.877   0.018   8.099 -1.9356  2.9361 -0.2429
   77SLPC  H11Y 7044   0.887  -0.146   8.017 -2.3936 -1.5701  0.9268
   77SLPC  C312 7045   0.694  -0.070   8.019 -0.6889 -0.5699  0.2906
   77SLPC  H12X 7046   0.653  -0.118   7.928 -0.3157  0.4038 -0.4117
   77SLPC  H12Y 7047   0.649   0.031   8.029 -1.1507 -0.7647  0.1965
   77SLPC  C313 7048   0.649  -0.146   8.146  0.2356  0.1791  0.1329
   77SLPC  H13X 7049   0.706  -0.241   8.139 -0.7654 -0.4285 -0.0001
   77SLPC  H13Y 7050   0.544  -0.169   8.117  0.5382 -1.4101  0.2151
   77SLPC  C314 7051   0.656  -0.066   8.274 -1.0838 -0.0272 -0.1016
   77SLPC  H14X 7052   0.625   0.036   8.243  0.7632 -0.2062 -2.9231
   77SLPC  H14Y 7053   0.754  -0.069   8.327 -0.1278 -2.1303 -1.8285
   77SLPC  C315 7054   0.567  -0.124   8.382 -0.3597  0.2116  0.4173
   77SLPC  H15X 7055   0.593  -0.231   8.396 -1.0609  0.1837  1.6580
   77SLPC  H15Y 7056   0.458  -0.127   8.359 -0.0458 -1.2294 -1.1114
   77SLPC  C316 7057   0.578  -0.065   8.525 -0.4063 -0.0579 -0.0911
   77SLPC  H16X 7058   0.676  -0.019   8.550 -0.0369  0.1071 -1.7410
   77SLPC  H16Y 7059   0.568  -0.155   8.589  1.4929 -0.3717 -0.1672
   77SLPC  C317 7060   0.473   0.036   8.565  0.7577 -0.2032 -0.3456
   77SLPC  H17X 7061   0.369  -0.002   8.562  1.4945 -2.3182 -0.6078
   77SLPC  H17Y 7062   0.482   0.119   8.492 -0.0073 -1.8831 -2.4496
   77SLPC  C318 7063   0.488   0.101   8.709 -0.3923 -0.5601  0.3206
   77SLPC  H18X 7064   0.422   0.190   8.705 -1.4158 -1.1898 -5.5939
   77SLPC  H18Y 7065   0.591   0.139   8.725 -0.9637  0.5054  1.6551
   77SLPC  H18Z 7066   0.458   0.034   8.792 -3.3441 -0.1592 -0.3085
   78SLPC     N 7067   2.412   1.672   6.034  0.2858  0.6525  0.3372
   78SLPC   C13 7068   2.283   1.645   5.965  0.1069  0.0589  0.0585
   78SLPC  H13A 7069   2.198   1.673   6.026  2.3476  3.8527  1.8299
   78SLPC  H13B 7070   2.270   1.691   5.868  0.8545 -2.7219 -1.4670
   78SLPC  H13C 7071   2.279   1.538   5.955  1.3344  0.0949 -1.2756
   78SLPC   C14 7072   2.418   1.582   6.150  0.9861 -0.7666  0.2450
   78SLPC  H14A 7073   2.519   1.567   6.186  0.4647  0.9201  2.7072
   78SLPC  H14B 7074   2.358   1.614   6.234  0.2535 -1.0051 -0.1803
   78SLPC  H14C 7075   2.383   1.485   6.119 -0.1981  0.0790 -1.2271
   78SLPC   C15 7076   2.427   1.809   6.089  0.2032  0.7808  0.0603
   78SLPC  H15A 7077   2.424   1.894   6.023  1.0528  0.6962 -0.1011
   78SLPC  H15B 7078   2.350   1.831   6.162 -1.0637  1.2544 -1.3682
   78SLPC  H15C 7079   2.514   1.825   6.151 -1.3505  0.8550  2.3431
   78SLPC   C12 7080   2.526   1.641   5.945  0.3193 -0.1815  0.0105
   78SLPC  H12A 7081   2.523   1.704   5.857  2.0928 -0.6170 -0.4102
   78SLPC  H12B 7082   2.513   1.541   5.906  0.3829 -0.4606  0.6945
   78SLPC   C11 7083   2.672   1.654   6.002 -0.7006 -0.3040 -0.0389
   78SLPC  H11A 7084   2.746   1.630   5.922 -1.3792 -0.2075 -0.7042
   78SLPC  H11B 7085   2.673   1.564   6.066 -0.3960 -0.0206  0.3562
   78SLPC     P 7086   2.763   1.806   6.209 -0.7070 -0.2281  0.4690
   78SLPC   O13 7087   2.860   1.919   6.198  0.2711  0.0601 -0.2793
   78SLPC   O14 7088   2.653   1.817   6.309 -0.0567 -0.2682  0.6639
   78SLPC   O12 7089   2.706   1.777   6.067 -0.2046  0.5790  0.3157
   78SLPC   O11 7090   2.854   1.671   6.225  0.2206  0.0224  0.2642
   78SLPC    C1 7091   2.824   1.572   6.323 -0.3826 -0.1002  0.5254
   78SLPC    HA 7092   2.716   1.544   6.321 -0.5647  0.6362 -0.6293
   78SLPC    HB 7093   2.887   1.481   6.311  0.8508  0.7892  0.0440
   78SLPC    C2 7094   2.860   1.614   6.468 -0.1084  0.4621 -0.2750
   78SLPC    HS 7095   2.804   1.706   6.495  3.3209  1.9537  2.5168
   78SLPC   O21 7096   3.000   1.648   6.478  0.6421 -0.4268 -0.2288
   78SLPC   C21 7097   3.035   1.732   6.573  0.0049  0.2988  0.1371
   78SLPC   O22 7098   2.964   1.805   6.638  0.2421  0.1565  0.2815
   78SLPC   C22 7099   3.185   1.720   6.608  0.2678 -0.4131 -0.1450
   78SLPC   H2R 7100   3.219   1.619   6.575  1.0203 -0.6691  1.3596
   78SLPC   H2S 7101   3.235   1.798   6.548  2.0263 -1.6392 -0.3470
   78SLPC    C3 7102   2.812   1.500   6.566 -0.0358 -0.4631 -0.0900
   78SLPC    HX 7103   2.874   1.413   6.536  0.2364  0.7850 -3.6645
   78SLPC    HY 7104   2.705   1.475   6.556 -0.0137 -0.7726  0.4192
   78SLPC   O31 7105   2.848   1.541   6.701  0.2653 -0.9144 -0.0580
   78SLPC   C31 7106   2.750   1.566   6.790  0.1539  0.0657  0.0665
   78SLPC   O32 7107   2.634   1.537   6.772  0.2053  0.3305 -0.0176
   78SLPC   C32 7108   2.815   1.612   6.919  0.2502  0.0395  0.1843
   78SLPC   H2X 7109   2.897   1.680   6.888 -0.4140  0.6317 -0.3119
   78SLPC   H2Y 7110   2.870   1.522   6.954  1.3713  0.2893 -0.8935
   78SLPC   C23 7111   3.216   1.755   6.755 -0.3240 -0.4151  0.0661
   78SLPC   H3R 7112   3.157   1.699   6.830  1.1751  0.2143  1.7808
   78SLPC   H3S 7113   3.217   1.865   6.769 -2.4852 -0.4211  0.6451
   78SLPC   C24 7114   3.354   1.699   6.777  0.1874  0.1743  0.4282
   78SLPC   H4R 7115   3.429   1.752   6.715 -0.1485  1.0880  0.7851
   78SLPC   H4S 7116   3.351   1.589   6.757  0.0002 -0.0953  1.8149
   78SLPC   C25 7117   3.406   1.708   6.918 -0.3118  0.8584  0.5809
   78SLPC   H5R 7118   3.339   1.648   6.983 -0.0666 -0.1013 -0.0334
   78SLPC   H5S 7119   3.395   1.813   6.952 -3.4213  0.2529  1.6961
   78SLPC   C26 7120   3.557   1.668   6.928 -0.1288  0.0093 -0.0658
   78SLPC   H6R 7121   3.580   1.705   7.031 -0.1932 -2.8981  1.0863
   78SLPC   H6S 7122   3.614   1.718   6.847 -0.5081 -1.6120 -1.3749
   78SLPC   C27 7123   3.589   1.518   6.941  0.1730  0.2713 -0.7973
   78SLPC   H7R 7124   3.580   1.472   6.840  0.2484  0.0556 -0.7049
   78SLPC   H7S 7125   3.525   1.468   7.017  2.5101  2.6399  3.0787
   78SLPC   C28 7126   3.727   1.487   6.996 -1.1595 -0.5848 -0.3207
   78SLPC   H8R 7127   3.724   1.379   7.023 -0.5187 -0.7022 -0.6876
   78SLPC   H8S 7128   3.736   1.549   7.087 -2.8654  0.1437 -0.6175
   78SLPC   C29 7129   3.833   1.521   6.894  0.0270  0.3462 -0.3471
   78SLPC   H9R 7130   3.839   1.464   6.800  3.7567 -0.3312  0.1489
   78SLPC  C210 7131   3.920   1.622   6.907 -0.2129  0.3417 -0.8510
   78SLPC  H10R 7132   4.004   1.614   6.836 -1.9719 -2.1702 -2.8563
   78SLPC  C211 7133   3.918   1.736   7.008  0.6790  0.0715 -0.0148
   78SLPC  H11R 7134   3.813   1.762   7.031  0.3915 -1.3787  0.4504
   78SLPC  H11S 7135   3.966   1.823   6.958  0.7658 -0.5291 -1.0115
   78SLPC  C212 7136   3.976   1.708   7.144  0.2417  0.2215 -0.0378
   78SLPC  H12R 7137   4.023   1.611   7.163 -0.8004 -0.1748  0.5630
   78SLPC  C213 7138   3.991   1.798   7.247 -0.7953 -0.1244 -0.2381
   78SLPC  H13R 7139   4.045   1.779   7.341  0.6401  4.3432  0.0690
   78SLPC  C214 7140   3.938   1.942   7.259 -0.3771 -0.1048  0.2383
   78SLPC  H14R 7141   3.841   1.931   7.206 -2.5963  3.3661  3.0908
   78SLPC  H14S 7142   3.999   2.011   7.197  0.9826 -0.4482  1.1378
   78SLPC  C215 7143   3.916   1.997   7.399 -0.3949  0.4442  0.1869
   78SLPC  H15R 7144   3.889   1.914   7.467 -0.2676 -0.1534 -0.4843
   78SLPC  H15S 7145   3.833   2.071   7.403  0.0517  0.9432  0.4404
   78SLPC  C216 7146   4.036   2.071   7.455  0.2666 -0.2785 -0.4491
   78SLPC  H16R 7147   4.026   2.173   7.413  1.1293 -0.6084 -1.5186
   78SLPC  H16S 7148   4.134   2.025   7.427  0.6268 -0.3017  0.7985
   78SLPC  C217 7149   4.050   2.105   7.604 -0.7429 -0.0897 -0.5139
   78SLPC  H17R 7150   4.071   2.004   7.646 -2.3054 -0.3076 -0.1928
   78SLPC  H17S 7151   3.953   2.133   7.650 -0.8853 -0.1004 -0.8048
   78SLPC  C218 7152   4.173   2.189   7.638 -0.6242 -0.0025 -0.2974
   78SLPC  H18R 7153   4.189   2.189   7.748 -1.7509  4.1271  0.0603
   78SLPC  H18S 7154   4.160   2.299   7.629 -2.9848 -0.1472  0.7743
   78SLPC  H18T 7155   4.258   2.151   7.577 -0.8865  1.8196 -1.9234
   78SLPC   C33 7156   2.735   1.662   7.034  0.7086 -0.3141  0.1220
   78SLPC   H3X 7157   2.665   1.579   7.056 -2.9253  1.5872 -3.1084
   78SLPC   H3Y 7158   2.670   1.746   7.002  1.1784  0.0998  0.2404
   78SLPC   C34 7159   2.837   1.700   7.139  0.3476  0.1082 -0.4061
   78SLPC   H4X 7160   2.869   1.806   7.128  0.3326  0.2168  0.5319
   78SLPC   H4Y 7161   2.931   1.643   7.124 -0.0041 -0.5091 -0.3090
   78SLPC   C35 7162   2.777   1.692   7.281  0.1248  0.3726  0.3072
   78SLPC   H5X 7163   2.751   1.585   7.296 -0.3519  0.4732  0.2020
   78SLPC   H5Y 7164   2.678   1.741   7.273 -1.7490 -2.8916  1.2181
   78SLPC   C36 7165   2.879   1.730   7.377  0.1697  0.2703 -0.7681
   78SLPC   H6X 7166   2.906   1.837   7.370  0.8657  0.2015  0.4672
   78SLPC   H6Y 7167   2.969   1.664   7.369 -0.0333 -0.2244  0.7410
   78SLPC   C37 7168   2.821   1.716   7.518  0.1111 -0.6163  0.6427
   78SLPC   H7X 7169   2.838   1.610   7.547  0.4516 -0.6346  0.3746
   78SLPC   H7Y 7170   2.712   1.737   7.524 -0.5028 -2.8161 -1.2883
   78SLPC   C38 7171   2.895   1.802   7.616  0.5884 -0.4602 -0.3375
   78SLPC   H8X 7172   2.883   1.911   7.596  0.9266 -0.0883  1.2864
   78SLPC   H8Y 7173   3.005   1.787   7.621  0.8550  1.4559  0.7460
   78SLPC   C39 7174   2.833   1.771   7.751  0.4404 -0.2377  1.0743
   78SLPC   H9X 7175   2.849   1.668   7.788 -0.6603 -0.4112  1.1160
   78SLPC   H9Y 7176   2.725   1.782   7.725  0.6678 -2.0808 -0.8210
   78SLPC  C310 7177   2.863   1.876   7.865 -0.0430  0.5958  0.2371
   78SLPC  H10X 7178   2.841   1.976   7.821  2.7054  0.7780 -0.9694
   78SLPC  H10Y 7179   2.971   1.869   7.891 -0.2414 -2.2126  0.5691
   78SLPC  C311 7180   2.777   1.848   7.988  0.1116  0.0631  0.0902
   78SLPC  H11X 7181   2.668   1.851   7.965  0.0347 -1.9069  0.0109
   78SLPC  H11Y 7182   2.792   1.929   8.063  0.3381  1.6749 -1.6339
   78SLPC  C312 7183   2.794   1.715   8.067 -0.3299  0.4641 -0.4404
   78SLPC  H12X 7184   2.780   1.632   7.994  1.2444  0.0185 -0.2691
   78SLPC  H12Y 7185   2.714   1.697   8.142 -0.4095  0.1635 -0.5972
   78SLPC  C313 7186   2.929   1.699   8.128 -0.2828  0.4666  0.3270
   78SLPC  H13X 7187   3.015   1.737   8.070 -1.0944  2.0003  0.0707
   78SLPC  H13Y 7188   2.946   1.590   8.138  2.3131  0.7502 -0.3265
   78SLPC  C314 7189   2.929   1.770   8.265 -0.4534 -0.3728 -0.3330
   78SLPC  H14X 7190   2.830   1.766   8.315 -0.4123 -2.3652 -0.3333
   78SLPC  H14Y 7191   2.949   1.877   8.241 -1.3549 -0.2534 -0.5958
   78SLPC  C315 7192   3.034   1.710   8.367  0.2413  0.7123  0.7737
   78SLPC  H15X 7193   3.057   1.765   8.460  2.0557 -1.6014  1.7660
   78SLPC  H15Y 7194   3.131   1.706   8.315  0.5549 -0.9907  1.4465
   78SLPC  C316 7195   3.005   1.563   8.413 -0.4971 -0.2785 -0.1103
   78SLPC  H16X 7196   3.095   1.526   8.467 -0.9608 -1.8996 -0.3723
   78SLPC  H16Y 7197   2.997   1.498   8.323  2.3233 -0.3698 -0.3597
   78SLPC  C317 7198   2.889   1.544   8.507  0.8952 -0.2621 -0.3243
   78SLPC  H17X 7199   2.882   1.610   8.597 -0.1358 -0.0769 -0.5257
   78SLPC  H17Y 7200   2.918   1.445   8.547  0.5083 -0.2676 -0.0497
   78SLPC  C318 7201   2.756   1.522   8.445  0.1238 -0.0342 -0.0631
   78SLPC  H18X 7202   2.705   1.613   8.404  1.4881 -0.0622 -1.9705
   78SLPC  H18Y 7203   2.695   1.471   8.522 -0.0411  0.8557  0.4192
   78SLPC  H18Z 7204   2.777   1.461   8.355  1.1341  0.6647 -0.3180
   79SLPC     N 7205   0.225   3.513   6.114 -1.2578 -0.3087  0.0944
   79SLPC   C13 7206   0.106   3.431   6.141  0.0204 -0.3559  0.0306
   79SLPC  H13A 7207   0.139   3.372   6.225 -0.2262 -0.3514  0.1308
   79SLPC  H13B 7208   0.016   3.486   6.167 -0.7529 -1.2987 -0.5947
   79SLPC  H13C 7209   0.084   3.362   6.061 -0.7441 -0.8839  0.6826
   79SLPC   C14 7210   0.198   3.599   5.991 -0.3693 -0.1737 -0.0615
   79SLPC  H14A 7211   0.159   3.537   5.912  1.4140 -3.4328  1.4049
   79SLPC  H14B 7212   0.131   3.681   6.011 -1.0565 -0.7340 -0.0288
   79SLPC  H14C 7213   0.293   3.638   5.957 -0.5316  0.4641  0.2017
   79SLPC   C15 7214   0.335   3.412   6.090  0.0060 -0.0748  0.3198
   79SLPC  H15A 7215   0.314   3.347   6.006 -1.1524 -0.5963  0.9866
   79SLPC  H15B 7216   0.425   3.464   6.061 -1.0115  1.5672 -0.0069
   79SLPC  H15C 7217   0.354   3.346   6.173  1.3186 -0.0848  0.0349
   79SLPC   C12 7218   0.264   3.602   6.227  0.4920 -0.3009 -0.0025
   79SLPC  H12A 7219   0.363   3.644   6.214  0.1818  0.0477 -1.4281
   79SLPC  H12B 7220   0.270   3.552   6.323 -1.0110  0.6989  0.6424
   79SLPC   C11 7221   0.176   3.728   6.245 -0.4661  0.0237 -0.4992
   79SLPC  H11A 7222   0.073   3.690   6.262  0.3404 -2.0626  0.1491
   79SLPC  H11B 7223   0.180   3.785   6.150  0.0275 -1.2836 -1.2906
   79SLPC     P 7224   0.341   3.894   6.343  0.2345  0.3297 -0.2920
   79SLPC   O13 7225   0.394   3.891   6.205  0.2556  0.7798  0.3018
   79SLPC   O14 7226   0.310   4.027   6.398 -0.0804 -0.0178  0.1169
   79SLPC   O12 7227   0.212   3.804   6.356  1.2656  0.4752 -0.5718
   79SLPC   O11 7228   0.442   3.824   6.443  0.3275  0.6108  0.0582
   79SLPC    C1 7229   0.403   3.729   6.545  0.0909  0.1847  0.2592
   79SLPC    HA 7230   0.301   3.686   6.529  0.5944 -1.0209  0.1561
   79SLPC    HB 7231   0.471   3.642   6.537 -0.9825 -0.5900 -0.8327
   79SLPC    C2 7232   0.412   3.788   6.683  0.3997 -0.4000 -0.0018
   79SLPC    HS 7233   0.348   3.879   6.689  0.2596 -0.4199 -1.0523
   79SLPC   O21 7234   0.549   3.820   6.701  0.0525 -0.3298  0.2585
   79SLPC   C21 7235   0.575   3.922   6.779 -0.2531  0.3149 -0.3956
   79SLPC   O22 7236   0.500   3.983   6.853  0.3424 -0.1120 -0.6142
   79SLPC   C22 7237   0.727   3.954   6.771 -0.1011  0.5528 -0.3266
   79SLPC   H2R 7238   0.763   3.936   6.668  0.8032 -0.4555  0.1463
   79SLPC   H2S 7239   0.753   4.056   6.806 -1.2023  0.9091 -0.5073
   79SLPC    C3 7240   0.359   3.679   6.785  0.8611  0.3938  0.3688
   79SLPC    HX 7241   0.413   3.585   6.762  1.6097  0.9775 -0.3325
   79SLPC    HY 7242   0.253   3.653   6.765  1.3087 -1.7198  0.5723
   79SLPC   O31 7243   0.377   3.708   6.924  0.4445  0.5471 -0.0871
   79SLPC   C31 7244   0.293   3.795   6.977  0.7258 -0.1323 -0.3576
   79SLPC   O32 7245   0.207   3.853   6.911  0.2945  0.5715 -0.6228
   79SLPC   C32 7246   0.313   3.804   7.131 -0.1627 -0.2928  0.6897
   79SLPC   H2X 7247   0.333   3.911   7.150 -0.9900 -0.0435  0.2243
   79SLPC   H2Y 7248   0.398   3.742   7.164 -1.2344 -1.2494  1.7647
   79SLPC   C23 7249   0.801   3.860   6.867  0.1205 -0.3468 -0.2812
   79SLPC   H3R 7250   0.911   3.880   6.860 -0.0523  1.5889  1.4168
   79SLPC   H3S 7251   0.771   3.756   6.845 -1.0224  0.1881 -1.3063
   79SLPC   C24 7252   0.768   3.896   7.013 -0.0971  0.2376  0.3633
   79SLPC   H4R 7253   0.675   3.845   7.045  0.7936 -3.3017 -2.0940
   79SLPC   H4S 7254   0.760   4.007   7.023 -0.5801  0.2304  0.0826
   79SLPC   C25 7255   0.879   3.857   7.116 -0.0101 -0.4085  0.6262
   79SLPC   H5R 7256   0.979   3.885   7.076 -1.2265 -0.0717 -2.4013
   79SLPC   H5S 7257   0.883   3.746   7.121 -2.8535 -0.6229 -0.3812
   79SLPC   C26 7258   0.858   3.913   7.257 -0.2510  0.0984 -0.1584
   79SLPC   H6R 7259   0.834   4.020   7.248  1.9520  0.5189 -6.3199
   79SLPC   H6S 7260   0.946   3.886   7.320 -0.9040 -0.7976  0.4031
   79SLPC   C27 7261   0.744   3.835   7.325 -0.2038 -0.0629  0.0533
   79SLPC   H7R 7262   0.748   3.727   7.301  2.0828 -0.2165  0.8627
   79SLPC   H7S 7263   0.659   3.894   7.285  1.0890  1.6218 -0.3284
   79SLPC   C28 7264   0.736   3.860   7.479 -0.0520 -0.2454  0.1029
   79SLPC   H8R 7265   0.719   3.967   7.504  3.8132  0.1249  1.7892
   79SLPC   H8S 7266   0.829   3.835   7.534 -0.3793 -0.4074  0.5854
   79SLPC   C29 7267   0.635   3.764   7.534 -0.4026  0.1771  0.2666
   79SLPC   H9R 7268   0.654   3.659   7.511  0.3097  0.3936 -0.1533
   79SLPC  C210 7269   0.515   3.788   7.603 -0.5933 -0.3485 -0.0259
   79SLPC  H10R 7270   0.448   3.704   7.625 -2.1336  1.2977  1.9041
   79SLPC  C211 7271   0.464   3.920   7.649  0.1426  0.8220 -0.4927
   79SLPC  H11R 7272   0.368   3.945   7.598 -0.3982  1.7156  0.8895
   79SLPC  H11S 7273   0.537   4.002   7.629 -0.2420  0.6363 -2.8693
   79SLPC  C212 7274   0.439   3.919   7.801 -0.1731 -0.1363 -0.0509
   79SLPC  H12R 7275   0.494   3.846   7.862 -1.2727 -0.0573  1.0833
   79SLPC  C213 7276   0.358   4.005   7.862 -0.3588 -0.5078  0.6526
   79SLPC  H13R 7277   0.351   4.002   7.972 -0.1091  1.9212  0.7844
   79SLPC  C214 7278   0.292   4.119   7.795  0.2551 -0.4000  0.5234
   79SLPC  H14R 7279   0.195   4.086   7.753  0.2795 -1.5362  1.3053
   79SLPC  H14S 7280   0.356   4.154   7.711  0.3793 -0.8152  0.4451
   79SLPC  C215 7281   0.264   4.237   7.890 -0.2757 -0.3866  0.6094
   79SLPC  H15R 7282   0.186   4.299   7.842 -0.2987 -0.7607  0.1535
   79SLPC  H15S 7283   0.352   4.304   7.897  0.1395 -0.8080 -0.3914
   79SLPC  C216 7284   0.197   4.204   8.023 -0.2601  0.4539  0.2564
   79SLPC  H16R 7285   0.270   4.166   8.098 -1.9743  1.5784  2.6089
   79SLPC  H16S 7286   0.119   4.127   8.009  0.1387  0.3395 -1.5823
   79SLPC  C217 7287   0.162   4.340   8.087 -0.6408  0.4131  0.1126
   79SLPC  H17R 7288   0.083   4.332   8.165 -0.5989  2.3460  0.4187
   79SLPC  H17S 7289   0.114   4.405   8.011  0.5746  1.5373  0.2578
   79SLPC  C218 7290   0.281   4.420   8.138  0.1113 -0.1604  0.2589
   79SLPC  H18R 7291   0.350   4.458   8.059  2.2290  0.1798  2.1483
   79SLPC  H18S 7292   0.349   4.359   8.201 -1.2855 -1.0079  1.0030
   79SLPC  H18T 7293   0.247   4.500   8.208 -1.4126 -0.7029  0.1837
   79SLPC   C33 7294   0.192   3.771   7.211 -0.0116  0.1747 -0.3115
   79SLPC   H3X 7295   0.163   3.666   7.185 -1.6561  0.7527 -0.9347
   79SLPC   H3Y 7296   0.099   3.827   7.189  0.8697  0.7885 -2.6791
   79SLPC   C34 7297   0.210   3.783   7.360  0.3313  0.1918 -0.2282
   79SLPC   H4X 7298   0.254   3.883   7.382  1.7569 -0.4368 -0.0572
   79SLPC   H4Y 7299   0.291   3.715   7.395  0.9050  1.3361  0.7445
   79SLPC   C35 7300   0.078   3.760   7.435  0.1108 -0.3932 -0.0620
   79SLPC   H5X 7301   0.044   3.657   7.410 -1.8122  0.7169 -2.3877
   79SLPC   H5Y 7302   0.004   3.829   7.391 -0.8923 -2.2549 -1.4469
   79SLPC   C36 7303   0.086   3.791   7.585  0.7836 -0.0822  0.5438
   79SLPC   H6X 7304   0.131   3.890   7.603  0.1973  0.5258 -1.1700
   79SLPC   H6Y 7305   0.155   3.723   7.640 -0.9351 -1.4793  1.0904
   79SLPC   C37 7306  -0.051   3.785   7.647  0.5931  0.4060 -0.9335
   79SLPC   H7X 7307  -0.101   3.688   7.623 -1.6684  1.7291 -1.9595
   79SLPC   H7Y 7308  -0.105   3.868   7.597  0.7823  1.0607 -0.0700
   79SLPC   C38 7309  -0.041   3.818   7.794 -0.5364  0.3418  0.8676
   79SLPC   H8X 7310   0.010   3.914   7.818  0.4901  0.0892 -0.2198
   79SLPC   H8Y 7311   0.011   3.737   7.850  0.0470  0.0267 -0.0990
   79SLPC   C39 7312  -0.179   3.824   7.866  0.7687  0.2311  0.2016
   79SLPC   H9X 7313  -0.228   3.725   7.850  2.5795 -0.9271  1.4537
   79SLPC   H9Y 7314  -0.251   3.891   7.814  0.6277 -0.2168 -0.1915
   79SLPC  C310 7315  -0.178   3.858   8.012  0.0983  0.0051 -0.8525
   79SLPC  H10X 7316  -0.274   3.868   8.066  0.8960  0.8208  0.4802
   79SLPC  H10Y 7317  -0.129   3.958   8.018 -1.1031  0.7515 -2.5426
   79SLPC  C311 7318  -0.099   3.758   8.097  0.2883 -0.1431 -0.1095
   79SLPC  H11X 7319   0.005   3.745   8.062  0.4188  1.9466 -0.6024
   79SLPC  H11Y 7320  -0.152   3.661   8.081  0.4062  0.1062 -2.2941
   79SLPC  C312 7321  -0.111   3.776   8.248 -0.0800 -0.0119  0.4153
   79SLPC  H12X 7322  -0.054   3.692   8.292  3.4739  1.4603 -0.9530
   79SLPC  H12Y 7323  -0.216   3.760   8.280 -0.4699 -0.0370 -0.8023
   79SLPC  C313 7324  -0.069   3.916   8.299  0.0724 -0.2954 -0.1107
   79SLPC  H13X 7325  -0.123   3.998   8.246 -3.4995 -0.5470  2.7213
   79SLPC  H13Y 7326   0.039   3.922   8.274 -0.0718  1.7563 -0.4300
   79SLPC  C314 7327  -0.090   3.927   8.451 -0.1863 -0.3317  0.2169
   79SLPC  H14X 7328  -0.079   3.828   8.499 -0.1967  0.0765  1.0712
   79SLPC  H14Y 7329  -0.191   3.967   8.473 -0.3563 -0.4590 -0.3158
   79SLPC  C315 7330   0.011   4.023   8.516  0.6328 -0.1577 -0.2543
   79SLPC  H15X 7331   0.005   4.121   8.464  2.2991  0.2697  0.2838
   79SLPC  H15Y 7332   0.110   3.979   8.489  0.1874 -1.9482  0.9074
   79SLPC  C316 7333  -0.004   4.039   8.670 -0.5882  0.1608  0.1690
   79SLPC  H16X 7334   0.093   4.065   8.716  0.1802  0.7370 -1.6896
   79SLPC  H16Y 7335  -0.029   3.938   8.709  1.3289 -1.3257 -2.2093
   79SLPC  C317 7336  -0.114   4.136   8.724  0.3034  0.0793  0.0795
   79SLPC  H17X 7337  -0.215   4.099   8.695 -1.1974  2.5379  1.8030
   79SLPC  H17Y 7338  -0.105   4.234   8.673  3.2614  0.3838  0.9961
   79SLPC  C318 7339  -0.113   4.161   8.874  0.7678 -0.4844 -0.3806
   79SLPC  H18X 7340  -0.018   4.209   8.909 -0.3671  1.3206  0.3848
   79SLPC  H18Y 7341  -0.155   4.070   8.922 -0.4925  0.7829  1.0234
   79SLPC  H18Z 7342  -0.189   4.241   8.889  0.5425 -0.5039 -1.3917
   80SLPC     N 7343   1.376   1.871   6.501  0.6314 -0.2418 -0.1324
   80SLPC   C13 7344   1.369   1.827   6.362 -0.6041 -0.3113 -0.2286
   80SLPC  H13A 7345   1.385   1.722   6.346 -1.1139 -0.3814 -0.3208
   80SLPC  H13B 7346   1.280   1.862   6.311  0.9841  3.0455 -1.0341
   80SLPC  H13C 7347   1.451   1.877   6.313 -0.1014 -0.8958  0.0111
   80SLPC   C14 7348   1.342   1.752   6.579  0.2263  0.8745 -0.2794
   80SLPC  H14A 7349   1.352   1.777   6.684  0.2222  0.7662 -0.2534
   80SLPC  H14B 7350   1.248   1.715   6.542  2.4473 -0.5154 -5.4341
   80SLPC  H14C 7351   1.419   1.679   6.558  1.9680  2.7200 -0.6869
   80SLPC   C15 7352   1.291   1.983   6.537 -0.0225  0.4116 -0.2704
   80SLPC  H15A 7353   1.326   2.072   6.487 -1.9273  1.3297 -0.0320
   80SLPC  H15B 7354   1.185   1.968   6.526 -0.1292  0.8423  0.1397
   80SLPC  H15C 7355   1.300   2.008   6.642 -2.4462 -1.4532  0.4838
   80SLPC   C12 7356   1.516   1.915   6.537 -0.1108  0.8369 -0.5019
   80SLPC  H12A 7357   1.581   1.828   6.530 -1.3322 -0.1723  0.2683
   80SLPC  H12B 7358   1.525   1.928   6.644  1.4871 -0.9540 -0.3571
   80SLPC   C11 7359   1.583   2.030   6.465  0.3513  0.7870 -0.5862
   80SLPC  H11A 7360   1.673   2.061   6.522  0.5913 -2.3095  0.9195
   80SLPC  H11B 7361   1.513   2.115   6.449 -0.8568 -0.0933 -0.1758
   80SLPC     P 7362   1.769   1.950   6.289 -0.1962  0.6560 -0.7476
   80SLPC   O13 7363   1.759   1.802   6.263 -0.0273 -0.4793 -0.3286
   80SLPC   O14 7364   1.807   2.027   6.169 -0.4295 -0.0511 -0.5970
   80SLPC   O12 7365   1.628   1.997   6.340 -0.2484  0.4415 -0.4788
   80SLPC   O11 7366   1.868   1.981   6.416  0.3315 -0.1451  0.4004
   80SLPC    C1 7367   1.933   1.863   6.469  0.0469  0.1344 -0.9894
   80SLPC    HA 7368   1.945   1.772   6.408  1.0884  0.4809 -1.3312
   80SLPC    HB 7369   2.039   1.892   6.490  0.4965 -1.6966 -0.5636
   80SLPC    C2 7370   1.870   1.821   6.608  0.3830 -0.3820  0.2309
   80SLPC    HS 7371   1.765   1.811   6.572  1.1939  0.7433 -2.7134
   80SLPC   O21 7372   1.891   1.925   6.705 -0.0379 -0.1699 -0.2183
   80SLPC   C21 7373   1.782   1.934   6.791 -0.2896  0.6679  0.3910
   80SLPC   O22 7374   1.684   1.867   6.786 -0.1196  0.3287  0.6089
   80SLPC   C22 7375   1.800   2.047   6.891 -0.0294  0.3066  0.2654
   80SLPC   H2R 7376   1.903   2.040   6.932  0.5691 -0.5465 -1.3055
   80SLPC   H2S 7377   1.813   2.148   6.846  0.9740  0.3784  0.6791
   80SLPC    C3 7378   1.919   1.680   6.647 -0.2585  0.0560 -0.0135
   80SLPC    HX 7379   2.024   1.692   6.683  0.3643 -0.1391 -1.6476
   80SLPC    HY 7380   1.915   1.619   6.554  0.2583  0.4813 -0.3217
   80SLPC   O31 7381   1.820   1.623   6.734 -0.1143  0.6580 -0.2505
   80SLPC   C31 7382   1.854   1.625   6.862  1.0164 -0.2442  0.5127
   80SLPC   O32 7383   1.953   1.681   6.906 -0.1651 -0.0683  1.0206
   80SLPC   C32 7384   1.751   1.553   6.950  0.1131 -0.0515  0.0471
   80SLPC   H2X 7385   1.748   1.443   6.931  0.3220  0.3089 -2.4283
   80SLPC   H2Y 7386   1.649   1.581   6.917  0.5091  0.6281 -0.6295
   80SLPC   C23 7387   1.695   2.047   6.998 -0.4342  0.3428 -0.2649
   80SLPC   H3R 7388   1.702   1.947   7.046  0.3334 -0.0113 -1.0888
   80SLPC   H3S 7389   1.593   2.063   6.958 -1.2664  0.7570  1.8503
   80SLPC   C24 7390   1.718   2.148   7.112 -0.2528 -0.1007  0.3644
   80SLPC   H4R 7391   1.714   2.254   7.079 -1.8981 -0.5521 -1.0385
   80SLPC   H4S 7392   1.810   2.127   7.170 -1.5340 -1.5800  1.9934
   80SLPC   C25 7393   1.617   2.140   7.220 -0.6707 -0.4476 -0.6688
   80SLPC   H5R 7394   1.510   2.160   7.194 -1.3014  3.2449  3.4694
   80SLPC   H5S 7395   1.644   2.216   7.296  0.8675 -1.3981 -0.2319
   80SLPC   C26 7396   1.619   2.005   7.292  0.3841  0.0311 -0.8570
   80SLPC   H6R 7397   1.717   1.974   7.333  0.8657  1.5123 -0.8423
   80SLPC   H6S 7398   1.589   1.927   7.220 -0.8599  1.0723 -1.5090
   80SLPC   C27 7399   1.528   1.988   7.415 -0.3427  0.5615 -0.6904
   80SLPC   H7R 7400   1.494   1.882   7.424  0.3067  0.4317  0.3178
   80SLPC   H7S 7401   1.435   2.045   7.396 -0.6778  0.7770  1.4268
   80SLPC   C28 7402   1.589   2.032   7.555 -0.1319 -0.5740 -0.7332
   80SLPC   H8R 7403   1.659   2.115   7.531  0.5386 -1.3457 -1.5340
   80SLPC   H8S 7404   1.652   1.949   7.594 -1.3510 -2.0452 -1.7680
   80SLPC   C29 7405   1.474   2.067   7.650 -0.6144  0.2638 -0.2463
   80SLPC   H9R 7406   1.381   2.113   7.613 -0.4975 -0.8227 -2.0568
   80SLPC  C210 7407   1.468   2.034   7.783  0.4605 -0.2572 -0.0324
   80SLPC  H10R 7408   1.375   2.049   7.840 -0.1703 -3.5316  0.0111
   80SLPC  C211 7409   1.570   1.960   7.866 -0.8538 -0.6120  0.6570
   80SLPC  H11R 7410   1.596   2.020   7.956  1.1639  0.6738 -0.7169
   80SLPC  H11S 7411   1.669   1.957   7.816 -0.9697 -0.7877  0.4388
   80SLPC  C212 7412   1.520   1.824   7.909  0.0164  0.5878 -0.2999
   80SLPC  H12R 7413   1.548   1.738   7.846  0.4602 -0.2771  1.0397
   80SLPC  C213 7414   1.458   1.793   8.026 -0.0496  0.1036 -0.1854
   80SLPC  H13R 7415   1.422   1.691   8.041  0.9413 -0.5258 -1.7978
   80SLPC  C214 7416   1.431   1.889   8.143 -0.9818 -0.1914  0.0031
   80SLPC  H14R 7417   1.427   1.997   8.114 -2.4484 -0.4286 -0.8132
   80SLPC  H14S 7418   1.520   1.890   8.209  0.4205 -0.6139 -1.7843
   80SLPC  C215 7419   1.296   1.870   8.210 -0.1891  0.7537  1.2188
   80SLPC  H15R 7420   1.284   1.763   8.235  0.1222  0.6056  0.7513
   80SLPC  H15S 7421   1.219   1.893   8.133 -0.8480  0.9477  1.9230
   80SLPC  C216 7422   1.284   1.960   8.333 -0.1678 -0.1395  0.0538
   80SLPC  H16R 7423   1.284   2.071   8.320  2.2936  0.0559  1.1869
   80SLPC  H16S 7424   1.380   1.943   8.386 -0.1130 -1.0847 -0.3417
   80SLPC  C217 7425   1.178   1.926   8.430 -0.3184 -0.5500 -0.1989
   80SLPC  H17R 7426   1.077   1.944   8.387 -1.1078 -0.5079  1.6011
   80SLPC  H17S 7427   1.162   2.007   8.504 -0.1920  1.4359 -2.2267
   80SLPC  C218 7428   1.196   1.785   8.497 -0.0282 -0.5011 -0.0635
   80SLPC  H18R 7429   1.106   1.759   8.557  0.3112 -1.0623  0.2195
   80SLPC  H18S 7430   1.287   1.773   8.560 -0.7169  0.3559  1.1368
   80SLPC  H18T 7431   1.208   1.718   8.409  1.3433  0.1384 -0.3996
   80SLPC   C33 7432   1.751   1.604   7.097 -0.4484  0.3573 -0.0213
   80SLPC   H3X 7433   1.770   1.713   7.086 -0.2485  0.1552 -2.1232
   80SLPC   H3Y 7434   1.841   1.553   7.138 -2.0824 -2.8945 -0.1191
   80SLPC   C34 7435   1.631   1.565   7.181  0.5694 -0.2061  0.2946
   80SLPC   H4X 7436   1.613   1.458   7.159 -2.1131  0.6058 -2.1688
   80SLPC   H4Y 7437   1.536   1.616   7.154  0.1764 -2.0686 -2.2576
   80SLPC   C35 7438   1.668   1.589   7.326  0.3254  0.3078 -1.2392
   80SLPC   H5X 7439   1.718   1.688   7.341  2.7034 -0.9103 -0.6396
   80SLPC   H5Y 7440   1.751   1.524   7.359  1.5018  2.7788  1.1184
   80SLPC   C36 7441   1.554   1.565   7.424  0.6982 -0.5529 -0.0974
   80SLPC   H6X 7442   1.522   1.461   7.402 -1.6746  0.4028 -1.4512
   80SLPC   H6Y 7443   1.473   1.638   7.403  1.3665  0.5847  1.0985
   80SLPC   C37 7444   1.616   1.568   7.570 -0.3623 -0.0553  0.1328
   80SLPC   H7X 7445   1.627   1.674   7.600 -1.8871 -0.3236  1.7671
   80SLPC   H7Y 7446   1.721   1.532   7.566 -0.0462  0.8233 -3.6385
   80SLPC   C38 7447   1.536   1.499   7.675 -0.3997  0.4757  0.6402
   80SLPC   H8X 7448   1.497   1.406   7.627  0.7688  0.1572  0.2702
   80SLPC   H8Y 7449   1.458   1.569   7.711 -0.1246  0.2904  1.5998
   80SLPC   C39 7450   1.616   1.461   7.791  0.2689  0.6618 -0.9255
   80SLPC   H9X 7451   1.660   1.550   7.841  1.6411  0.1409 -1.1748
   80SLPC   H9Y 7452   1.707   1.408   7.757  1.1682 -0.5307  2.8815
   80SLPC  C310 7453   1.540   1.383   7.898  0.4203  0.4994 -0.3563
   80SLPC  H10X 7454   1.479   1.294   7.871 -0.6300  1.2629 -0.5305
   80SLPC  H10Y 7455   1.468   1.453   7.944 -1.1488  0.1003 -2.0688
   80SLPC  C311 7456   1.639   1.314   8.009 -0.5495 -0.0355  0.3856
   80SLPC  H11X 7457   1.676   1.398   8.072 -0.4873  0.4763 -0.3221
   80SLPC  H11Y 7458   1.723   1.265   7.954 -0.3695  0.9190 -0.2098
   80SLPC  C312 7459   1.560   1.223   8.102 -0.3298  0.5103 -0.1579
   80SLPC  H12X 7460   1.519   1.137   8.043  2.5043 -1.8177  1.0113
   80SLPC  H12Y 7461   1.474   1.284   8.135  0.1324  0.7301  0.6479
   80SLPC  C313 7462   1.643   1.165   8.214 -0.0139 -0.3373 -0.0031
   80SLPC  H13X 7463   1.702   1.248   8.258  1.1015 -2.2228  2.2927
   80SLPC  H13Y 7464   1.714   1.087   8.178  0.9614  0.4564  0.1391
   80SLPC  C314 7465   1.566   1.095   8.325 -0.6407 -0.1001 -0.3701
   80SLPC  H14X 7466   1.504   1.169   8.381 -0.4903 -1.6469  1.9754
   80SLPC  H14Y 7467   1.647   1.049   8.385 -1.2797 -0.6201  0.0993
   80SLPC  C315 7468   1.476   0.979   8.285 -0.2456  0.0337  0.8641
   80SLPC  H15X 7469   1.385   1.021   8.238  0.7531 -0.1636 -1.4033
   80SLPC  H15Y 7470   1.451   0.919   8.375  0.0810 -1.1847  0.1712
   80SLPC  C316 7471   1.548   0.888   8.197 -0.1793  0.2897 -0.3253
   80SLPC  H16X 7472   1.649   0.854   8.227 -0.6396  0.4457  1.5014
   80SLPC  H16Y 7473   1.560   0.935   8.097  2.9454  2.0092  0.7179
   80SLPC  C317 7474   1.472   0.761   8.165  0.7764  0.8365  0.3996
   80SLPC  H17X 7475   1.367   0.792   8.146 -0.1052 -2.0490 -0.0159
   80SLPC  H17Y 7476   1.472   0.708   8.262 -0.1352 -2.5449 -1.2750
   80SLPC  C318 7477   1.530   0.666   8.060  0.0496 -0.3052 -0.5569
   80SLPC  H18X 7478   1.467   0.574   8.060  0.4788 -0.6106  0.3027
   80SLPC  H18Y 7479   1.631   0.628   8.087  0.7956  0.3834 -2.2471
   80SLPC  H18Z 7480   1.537   0.705   7.957  1.9397  1.5405  0.2069
   81SAPS     N 7481   2.509   3.295  11.250 -0.1481  0.0119  0.3169
   81SAPS   HN1 7482   2.550   3.328  11.340 -0.7238 -0.9799  0.9529
   81SAPS   HN2 7483   2.550   3.214  11.200  0.5423  2.0342 -2.7108
   81SAPS   HN3 7484   2.518   3.375  11.183 -0.7047  0.3672  0.6531
   81SAPS   C12 7485   2.364   3.281  11.273 -0.1306  0.3780 -0.6441
   81SAPS  H12A 7486   2.362   3.199  11.344 -0.3013 -0.6445 -1.8025
   81SAPS   C13 7487   2.297   3.405  11.329 -0.3633  0.0303 -0.5908
   81SAPS  O13A 7488   2.368   3.511  11.349 -0.3687  0.2678  0.2606
   81SAPS  O13B 7489   2.185   3.400  11.381 -1.0332  0.1730 -0.1589
   81SAPS   C11 7490   2.285   3.251  11.150  0.1169  0.0259 -0.4283
   81SAPS  H11A 7491   2.318   3.325  11.074 -0.3514 -0.1110 -0.7650
   81SAPS  H11B 7492   2.181   3.289  11.150  1.0231  2.8484 -2.5428
   81SAPS     P 7493   2.384   3.090  10.969  0.2970 -0.0969 -0.3550
   81SAPS   O13 7494   2.511   3.165  10.995 -0.2557  0.2492  0.4332
   81SAPS   O14 7495   2.393   2.945  10.946  0.2951  0.5088  0.2255
   81SAPS   O12 7496   2.289   3.117  11.101 -0.7144  0.2745  0.2730
   81SAPS   O11 7497   2.312   3.165  10.853  0.3970  0.6856 -0.7743
   81SAPS    C1 7498   2.176   3.131  10.830 -0.9180  1.0892  0.0616
   81SAPS    HA 7499   2.150   3.023  10.831  1.8750  0.3283  0.5630
   81SAPS    HB 7500   2.116   3.181  10.908 -1.4391 -0.1267  0.4602
   81SAPS    C2 7501   2.125   3.191  10.689 -0.6876  0.0927 -1.2413
   81SAPS    HS 7502   2.016   3.169  10.692 -0.4187 -1.2766 -0.2353
   81SAPS   O21 7503   2.194   3.121  10.584  0.2661  0.5769 -0.0108
   81SAPS   C21 7504   2.157   3.002  10.552  0.5661 -0.1057 -0.0172
   81SAPS   O22 7505   2.067   2.941  10.605 -0.6499  0.3047 -0.0506
   81SAPS   C22 7506   2.239   2.949  10.440 -0.3888 -0.3203  0.3262
   81SAPS   H2R 7507   2.348   2.957  10.459 -0.2488 -1.2761 -0.0106
   81SAPS   H2S 7508   2.217   2.844  10.411 -0.0054 -0.0344 -1.0551
   81SAPS    C3 7509   2.158   3.345  10.674 -0.3877  0.1454 -0.3368
   81SAPS    HX 7510   2.269   3.347  10.672 -0.3165 -1.0201  1.2260
   81SAPS    HY 7511   2.128   3.396  10.768 -0.6705  0.4825 -0.6063
   81SAPS   O31 7512   2.099   3.411  10.561  0.1936 -0.4324  0.2100
   81SAPS   C31 7513   1.985   3.481  10.573 -0.1710 -0.4413  0.7713
   81SAPS   O32 7514   1.918   3.488  10.673  0.1636 -0.0719  0.1768
   81SAPS   C32 7515   1.971   3.550  10.440 -0.0879  0.0363  0.3024
   81SAPS   H2X 7516   2.055   3.623  10.429  1.1173 -1.3327  0.0712
   81SAPS   H2Y 7517   1.878   3.610  10.447  0.8747  1.4071  3.6130
   81SAPS   C23 7518   2.227   3.030  10.307  0.8206  0.3663  0.5911
   81SAPS   H3R 7519   2.284   2.988  10.221  2.7205  1.4185  1.2824
   81SAPS   H3S 7520   2.267   3.133  10.321  1.5003  0.5342 -2.0053
   81SAPS   C24 7521   2.075   3.040  10.264  0.5367 -0.3634  0.0530
   81SAPS   H4R 7522   2.069   3.125  10.193  0.6714 -1.4075 -1.2538
   81SAPS   H4S 7523   2.016   3.073  10.352 -0.7146 -2.6145  0.1261
   81SAPS   C25 7524   2.009   2.914  10.206 -0.1381 -0.0725 -0.1011
   81SAPS   H5R 7525   1.989   2.835  10.279  2.0505 -0.6845 -0.1079
   81SAPS   C26 7526   1.968   2.887  10.085  0.7319  0.1512  0.2851
   81SAPS   H6R 7527   1.918   2.794  10.053  2.1876 -0.3390 -0.6905
   81SAPS   C27 7528   1.983   2.976   9.966 -0.4365  0.1829 -0.0376
   81SAPS   H7R 7529   2.011   2.914   9.879 -0.3035  0.3106 -0.0864
   81SAPS   H7S 7530   2.069   3.046   9.970 -0.8959  0.7228  1.0731
   81SAPS   C28 7531   1.858   3.056   9.942 -0.9515  0.2980 -0.7144
   81SAPS   H8R 7532   1.852   3.147  10.004 -0.3137  0.6038 -1.0922
   81SAPS   C29 7533   1.780   3.048   9.836  1.0473 -0.1696 -0.1115
   81SAPS   H9R 7534   1.712   3.134   9.824  0.9131  0.0002  1.5539
   81SAPS  C210 7535   1.767   2.950   9.720  0.8541  0.1460  0.2177
   81SAPS  H10R 7536   1.658   2.931   9.705  0.6687  2.2462 -1.7827
   81SAPS  H10S 7537   1.824   2.855   9.727  1.3371  0.4137 -0.0650
   81SAPS  C211 7538   1.822   3.017   9.589 -0.0738 -0.3151 -0.2167
   81SAPS  H11R 7539   1.932   3.024   9.595  0.0004 -1.0296 -0.6444
   81SAPS  C212 7540   1.759   3.049   9.472 -0.2021  0.9735 -1.1854
   81SAPS  H12R 7541   1.819   3.084   9.388 -1.3911  1.5378 -1.8173
   81SAPS  C213 7542   1.618   3.020   9.432  0.2389 -0.2745 -0.8760
   81SAPS  H13R 7543   1.576   3.112   9.384 -0.0802  0.2091  0.3114
   81SAPS  H13S 7544   1.559   3.000   9.523  1.6580 -0.1777  0.1006
   81SAPS  C214 7545   1.594   2.898   9.351 -0.1371  0.1600 -0.4970
   81SAPS  H14R 7546   1.647   2.811   9.392  0.0062  0.6214  0.3107
   81SAPS  C215 7547   1.517   2.883   9.242  0.2113  0.1036  0.4126
   81SAPS  H15R 7548   1.500   2.778   9.213 -0.4597 -0.2136  1.8678
   81SAPS  C216 7549   1.418   2.978   9.174 -0.1318 -0.4237  0.0524
   81SAPS  H16R 7550   1.438   3.072   9.230 -0.6584 -1.7281  2.5963
   81SAPS  H16S 7551   1.315   2.946   9.201 -0.1875  0.1982  0.6041
   81SAPS  C217 7552   1.449   2.997   9.025 -1.4571 -0.1677 -0.3336
   81SAPS  H17R 7553   1.559   3.004   9.012 -1.2062 -1.7137  0.7199
   81SAPS  H17S 7554   1.403   3.093   8.993 -1.3293  0.3945  1.0716
   81SAPS  C218 7555   1.412   2.889   8.918 -0.5287 -0.5489 -0.6072
   81SAPS  H18R 7556   1.316   2.844   8.951 -0.2077 -0.0711  1.0610
   81SAPS  H18S 7557   1.501   2.822   8.917  0.6508  0.9458  0.0794
   81SAPS  C219 7558   1.397   2.943   8.776  0.1608  0.5280  0.1202
   81SAPS  H19R 7559   1.336   3.035   8.789  0.0476  0.2686  1.7276
   81SAPS  H19S 7560   1.340   2.868   8.717 -0.1555  0.5510  0.3898
   81SAPS  C220 7561   1.532   2.976   8.708 -0.4973  0.3138 -0.2434
   81SAPS  H20R 7562   1.600   2.889   8.690 -0.4641  0.4167 -0.6204
   81SAPS  H20S 7563   1.580   3.056   8.768 -0.4459 -1.7304  2.6450
   81SAPS  H20T 7564   1.498   3.012   8.609 -0.9337  0.7781  0.0746
   81SAPS   C33 7565   1.973   3.449  10.328 -0.6011 -0.7147 -1.2292
   81SAPS   H3X 7566   1.899   3.370  10.351 -1.3843  0.2626 -0.2928
   81SAPS   H3Y 7567   2.073   3.401  10.325 -0.5895 -0.6585 -2.2959
   81SAPS   C34 7568   1.939   3.503  10.196 -0.0477  0.8335 -0.2734
   81SAPS   H4X 7569   1.996   3.599  10.197  1.8492 -0.2454  0.9804
   81SAPS   H4Y 7570   1.830   3.511  10.173 -0.3290 -1.5638 -0.0144
   81SAPS   C35 7571   1.997   3.411  10.090 -0.0965  0.2717  0.5034
   81SAPS   H5X 7572   1.940   3.316  10.091  1.7341 -0.8721 -0.3027
   81SAPS   H5Y 7573   2.104   3.392  10.115 -0.3055  0.5391  1.6752
   81SAPS   C36 7574   1.967   3.475   9.958  0.0689  0.2835  0.2275
   81SAPS   H6X 7575   2.033   3.563   9.938  1.9987  0.0438  4.4255
   81SAPS   H6Y 7576   1.866   3.521   9.964 -0.5627 -1.2131  2.0080
   81SAPS   C37 7577   1.967   3.380   9.836  0.0235 -0.5569  0.2353
   81SAPS   H7X 7578   1.886   3.305   9.853 -1.9055  1.4551  0.4892
   81SAPS   H7Y 7579   2.064   3.326   9.843 -0.0887 -0.6465  1.4087
   81SAPS   C38 7580   1.949   3.451   9.708 -0.0420 -0.7438 -0.8593
   81SAPS   H8X 7581   2.007   3.545   9.714 -2.4517  0.9706 -2.3360
   81SAPS   H8Y 7582   1.842   3.482   9.696 -0.0805  0.4772  1.8332
   81SAPS   C39 7583   2.001   3.375   9.582  0.3421 -0.6862  0.8035
   81SAPS   H9X 7584   1.962   3.271   9.589  1.5328 -1.2912 -0.8645
   81SAPS   H9Y 7585   2.112   3.372   9.583  0.5931  2.1905 -2.1933
   81SAPS  C310 7586   1.953   3.440   9.450  0.8694 -0.3492  0.4715
   81SAPS  H10X 7587   1.980   3.547   9.464 -1.0239  0.5813 -2.0810
   81SAPS  H10Y 7588   1.842   3.430   9.454  0.6918  0.7023 -1.1868
   81SAPS  C311 7589   2.007   3.401   9.318  0.0045  0.3477 -0.2402
   81SAPS  H11X 7590   2.019   3.290   9.318 -0.7935  0.2587 -0.1838
   81SAPS  H11Y 7591   2.114   3.431   9.319  0.0987  0.0230  0.5549
   81SAPS  C312 7592   1.928   3.469   9.208 -0.2855  0.1602 -0.5377
   81SAPS  H12X 7593   1.925   3.573   9.247  1.2653  0.2080 -0.4581
   81SAPS  H12Y 7594   1.827   3.424   9.204  0.2713 -1.2025  0.1064
   81SAPS  C313 7595   1.988   3.473   9.067  0.2592  0.3812 -0.0037
   81SAPS  H13X 7596   1.996   3.367   9.035 -3.4907  0.2081 -0.7270
   81SAPS  H13Y 7597   2.082   3.533   9.073  1.2581 -0.9752 -1.3013
   81SAPS  C314 7598   1.893   3.534   8.966 -0.1980 -0.1805  0.1490
   81SAPS  H14X 7599   1.798   3.478   8.983  0.2783 -0.2170  3.5914
   81SAPS  H14Y 7600   1.930   3.507   8.865  1.2947  2.7569 -0.1898
   81SAPS  C315 7601   1.880   3.688   8.980  0.9102 -0.5211 -0.3130
   81SAPS  H15X 7602   1.973   3.731   9.022  0.0498 -1.0484  2.3316
   81SAPS  H15Y 7603   1.820   3.712   9.070  2.1417  2.1636 -0.1219
   81SAPS  C316 7604   1.818   3.756   8.853  0.4118  0.2838  0.0047
   81SAPS  H16X 7605   1.759   3.845   8.884 -3.1552 -1.6929 -0.6277
   81SAPS  H16Y 7606   1.732   3.700   8.811  2.2397 -1.1700 -2.0421
   81SAPS  C317 7607   1.924   3.789   8.753  0.8863 -0.6119  0.6533
   81SAPS  H17X 7608   1.973   3.696   8.717  0.8567 -0.8139  1.1290
   81SAPS  H17Y 7609   1.997   3.857   8.803  1.4781 -0.1470 -0.7951
   81SAPS  C318 7610   1.857   3.873   8.634  0.0435  0.4934 -0.1931
   81SAPS  H18X 7611   1.782   3.811   8.580  0.3412  2.0771 -2.5506
   81SAPS  H18Y 7612   1.926   3.911   8.556 -2.0572  1.1698 -1.8102
   81SAPS  H18Z 7613   1.799   3.956   8.678 -0.1369  0.2729 -0.0098
   82SAPS     N 7614   0.562   2.101  10.997  0.0888 -0.6374 -0.0704
   82SAPS   HN1 7615   0.645   2.080  10.938 -1.3676 -4.4027 -1.0587
   82SAPS   HN2 7616   0.539   2.009  11.038 -0.4063 -1.4893 -2.1668
   82SAPS   HN3 7617   0.479   2.125  10.940  0.3421 -0.4208 -0.3516
   82SAPS   C12 7618   0.604   2.205  11.093 -0.3109  0.6081 -0.7663
   82SAPS  H12A 7619   0.527   2.219  11.167  0.9713 -0.2452  0.8028
   82SAPS   C13 7620   0.730   2.188  11.183  0.4648 -0.1788 -0.3900
   82SAPS  O13A 7621   0.791   2.078  11.186  0.1164  0.4312  0.1059
   82SAPS  O13B 7622   0.763   2.280  11.266 -0.1233 -0.3705  0.2605
   82SAPS   C11 7623   0.634   2.338  11.011  0.3451  0.6231  0.2720
   82SAPS  H11A 7624   0.738   2.327  10.973  1.2148  3.1727  1.6225
   82SAPS  H11B 7625   0.641   2.426  11.079 -0.2134  1.5597 -0.8490
   82SAPS     P 7626   0.518   2.508  10.847  0.2465 -0.2960 -0.5027
   82SAPS   O13 7627   0.436   2.498  10.726  0.2464  0.4582  0.1215
   82SAPS   O14 7628   0.473   2.606  10.954  0.2011  0.3889  0.2097
   82SAPS   O12 7629   0.524   2.360  10.917 -0.1731 -0.1167 -0.2624
   82SAPS   O11 7630   0.670   2.529  10.811  0.4680  0.1120  0.2665
   82SAPS    C1 7631   0.745   2.456  10.715 -0.0235  0.0977  0.3147
   82SAPS    HA 7632   0.834   2.417  10.770  1.9431  2.2720 -1.1355
   82SAPS    HB 7633   0.691   2.369  10.671  0.1146  0.3745 -0.4188
   82SAPS    C2 7634   0.797   2.541  10.599  0.0686 -0.3458  0.7066
   82SAPS    HS 7635   0.827   2.641  10.637 -0.0712 -0.2388  0.5414
   82SAPS   O21 7636   0.697   2.537  10.487 -0.9103  0.1762  0.1757
   82SAPS   C21 7637   0.619   2.644  10.488  0.3817 -0.7991  0.0606
   82SAPS   O22 7638   0.624   2.738  10.573  0.3725 -0.0797  0.2853
   82SAPS   C22 7639   0.510   2.620  10.385  0.4328  0.4590  0.4002
   82SAPS   H2R 7640   0.544   2.687  10.303 -0.1927  2.7405  1.9046
   82SAPS   H2S 7641   0.522   2.513  10.357  0.1197 -0.3828  3.1713
   82SAPS    C3 7642   0.921   2.477  10.549  0.0672 -0.0290  0.1554
   82SAPS    HX 7643   0.918   2.370  10.519  2.1522 -0.4195  1.1497
   82SAPS    HY 7644   0.995   2.482  10.632 -1.6069 -1.3013  1.8208
   82SAPS   O31 7645   0.960   2.553  10.436  0.3930 -0.2009 -0.1250
   82SAPS   C31 7646   1.061   2.499  10.366  0.1022 -0.0411 -0.1119
   82SAPS   O32 7647   1.122   2.398  10.401 -0.2619  0.0494  0.1103
   82SAPS   C32 7648   1.111   2.584  10.254  0.4333  0.3262  0.6815
   82SAPS   H2X 7649   1.218   2.614  10.266 -0.0275  0.9593  4.1345
   82SAPS   H2Y 7650   1.058   2.680  10.237 -1.0869 -0.3084  1.7015
   82SAPS   C23 7651   0.360   2.638  10.436  0.2731 -0.1168  0.4219
   82SAPS   H3R 7652   0.344   2.732  10.492  0.2571 -0.4739  1.0340
   82SAPS   H3S 7653   0.344   2.556  10.510 -0.5839  0.6437  1.0936
   82SAPS   C24 7654   0.248   2.611  10.341 -0.5285  0.3875  0.3465
   82SAPS   H4R 7655   0.163   2.584  10.408  1.0767  0.6140  2.5809
   82SAPS   H4S 7656   0.269   2.528  10.270 -2.0447  0.0913  0.1936
   82SAPS   C25 7657   0.220   2.739  10.263 -0.2880 -0.7951  0.9201
   82SAPS   H5R 7658   0.183   2.824  10.322  2.2400  1.4827 -0.6112
   82SAPS   C26 7659   0.215   2.757  10.129  0.1088 -1.3341  0.3839
   82SAPS   H6R 7660   0.188   2.854  10.084 -1.1815 -2.2257 -0.8813
   82SAPS   C27 7661   0.246   2.649  10.027  0.2348 -0.0871  0.5742
   82SAPS   H7R 7662   0.187   2.667   9.935  1.1384  0.4180  0.0763
   82SAPS   H7S 7663   0.213   2.547  10.057  0.2362 -0.4769 -0.6765
   82SAPS   C28 7664   0.389   2.661   9.977 -0.3139  0.2988  0.3466
   82SAPS   H8R 7665   0.466   2.698  10.046  1.6744 -0.2270 -1.4949
   82SAPS   C29 7666   0.446   2.594   9.872  0.6782  1.0045 -1.1066
   82SAPS   H9R 7667   0.556   2.596   9.864  0.9251  0.0280  1.2396
   82SAPS  C210 7668   0.387   2.502   9.771 -0.0509  0.1168  0.7137
   82SAPS  H10R 7669   0.375   2.553   9.673 -0.3811 -0.2683  0.5519
   82SAPS  H10S 7670   0.282   2.492   9.805  0.0685 -0.3730  0.9622
   82SAPS  C211 7671   0.459   2.371   9.760  0.6965  0.4714 -0.3328
   82SAPS  H11R 7672   0.482   2.325   9.857  0.1446  0.9498  0.0326
   82SAPS  C212 7673   0.483   2.302   9.648  0.1813 -1.3023 -0.0601
   82SAPS  H12R 7674   0.545   2.212   9.652  1.2439 -0.5649  0.8252
   82SAPS  C213 7675   0.442   2.349   9.512  0.0335  0.0601  1.2314
   82SAPS  H13R 7676   0.480   2.453   9.504 -1.0642  0.6440  3.0843
   82SAPS  H13S 7677   0.332   2.347   9.498  0.1567 -1.2525  0.1454
   82SAPS  C214 7678   0.488   2.251   9.407  0.8064 -0.9146 -0.1186
   82SAPS  H14R 7679   0.414   2.175   9.378 -1.4568  0.7961  0.8759
   82SAPS  C215 7680   0.600   2.261   9.332  0.0164  0.5470  0.1286
   82SAPS  H15R 7681   0.613   2.186   9.252 -1.6845  0.7706 -0.3886
   82SAPS  C216 7682   0.710   2.362   9.325  0.3722 -0.1394 -0.6914
   82SAPS  H16R 7683   0.701   2.426   9.415 -0.4142  1.2066 -1.6900
   82SAPS  H16S 7684   0.699   2.434   9.241  0.8359 -0.1872 -0.7969
   82SAPS  C217 7685   0.854   2.306   9.304  0.3627  0.0206  0.4580
   82SAPS  H17R 7686   0.908   2.382   9.243 -1.1896 -1.3015 -2.8071
   82SAPS  H17S 7687   0.855   2.215   9.241 -2.1339  0.3350 -0.1238
   82SAPS  C218 7688   0.933   2.285   9.435  0.2471  0.8966  0.5257
   82SAPS  H18R 7689   1.019   2.230   9.392 -0.8027 -0.1378 -0.3265
   82SAPS  H18S 7690   0.891   2.204   9.499  1.3186 -0.9915 -1.0857
   82SAPS  C219 7691   0.951   2.405   9.528  0.6821 -0.1733  0.1497
   82SAPS  H19R 7692   0.852   2.445   9.560  0.3767 -0.7322 -0.0862
   82SAPS  H19S 7693   0.995   2.498   9.485 -2.1023  0.1069 -2.3784
   82SAPS  C220 7694   1.051   2.360   9.632 -0.1411 -0.4856 -0.2338
   82SAPS  H20R 7695   1.013   2.267   9.680  1.0161 -1.5437 -1.2980
   82SAPS  H20S 7696   1.067   2.437   9.710  0.9839  2.4798 -3.1713
   82SAPS  H20T 7697   1.149   2.349   9.582  0.2070 -0.2696  0.3854
   82SAPS   C33 7698   1.092   2.490  10.134  0.1185 -0.0677 -0.0029
   82SAPS   H3X 7699   1.143   2.392  10.147 -0.8631 -0.7582 -1.1580
   82SAPS   H3Y 7700   1.136   2.552  10.053  1.5682  0.8574  1.4328
   82SAPS   C34 7701   0.943   2.481  10.103 -0.1831  0.7670 -0.7113
   82SAPS   H4X 7702   0.887   2.468  10.199  0.3651 -1.6581 -0.6611
   82SAPS   H4Y 7703   0.921   2.397  10.034  0.6833 -0.7291  0.7408
   82SAPS   C35 7704   0.868   2.604  10.033 -0.0653 -0.2324  0.9673
   82SAPS   H5X 7705   0.895   2.695  10.090 -3.0604  0.7921  0.9460
   82SAPS   H5Y 7706   0.758   2.591  10.046 -0.0366 -2.0270 -0.2676
   82SAPS   C36 7707   0.896   2.619   9.885  0.7004 -0.8107  0.7999
   82SAPS   H6X 7708   0.840   2.540   9.830 -1.8812  0.1598  1.8793
   82SAPS   H6Y 7709   1.004   2.606   9.864  0.8445 -1.9097  2.0868
   82SAPS   C37 7710   0.854   2.747   9.813 -0.5315 -0.3177 -0.2628
   82SAPS   H7X 7711   0.917   2.826   9.859  1.7029 -0.0640 -3.4635
   82SAPS   H7Y 7712   0.749   2.779   9.831 -1.1203 -2.1810 -0.2324
   82SAPS   C38 7713   0.885   2.749   9.666 -0.3367  0.6240  0.1557
   82SAPS   H8X 7714   0.827   2.668   9.616  1.5051 -1.4474  1.2199
   82SAPS   H8Y 7715   0.991   2.718   9.660 -0.1507  1.0750  0.9819
   82SAPS   C39 7716   0.868   2.880   9.589 -0.4239  0.3609  0.1440
   82SAPS   H9X 7717   0.951   2.946   9.622  0.5498 -0.6217 -0.2687
   82SAPS   H9Y 7718   0.780   2.929   9.636 -0.0214 -0.1950  1.5471
   82SAPS  C310 7719   0.855   2.878   9.438  0.2639 -0.1414 -1.1467
   82SAPS  H10X 7720   0.846   2.985   9.408 -2.1685  0.2476  0.7529
   82SAPS  H10Y 7721   0.764   2.829   9.397  0.7333 -0.8080 -1.4107
   82SAPS  C311 7722   0.977   2.814   9.370  0.8389  0.0621 -0.2530
   82SAPS  H11X 7723   1.015   2.721   9.417 -0.6611 -2.0242 -2.8962
   82SAPS  H11Y 7724   1.064   2.880   9.389 -0.2725  1.2593  0.9573
   82SAPS  C312 7725   0.937   2.775   9.229  0.5844  0.0484 -0.4667
   82SAPS  H12X 7726   0.902   2.869   9.181  2.4040  0.5821 -0.8214
   82SAPS  H12Y 7727   0.851   2.704   9.239  1.4134 -0.7644  1.3264
   82SAPS  C313 7728   1.044   2.725   9.137  0.1654  0.1571  0.5889
   82SAPS  H13X 7729   1.101   2.640   9.178 -0.1038 -0.7669 -0.8725
   82SAPS  H13Y 7730   1.125   2.801   9.133  1.1804 -0.9441 -1.1873
   82SAPS  C314 7731   1.003   2.698   8.994 -0.2198 -0.2859 -0.0434
   82SAPS  H14X 7732   1.091   2.715   8.928 -0.2983 -0.1391 -0.1103
   82SAPS  H14Y 7733   0.914   2.754   8.956 -0.3960 -1.0345 -0.7509
   82SAPS  C315 7734   0.946   2.559   8.989 -0.2722  0.5432 -0.0563
   82SAPS  H15X 7735   0.871   2.546   9.070  0.8361 -0.8780  0.8187
   82SAPS  H15Y 7736   1.028   2.486   9.009  0.6860  1.9427  1.3925
   82SAPS  C316 7737   0.892   2.523   8.851 -0.0372  0.1745  0.1320
   82SAPS  H16X 7738   0.984   2.500   8.793  1.1227 -0.4492  2.0866
   82SAPS  H16Y 7739   0.843   2.612   8.806 -0.8150 -0.9842 -1.3932
   82SAPS  C317 7740   0.807   2.396   8.854 -0.4729 -0.3072 -0.4783
   82SAPS  H17X 7741   0.769   2.374   8.752 -2.6568  2.7009 -0.4302
   82SAPS  H17Y 7742   0.724   2.422   8.924 -0.1933  0.2555 -0.3466
   82SAPS  C318 7743   0.884   2.278   8.918  0.0549 -0.4855 -0.4001
   82SAPS  H18X 7744   0.829   2.182   8.909 -1.1712  0.2686 -1.2000
   82SAPS  H18Y 7745   0.916   2.296   9.023  0.3660 -2.0508 -0.1971
   82SAPS  H18Z 7746   0.985   2.266   8.873 -0.2462 -1.8129 -0.7819
   83SAPS     N 7747   2.410   3.764  11.233 -0.2099  0.2914 -0.1701
   83SAPS   HN1 7748   2.389   3.667  11.263 -0.7777  0.3736 -0.2916
   83SAPS   HN2 7749   2.436   3.827  11.312  1.1266  0.3318 -0.6311
   83SAPS   HN3 7750   2.323   3.803  11.190 -1.1056 -0.9988  0.4312
   83SAPS   C12 7751   2.525   3.772  11.139  0.5762 -0.2715  0.0472
   83SAPS  H12A 7752   2.607   3.793  11.206  1.3045 -0.5748 -0.7329
   83SAPS   C13 7753   2.568   3.639  11.061  0.1751 -0.1021 -0.6957
   83SAPS  O13A 7754   2.510   3.533  11.079  0.5799  0.1134 -0.0639
   83SAPS  O13B 7755   2.660   3.650  10.979 -0.2620  0.6646  0.0128
   83SAPS   C11 7756   2.513   3.890  11.036  0.3426 -0.2286  0.6522
   83SAPS  H11A 7757   2.419   3.868  10.981  0.1010  0.5658  0.7443
   83SAPS  H11B 7758   2.599   3.889  10.966 -0.2437  0.6184 -0.1058
   83SAPS     P 7759   2.590   4.117  11.142 -0.1861 -0.1920 -0.0292
   83SAPS   O13 7760   2.530   4.204  11.247 -0.2708 -0.1684 -0.5368
   83SAPS   O14 7761   2.705   4.043  11.189 -0.6027  0.4562 -0.4575
   83SAPS   O12 7762   2.482   4.020  11.094 -0.3720  0.1059  0.2568
   83SAPS   O11 7763   2.629   4.207  11.016 -0.5328  0.3772 -0.4967
   83SAPS    C1 7764   2.541   4.320  10.982 -0.5778  0.3325 -0.6142
   83SAPS    HA 7765   2.441   4.316  11.032 -0.4658  1.0989 -0.3197
   83SAPS    HB 7766   2.590   4.410  11.023 -2.8539  1.5679 -0.4059
   83SAPS    C2 7767   2.544   4.333  10.827 -0.8139 -0.6569 -0.8974
   83SAPS    HS 7768   2.496   4.430  10.799  0.1046  0.1560  0.2306
   83SAPS   O21 7769   2.470   4.224  10.770 -0.2477  0.6615  0.4855
   83SAPS   C21 7770   2.343   4.221  10.796 -0.0980 -0.0393  0.0314
   83SAPS   O22 7771   2.274   4.312  10.847  0.0897  0.0906 -0.0025
   83SAPS   C22 7772   2.302   4.077  10.764  0.4232 -0.3473  0.2925
   83SAPS   H2R 7773   2.364   4.034  10.682 -0.8506 -0.4238 -0.6452
   83SAPS   H2S 7774   2.321   4.015  10.854 -1.6938 -1.1624  0.2356
   83SAPS    C3 7775   2.689   4.331  10.773  0.2777  0.4719 -0.2233
   83SAPS    HX 7776   2.746   4.240  10.802  0.1299  0.4949  0.1406
   83SAPS    HY 7777   2.751   4.409  10.821  0.8337 -0.5189  0.6923
   83SAPS   O31 7778   2.695   4.346  10.626  0.4526 -0.2497  0.0112
   83SAPS   C31 7779   2.687   4.235  10.549  0.1003  0.7421  0.9114
   83SAPS   O32 7780   2.675   4.122  10.585  0.4930  0.5077 -0.7767
   83SAPS   C32 7781   2.675   4.269  10.397  0.1324 -0.2170 -0.3387
   83SAPS   H2X 7782   2.698   4.377  10.391 -1.7473  0.5370  3.1888
   83SAPS   H2Y 7783   2.569   4.246  10.373  0.0290  0.4143 -0.4892
   83SAPS   C23 7784   2.154   4.075  10.714  0.2185  0.6875  0.1176
   83SAPS   H3R 7785   2.147   4.165  10.648 -0.3566  1.9647  1.8269
   83SAPS   H3S 7786   2.088   4.092  10.802 -0.7998  0.8488 -0.6672
   83SAPS   C24 7787   2.120   3.946  10.636  0.3498  0.1811 -0.1990
   83SAPS   H4R 7788   2.154   3.859  10.695  0.4373 -0.4652 -1.1755
   83SAPS   H4S 7789   2.186   3.957  10.547  0.5967  2.4047  0.1914
   83SAPS   C25 7790   1.969   3.935  10.603  0.9899 -0.2421  0.5435
   83SAPS   H5R 7791   1.904   3.952  10.690  1.0581 -0.6732  0.6762
   83SAPS   C26 7792   1.910   3.926  10.481  0.2033  0.0780 -0.1671
   83SAPS   H6R 7793   1.800   3.930  10.470  0.3430 -0.3281 -2.0296
   83SAPS   C27 7794   1.983   3.949  10.345  0.0154  0.7316 -0.6040
   83SAPS   H7R 7795   1.943   3.870  10.278  0.3003 -0.0754  0.1615
   83SAPS   H7S 7796   2.090   3.924  10.357 -0.2227 -0.2934 -0.5289
   83SAPS   C28 7797   1.963   4.076  10.270 -0.7697 -0.4323 -0.1268
   83SAPS   H8R 7798   1.992   4.167  10.324 -0.1740  1.0392 -2.7846
   83SAPS   C29 7799   1.935   4.096  10.140 -0.4133  0.5922 -0.0431
   83SAPS   H9R 7800   1.922   4.199  10.105  1.2872  0.9212  0.2433
   83SAPS  C210 7801   1.903   3.988  10.044 -0.3389 -0.2805 -0.0702
   83SAPS  H10R 7802   1.818   4.020   9.980 -0.3583 -1.2640 -0.5524
   83SAPS  H10S 7803   1.875   3.895  10.096  0.8169 -0.8602 -0.4394
   83SAPS  C211 7804   2.035   3.971   9.974 -0.4108  0.3535  0.1183
   83SAPS  H11R 7805   2.129   3.980  10.031  0.5164 -0.2063 -1.2672
   83SAPS  C212 7806   2.055   3.938   9.845 -0.3594 -0.3478  0.3866
   83SAPS  H12R 7807   2.161   3.916   9.823  0.0334  0.9987  0.7793
   83SAPS  C213 7808   1.954   3.936   9.733 -0.8976 -0.4722  0.2335
   83SAPS  H13R 7809   1.850   3.953   9.770 -2.0675 -1.0820 -2.4781
   83SAPS  H13S 7810   1.933   3.830   9.707  0.3070 -0.5070 -0.6593
   83SAPS  C214 7811   1.979   4.032   9.619  0.7639  0.1429  0.2938
   83SAPS  H14R 7812   2.000   4.135   9.650 -0.0664  0.2597  0.4809
   83SAPS  C215 7813   1.968   4.003   9.489 -0.2618  0.1939  0.2203
   83SAPS  H15R 7814   1.986   4.089   9.422  0.0558  0.8865  1.1737
   83SAPS  C216 7815   1.933   3.870   9.422  0.3345 -0.7632 -0.6116
   83SAPS  H16R 7816   1.857   3.889   9.343  0.8827  1.0107 -0.7579
   83SAPS  H16S 7817   1.883   3.800   9.492  1.0736 -0.5065  0.1973
   83SAPS  C217 7818   2.070   3.817   9.372  0.5456 -1.1011  0.1046
   83SAPS  H17R 7819   2.049   3.711   9.346 -0.6824 -0.3691 -2.1026
   83SAPS  H17S 7820   2.157   3.824   9.441  1.2923  0.3303 -0.9268
   83SAPS  C218 7821   2.112   3.887   9.238 -0.4105  0.1595 -0.2034
   83SAPS  H18R 7822   2.153   3.986   9.265 -0.1693  0.0135 -0.0290
   83SAPS  H18S 7823   2.022   3.908   9.177 -1.4844  1.1502  1.6360
   83SAPS  C219 7824   2.211   3.806   9.159 -0.5475 -0.2363 -0.3743
   83SAPS  H19R 7825   2.179   3.704   9.129 -1.3588 -0.3896  0.9477
   83SAPS  H19S 7826   2.314   3.802   9.201 -0.0026  0.9608 -1.5420
   83SAPS  C220 7827   2.247   3.865   9.026  0.5922  0.1609 -0.5235
   83SAPS  H20R 7828   2.293   3.967   9.032 -0.9104  0.8013  0.8194
   83SAPS  H20S 7829   2.152   3.886   8.973 -1.1714 -0.0028  2.3621
   83SAPS  H20T 7830   2.305   3.793   8.964  1.6992 -1.0618  1.8098
   83SAPS   C33 7831   2.784   4.182  10.321 -0.2019  0.3851  0.7872
   83SAPS   H3X 7832   2.768   4.073  10.339  2.0458 -0.2759 -0.8309
   83SAPS   H3Y 7833   2.884   4.195  10.365  0.2168 -0.8592  0.2570
   83SAPS   C34 7834   2.793   4.201  10.168  0.9502 -0.3870  0.2827
   83SAPS   H4X 7835   2.867   4.128  10.130  1.9181  0.2987  0.8128
   83SAPS   H4Y 7836   2.839   4.299  10.143 -1.1364  0.3265 -1.0589
   83SAPS   C35 7837   2.652   4.203  10.097 -0.2902 -0.0210 -0.5183
   83SAPS   H5X 7838   2.580   4.265  10.155 -0.1494 -0.7086  0.4127
   83SAPS   H5Y 7839   2.609   4.103  10.115  1.4760 -0.6456  0.5057
   83SAPS   C36 7840   2.670   4.239   9.949 -0.0072 -0.3797  0.2178
   83SAPS   H6X 7841   2.708   4.343   9.949 -0.6166 -0.1289  1.3928
   83SAPS   H6Y 7842   2.568   4.244   9.906  0.5981  1.2846 -1.1330
   83SAPS   C37 7843   2.760   4.151   9.864  0.1864  1.0706 -0.6963
   83SAPS   H7X 7844   2.765   4.047   9.902  0.1377  0.7458 -1.5562
   83SAPS   H7Y 7845   2.863   4.194   9.868  0.6103  0.0729 -0.4729
   83SAPS   C38 7846   2.712   4.146   9.713 -0.3742 -0.0478 -0.5211
   83SAPS   H8X 7847   2.691   4.252   9.688 -1.2406 -0.0388  0.1839
   83SAPS   H8Y 7848   2.617   4.087   9.710  0.5511 -1.7539  1.1897
   83SAPS   C39 7849   2.813   4.082   9.623 -0.0191 -0.1882 -0.0690
   83SAPS   H9X 7850   2.839   3.975   9.641  1.3823  0.1202 -0.0953
   83SAPS   H9Y 7851   2.905   4.144   9.630 -0.8032  1.0214 -0.2378
   83SAPS  C310 7852   2.772   4.089   9.475 -0.7654 -0.6298 -0.3403
   83SAPS  H10X 7853   2.865   4.066   9.418 -0.0782  1.5337 -0.1699
   83SAPS  H10Y 7854   2.755   4.194   9.444  1.9749 -0.5137 -1.7346
   83SAPS  C311 7855   2.654   3.996   9.434  0.2387 -0.0829 -0.1501
   83SAPS  H11X 7856   2.565   4.050   9.471 -0.2487  0.4612 -2.0453
   83SAPS  H11Y 7857   2.668   3.901   9.491 -2.3654 -0.2704  0.2894
   83SAPS  C312 7858   2.645   3.965   9.288 -0.3049 -0.0086  0.0486
   83SAPS  H12X 7859   2.550   3.907   9.283 -0.3582 -0.0424  1.1448
   83SAPS  H12Y 7860   2.736   3.910   9.254 -0.3124 -0.4165  0.6636
   83SAPS  C313 7861   2.615   4.101   9.204 -0.3810  0.6242 -0.0607
   83SAPS  H13X 7862   2.697   4.176   9.214 -0.9559  1.5570 -1.8853
   83SAPS  H13Y 7863   2.523   4.144   9.249 -0.9585 -1.0826  0.4587
   83SAPS  C314 7864   2.601   4.067   9.059 -0.8861 -0.0229  1.4628
   83SAPS  H14X 7865   2.543   4.147   9.006  1.5754  0.2636 -1.0636
   83SAPS  H14Y 7866   2.554   3.968   9.041  1.4208 -1.1315  1.1521
   83SAPS  C315 7867   2.736   4.070   8.978  0.0416  0.0451  0.8060
   83SAPS  H15X 7868   2.809   4.008   9.034  1.8795  1.8384  0.4972
   83SAPS  H15Y 7869   2.781   4.171   8.979  3.6137 -1.2756 -2.1837
   83SAPS  C316 7870   2.731   4.034   8.828 -0.1565 -0.6511  0.2284
   83SAPS  H16X 7871   2.697   4.112   8.757  0.7892 -1.1120 -0.7585
   83SAPS  H16Y 7872   2.671   3.943   8.807 -0.5183 -0.5941  0.9788
   83SAPS  C317 7873   2.874   3.998   8.775 -0.4282 -0.0017  0.3230
   83SAPS  H17X 7874   2.943   4.083   8.794  1.2987 -0.9386 -1.3924
   83SAPS  H17Y 7875   2.869   4.012   8.665  2.2235  0.2769  0.1675
   83SAPS  C318 7876   2.941   3.872   8.829 -0.0993 -0.2334 -0.8353
   83SAPS  H18X 7877   2.921   3.861   8.938  1.6485  0.9613 -0.3537
   83SAPS  H18Y 7878   3.051   3.867   8.814  0.1918  0.4405  0.8339
   83SAPS  H18Z 7879   2.903   3.779   8.781 -1.7838  0.0587 -0.1383
   84SAPS     N 7880   3.966   3.644  10.928  0.6074 -0.4435 -0.4744
   84SAPS   HN1 7881   3.883   3.684  10.878 -0.4455  0.8771  2.1636
   84SAPS   HN2 7882   4.041   3.685  10.869  0.5745  0.1802 -0.1010
   84SAPS   HN3 7883   3.968   3.540  10.928  0.7301 -0.4411 -0.6018
   84SAPS   C12 7884   3.979   3.719  11.060  0.0016 -0.5123  0.1697
   84SAPS  H12A 7885   3.957   3.824  11.056  0.0409 -0.4713  0.9457
   84SAPS   C13 7886   3.877   3.661  11.164 -0.0676 -0.4446 -0.8021
   84SAPS  O13A 7887   3.796   3.564  11.139 -0.8404  0.6313  0.4128
   84SAPS  O13B 7888   3.896   3.707  11.279  0.3382  0.4156  0.2744
   84SAPS   C11 7889   4.120   3.704  11.115  0.6259  0.9496  0.2580
   84SAPS  H11A 7890   4.144   3.601  11.148 -3.7627 -0.4814 -0.4310
   84SAPS  H11B 7891   4.127   3.780  11.196  0.5253  1.0392  0.1829
   84SAPS     P 7892   4.352   3.748  11.026 -0.1470 -0.1526 -0.0567
   84SAPS   O13 7893   4.426   3.820  10.920 -0.5491  0.3721  0.0536
   84SAPS   O14 7894   4.384   3.790  11.165 -0.2158 -0.0259  0.2050
   84SAPS   O12 7895   4.201   3.757  11.006 -0.2750 -0.0159  0.0776
   84SAPS   O11 7896   4.371   3.596  11.018  0.2922  0.2999 -0.4604
   84SAPS    C1 7897   4.322   3.506  10.920  0.0931  0.0447  0.1856
   84SAPS    HA 7898   4.327   3.406  10.969 -0.6779 -1.0459 -1.8470
   84SAPS    HB 7899   4.219   3.534  10.891 -0.4574  1.4924  3.1287
   84SAPS    C2 7900   4.393   3.495  10.781 -0.3402  0.2918 -0.4298
   84SAPS    HS 7901   4.502   3.490  10.801  0.1982  2.3410 -2.3498
   84SAPS   O21 7902   4.362   3.609  10.703  0.5686  0.4144 -0.2280
   84SAPS   C21 7903   4.453   3.664  10.626 -1.0799  0.0335  0.4051
   84SAPS   O22 7904   4.562   3.611  10.598  0.1668  0.6831 -0.2788
   84SAPS   C22 7905   4.418   3.800  10.565  0.2886  0.4265 -0.3264
   84SAPS   H2R 7906   4.388   3.863  10.651 -1.5870  1.0106 -1.3553
   84SAPS   H2S 7907   4.505   3.835  10.506  1.7988 -1.0801  0.8831
   84SAPS    C3 7908   4.351   3.374  10.697 -1.0942  0.2102  0.0352
   84SAPS    HX 7909   4.382   3.287  10.760  2.0443  1.6682  0.6950
   84SAPS    HY 7910   4.408   3.361  10.603  0.7422  3.0172  0.6270
   84SAPS   O31 7911   4.208   3.370  10.694 -0.2916 -0.3796 -0.5228
   84SAPS   C31 7912   4.158   3.383  10.572 -0.1126 -0.1405  0.4173
   84SAPS   O32 7913   4.224   3.370  10.471 -0.2209  0.1865 -0.3178
   84SAPS   C32 7914   4.010   3.434  10.573  0.5734  0.0567 -0.1185
   84SAPS   H2X 7915   3.995   3.515  10.648  2.2535  1.2339 -0.9787
   84SAPS   H2Y 7916   3.941   3.356  10.610  0.4164  0.9717  1.6273
   84SAPS   C23 7917   4.303   3.782  10.462 -0.2634 -0.5807 -0.1332
   84SAPS   H3R 7918   4.253   3.880  10.446 -2.9317 -1.6026  1.3702
   84SAPS   H3S 7919   4.228   3.708  10.496 -2.0944  0.5887 -1.4378
   84SAPS   C24 7920   4.352   3.720  10.323 -0.2702 -0.4501  0.0014
   84SAPS   H4R 7921   4.380   3.616  10.350  0.3159 -0.2990  0.0016
   84SAPS   H4S 7922   4.444   3.770  10.286 -1.0230  0.2122 -1.0287
   84SAPS   C25 7923   4.251   3.714  10.209 -0.3938  0.0139 -0.4526
   84SAPS   H5R 7924   4.212   3.616  10.178 -0.5897 -0.9997  2.6768
   84SAPS   C26 7925   4.210   3.828  10.147  0.0476 -0.2419 -0.4158
   84SAPS   H6R 7926   4.139   3.819  10.063 -0.2961  0.4545 -0.2056
   84SAPS   C27 7927   4.269   3.961  10.173  0.7210 -0.6772  0.2817
   84SAPS   H7R 7928   4.356   3.967  10.105  1.2239 -0.6770  0.9167
   84SAPS   H7S 7929   4.321   3.968  10.271  0.0505  2.6660  0.5025
   84SAPS   C28 7930   4.164   4.072  10.144  0.4412 -0.4912  0.2760
   84SAPS   H8R 7931   4.124   4.127  10.230  2.5866  2.9292 -0.7099
   84SAPS   C29 7932   4.110   4.105  10.023 -0.6285 -0.6780  0.0389
   84SAPS   H9R 7933   4.034   4.184  10.020 -1.1150 -1.1394  0.1523
   84SAPS  C210 7934   4.142   4.045   9.887  0.7642 -0.2056 -0.0654
   84SAPS  H10R 7935   4.237   3.988   9.893  1.0891  0.3417  0.0811
   84SAPS  H10S 7936   4.163   4.124   9.811 -2.2905 -0.4503 -1.3019
   84SAPS  C211 7937   4.031   3.954   9.831 -0.2709  0.1638  0.5843
   84SAPS  H11R 7938   3.981   3.897   9.910 -0.9857 -1.2419 -0.8229
   84SAPS  C212 7939   3.995   3.936   9.704  0.0779 -0.3204  0.1431
   84SAPS  H12R 7940   3.908   3.870   9.691 -2.1065  2.4123 -0.0648
   84SAPS  C213 7941   4.051   4.009   9.584  0.4332  0.0480 -0.5940
   84SAPS  H13R 7942   4.015   3.949   9.498 -3.3616  1.4442 -0.1894
   84SAPS  H13S 7943   4.162   4.018   9.591  0.2277  2.1386  1.7550
   84SAPS  C214 7944   4.010   4.155   9.569  0.6327  0.3163 -0.1675
   84SAPS  H14R 7945   3.963   4.196   9.660  1.4286  0.7412  0.0604
   84SAPS  C215 7946   4.025   4.232   9.461  0.0177 -0.1584 -0.6340
   84SAPS  H15R 7947   3.975   4.329   9.466 -1.5517 -0.9862  1.5787
   84SAPS  C216 7948   4.076   4.176   9.331  0.3715 -0.0588  0.1914
   84SAPS  H16R 7949   4.087   4.066   9.330  1.4350  0.0228  0.9770
   84SAPS  H16S 7950   4.181   4.210   9.315  0.5255 -1.6511 -2.9506
   84SAPS  C217 7951   4.011   4.238   9.208  0.1178  0.2183 -0.0864
   84SAPS  H17R 7952   4.012   4.349   9.204 -1.5180  0.2425 -0.7108
   84SAPS  H17S 7953   3.908   4.208   9.180 -0.2105  2.1058 -1.1008
   84SAPS  C218 7954   4.099   4.198   9.089  0.1656 -0.1250 -0.1036
   84SAPS  H18R 7955   4.118   4.090   9.070  2.0964  0.3130 -0.9193
   84SAPS  H18S 7956   4.200   4.240   9.113 -0.1479  0.6627 -0.1310
   84SAPS  C219 7957   4.053   4.259   8.950  0.6629  0.3433  0.3828
   84SAPS  H19R 7958   4.137   4.235   8.882 -0.1581 -0.2145 -0.4613
   84SAPS  H19S 7959   4.052   4.370   8.956 -1.0038  0.3548  0.3435
   84SAPS  C220 7960   3.916   4.216   8.882  0.5598  0.6602 -0.1460
   84SAPS  H20R 7961   3.888   4.288   8.803 -0.3198  1.3525  0.7716
   84SAPS  H20S 7962   3.837   4.218   8.960 -0.4504  2.5558 -1.1424
   84SAPS  H20T 7963   3.917   4.115   8.835 -0.1408  1.2599 -1.4758
   84SAPS   C33 7964   3.967   3.493  10.430  0.0491  0.3372 -0.4683
   84SAPS   H3X 7965   4.038   3.567  10.389  1.7416 -1.3849 -0.8030
   84SAPS   H3Y 7966   3.865   3.532  10.448  0.4553  0.0753  3.3964
   84SAPS   C34 7967   3.958   3.386  10.322 -0.1841 -0.2337 -0.6572
   84SAPS   H4X 7968   3.884   3.308  10.351 -0.9212  0.4784 -0.6126
   84SAPS   H4Y 7969   4.056   3.333  10.319 -0.5682 -1.0609  0.5572
   84SAPS   C35 7970   3.900   3.437  10.187 -0.2980 -0.7969  0.1028
   84SAPS   H5X 7971   3.952   3.535  10.174  0.8389 -1.3781  0.1477
   84SAPS   H5Y 7972   3.799   3.468  10.221 -0.1479  0.5045 -0.5547
   84SAPS   C36 7973   3.912   3.341  10.073 -0.0745 -0.7127  0.4521
   84SAPS   H6X 7974   3.851   3.248  10.084 -1.1976 -0.1478 -0.6987
   84SAPS   H6Y 7975   4.018   3.308  10.071 -0.8370 -3.9346  3.2060
   84SAPS   C37 7976   3.870   3.419   9.950  0.8764  0.3356 -0.2846
   84SAPS   H7X 7977   3.933   3.509   9.935  1.7195 -0.1857  0.0682
   84SAPS   H7Y 7978   3.769   3.457   9.978  0.1625 -1.0684 -0.8442
   84SAPS   C38 7979   3.876   3.333   9.821  0.1605 -0.4630  0.4443
   84SAPS   H8X 7980   3.813   3.242   9.823  0.3227 -0.6476 -1.4312
   84SAPS   H8Y 7981   3.981   3.297   9.824 -0.0101 -1.1862 -1.2450
   84SAPS   C39 7982   3.840   3.420   9.699  0.5279 -0.7515  0.4158
   84SAPS   H9X 7983   3.906   3.509   9.699 -0.2190 -0.1501  1.9883
   84SAPS   H9Y 7984   3.734   3.450   9.712  0.1003 -0.8424 -2.2914
   84SAPS  C310 7985   3.858   3.340   9.568  0.6133 -0.2048 -0.4957
   84SAPS  H10X 7986   3.800   3.245   9.569  1.1233 -0.5185  0.0127
   84SAPS  H10Y 7987   3.965   3.309   9.563  1.0997  1.5065 -1.5006
   84SAPS  C311 7988   3.831   3.428   9.447 -0.2606  0.2866 -0.0899
   84SAPS  H11X 7989   3.914   3.502   9.441  0.1402 -0.2283 -1.2887
   84SAPS  H11Y 7990   3.728   3.466   9.455 -0.3799 -0.0388 -0.0653
   84SAPS  C312 7991   3.842   3.350   9.314  0.8688  0.1064  0.0480
   84SAPS  H12X 7992   3.808   3.245   9.327  1.1260 -0.1096 -0.9163
   84SAPS  H12Y 7993   3.951   3.343   9.296  0.9399 -0.7299  0.7393
   84SAPS  C313 7994   3.758   3.414   9.204  0.5114  0.1840  0.3032
   84SAPS  H13X 7995   3.798   3.377   9.107 -0.0614 -0.6600  0.3775
   84SAPS  H13Y 7996   3.783   3.522   9.201 -0.4618  0.4275  0.5039
   84SAPS  C314 7997   3.610   3.384   9.194  0.6228  0.2727 -0.2528
   84SAPS  H14X 7998   3.571   3.406   9.297  1.0045 -0.3586  0.0291
   84SAPS  H14Y 7999   3.594   3.279   9.163 -0.0357  0.2694  0.0762
   84SAPS  C315 8000   3.535   3.475   9.097 -0.2382 -0.1030 -0.3302
   84SAPS  H15X 8001   3.587   3.473   8.999 -0.8176  0.2122 -0.6469
   84SAPS  H15Y 8002   3.555   3.578   9.134  2.4083  0.0300 -1.8888
   84SAPS  C316 8003   3.390   3.437   9.085 -0.6314  0.4235  0.6873
   84SAPS  H16X 8004   3.336   3.471   9.176 -0.8880 -0.6706  0.9519
   84SAPS  H16Y 8005   3.385   3.327   9.070  1.1269  0.3904  0.1849
   84SAPS  C317 8006   3.317   3.515   8.971  0.4514  0.0959 -0.6398
   84SAPS  H17X 8007   3.331   3.454   8.879  1.7133 -3.4346  1.6792
   84SAPS  H17Y 8008   3.366   3.612   8.948 -0.7506  0.3395 -2.3993
   84SAPS  C318 8009   3.174   3.541   9.009  0.0465 -0.0308 -0.0976
   84SAPS  H18X 8010   3.132   3.602   8.927 -1.5963  0.2074  0.8825
   84SAPS  H18Y 8011   3.163   3.596   9.105 -0.6061 -2.7120  1.4694
   84SAPS  H18Z 8012   3.120   3.446   9.031 -1.8804  0.8111 -0.9543
   85SAPS     N 8013   0.835   5.690  11.326  0.0545  0.0333  0.0748
   85SAPS   HN1 8014   0.886   5.697  11.417  0.6408 -0.6127 -0.1972
   85SAPS   HN2 8015   0.884   5.754  11.261 -0.3230  1.4319  1.1161
   85SAPS   HN3 8016   0.732   5.700  11.336 -0.3905 -1.1258 -2.6313
   85SAPS   C12 8017   0.856   5.548  11.282  0.6751 -0.0923  0.2994
   85SAPS  H12A 8018   0.963   5.535  11.279  1.0201  2.4465 -1.3021
   85SAPS   C13 8019   0.793   5.433  11.363  0.0894 -0.0167  0.0611
   85SAPS  O13A 8020   0.739   5.465  11.472  0.0221  0.4249 -0.1151
   85SAPS  O13B 8021   0.817   5.312  11.329  0.8211 -0.2861  0.0729
   85SAPS   C11 8022   0.810   5.541  11.131  0.3974  0.0657 -0.5157
   85SAPS  H11A 8023   0.704   5.571  11.124 -0.0722 -1.2837  0.4472
   85SAPS  H11B 8024   0.823   5.434  11.103 -0.2436 -0.6253  1.6662
   85SAPS     P 8025   1.008   5.589  10.962 -0.1463 -0.5706 -0.3544
   85SAPS   O13 8026   1.086   5.710  10.918 -0.1993  0.2642 -0.6356
   85SAPS   O14 8027   1.084   5.481  11.032 -0.1890 -0.2055 -0.2795
   85SAPS   O12 8028   0.890   5.635  11.056  0.1706 -0.6326 -0.5248
   85SAPS   O11 8029   0.920   5.530  10.842 -0.0961 -0.3478 -0.4592
   85SAPS    C1 8030   0.880   5.591  10.728  0.4521 -0.8252  0.3205
   85SAPS    HA 8031   0.771   5.577  10.714  0.1745 -1.0087  2.4421
   85SAPS    HB 8032   0.905   5.699  10.713 -1.5132 -0.5005 -1.0970
   85SAPS    C2 8033   0.936   5.524  10.601  0.2289 -0.6455 -0.3877
   85SAPS    HS 8034   1.044   5.549  10.588  0.0270  0.7628  0.4319
   85SAPS   O21 8035   0.858   5.556  10.492 -0.2777 -0.7023  0.0271
   85SAPS   C21 8036   0.889   5.674  10.443  0.5226  0.4481  0.4395
   85SAPS   O22 8037   0.977   5.751  10.478  0.4366  0.3764 -0.7649
   85SAPS   C22 8038   0.799   5.703  10.327 -0.4081 -0.4391 -0.4954
   85SAPS   H2R 8039   0.755   5.609  10.287  1.7357 -1.7724  0.1361
   85SAPS   H2S 8040   0.720   5.768  10.371 -0.8372  0.6257 -2.6775
   85SAPS    C3 8041   0.925   5.365  10.619  0.3504  0.0461 -0.2483
   85SAPS    HX 8042   0.820   5.331  10.612  1.2846 -3.3732  0.7232
   85SAPS    HY 8043   0.952   5.337  10.723 -3.9329 -4.4943 -0.0233
   85SAPS   O31 8044   1.002   5.305  10.517  0.2809 -0.3461  0.0672
   85SAPS   C31 8045   1.122   5.278  10.546  0.4014  0.3424 -0.2620
   85SAPS   O32 8046   1.176   5.277  10.657 -0.5054 -0.5439  0.1077
   85SAPS   C32 8047   1.192   5.247  10.417  0.1522 -1.1785  0.4392
   85SAPS   H2X 8048   1.142   5.164  10.362 -1.5529 -0.1575  0.3714
   85SAPS   H2Y 8049   1.300   5.223  10.432  1.0774  0.9306 -2.1223
   85SAPS   C23 8050   0.875   5.785  10.212  0.1824  0.2612 -0.0144
   85SAPS   H3R 8051   0.888   5.890  10.246 -1.6156  1.0103 -1.4295
   85SAPS   H3S 8052   0.798   5.791  10.132  0.4663 -0.5054 -0.3515
   85SAPS   C24 8053   1.006   5.722  10.165 -0.0032 -0.1906  0.1525
   85SAPS   H4R 8054   1.060   5.697  10.259 -0.8992 -0.1418  0.6895
   85SAPS   H4S 8055   1.059   5.800  10.106  0.2591 -0.6547 -0.2394
   85SAPS   C25 8056   0.974   5.594  10.090 -0.1181 -0.6435 -0.0596
   85SAPS   H5R 8057   0.951   5.503  10.147 -0.2781  0.0101  0.9373
   85SAPS   C26 8058   0.992   5.559   9.969 -0.4915 -0.7474 -0.2627
   85SAPS   H6R 8059   0.971   5.455   9.942 -0.1281 -1.0679  0.6287
   85SAPS   C27 8060   1.028   5.650   9.854  0.2397  0.3455 -0.0657
   85SAPS   H7R 8061   1.096   5.598   9.783 -1.0407  0.8779 -1.7315
   85SAPS   H7S 8062   1.093   5.734   9.888 -1.0364  0.6396  1.7636
   85SAPS   C28 8063   0.903   5.691   9.783 -0.5430  0.2499  0.1925
   85SAPS   H8R 8064   0.836   5.752   9.845 -3.3123 -2.0558 -0.2936
   85SAPS   C29 8065   0.861   5.660   9.659 -0.2520 -0.0332 -0.0031
   85SAPS   H9R 8066   0.757   5.675   9.629 -1.3013 -0.1189  3.1849
   85SAPS  C210 8067   0.956   5.592   9.556  0.2079 -0.0150  0.8776
   85SAPS  H10R 8068   0.909   5.495   9.527 -1.7734  1.4547 -1.1416
   85SAPS  H10S 8069   1.059   5.577   9.594  1.4851  0.3254 -2.1650
   85SAPS  C211 8070   0.971   5.679   9.433 -0.6930 -0.5232 -0.4111
   85SAPS  H11R 8071   0.978   5.786   9.456  0.5025 -0.3510 -1.4914
   85SAPS  C212 8072   0.969   5.638   9.307  0.3027 -0.5469  0.0111
   85SAPS  H12R 8073   0.974   5.714   9.228  0.8429  0.2900  0.8306
   85SAPS  C213 8074   0.947   5.498   9.257  0.1506 -0.3122 -0.1886
   85SAPS  H13R 8075   0.926   5.416   9.330 -1.3885 -0.9107 -1.2504
   85SAPS  H13S 8076   1.044   5.476   9.208 -0.1228  0.2369 -0.9802
   85SAPS  C214 8077   0.844   5.499   9.151  0.2759 -0.1150 -0.9042
   85SAPS  H14R 8078   0.739   5.491   9.184 -0.1378 -0.3843 -2.1989
   85SAPS  C215 8079   0.866   5.510   9.018 -0.2408  0.3548  0.4355
   85SAPS  H15R 8080   0.778   5.502   8.953 -0.0278 -0.8655  0.2727
   85SAPS  C216 8081   0.999   5.514   8.945  0.2766 -0.3997  0.0549
   85SAPS  H16R 8082   1.064   5.436   8.991 -0.8134 -0.1248  2.1955
   85SAPS  H16S 8083   1.039   5.617   8.954 -2.3431  0.8241 -1.1889
   85SAPS  C217 8084   0.974   5.467   8.802 -0.3904 -0.1741  0.0393
   85SAPS  H17R 8085   0.891   5.526   8.757 -0.9312  0.0588  1.2758
   85SAPS  H17S 8086   0.943   5.360   8.814  0.1942 -0.2983  0.4629
   85SAPS  C218 8087   1.092   5.490   8.713 -0.6276 -0.1937  0.6644
   85SAPS  H18R 8088   1.105   5.393   8.662  4.2226 -0.2334  1.5037
   85SAPS  H18S 8089   1.193   5.500   8.757  0.3561 -0.3885 -1.4455
   85SAPS  C219 8090   1.068   5.602   8.613 -0.2534 -0.1595 -0.2860
   85SAPS  H19R 8091   0.969   5.591   8.563 -1.4381  0.5104  1.8080
   85SAPS  H19S 8092   1.146   5.593   8.535 -0.7333 -2.0009 -0.6177
   85SAPS  C220 8093   1.069   5.744   8.676  0.1232  0.0200  0.0385
   85SAPS  H20R 8094   1.034   5.822   8.605  3.1560  0.7372 -0.7935
   85SAPS  H20S 8095   1.173   5.767   8.707 -0.3858  0.6952  1.3099
   85SAPS  H20T 8096   1.000   5.741   8.763  1.5918 -0.1062  1.2362
   85SAPS   C33 8097   1.181   5.378  10.331 -0.1894  0.3097  0.0102
   85SAPS   H3X 8098   1.207   5.463  10.398 -2.0179  1.3733 -0.5708
   85SAPS   H3Y 8099   1.077   5.400  10.300  0.2829 -0.2693 -2.0795
   85SAPS   C34 8100   1.260   5.364  10.198  0.2222  0.1599  0.1256
   85SAPS   H4X 8101   1.370   5.360  10.210  0.4375  4.0308  0.9953
   85SAPS   H4Y 8102   1.248   5.456  10.137  0.1156  0.6155  0.8094
   85SAPS   C35 8103   1.222   5.245  10.109 -0.4576 -0.1697  0.4702
   85SAPS   H5X 8104   1.111   5.246  10.103 -0.4512  2.5538 -0.1168
   85SAPS   H5Y 8105   1.272   5.155  10.151  0.8365  0.6312  0.6902
   85SAPS   C36 8106   1.269   5.266   9.971  0.2963 -1.1846 -0.5289
   85SAPS   H6X 8107   1.380   5.270   9.966  0.4434 -3.5252 -0.1328
   85SAPS   H6Y 8108   1.231   5.356   9.918  2.4164 -0.9004 -1.6946
   85SAPS   C37 8109   1.225   5.137   9.888  0.5689 -0.6508  0.9688
   85SAPS   H7X 8110   1.118   5.109   9.898  0.1717 -0.4601 -1.9147
   85SAPS   H7Y 8111   1.278   5.049   9.932  0.6019 -0.0890  2.0983
   85SAPS   C38 8112   1.275   5.139   9.746  0.1781 -1.2157 -0.6713
   85SAPS   H8X 8113   1.237   5.046   9.700 -1.8573 -1.0721  0.6185
   85SAPS   H8Y 8114   1.386   5.147   9.740  0.2139 -1.7551 -0.7980
   85SAPS   C39 8115   1.208   5.255   9.668  0.4477  0.4291 -0.7137
   85SAPS   H9X 8116   1.265   5.344   9.700  0.6207  1.0167 -2.5611
   85SAPS   H9Y 8117   1.104   5.265   9.707  0.5874 -1.1707  0.2012
   85SAPS  C310 8118   1.226   5.242   9.522  0.3212 -0.0505 -0.5478
   85SAPS  H10X 8119   1.316   5.183   9.493  0.6556  1.3705 -2.5924
   85SAPS  H10Y 8120   1.249   5.341   9.477  1.7266  0.8176  1.9375
   85SAPS  C311 8121   1.101   5.186   9.450 -0.3704  0.0787  0.1408
   85SAPS  H11X 8122   1.020   5.262   9.449  0.9083  1.6291 -2.8652
   85SAPS  H11Y 8123   1.064   5.087   9.481  0.1297 -0.5606 -1.1901
   85SAPS  C312 8124   1.130   5.167   9.299  0.4197 -1.0291  0.6945
   85SAPS  H12X 8125   1.216   5.097   9.305  1.6701  0.6070  3.7824
   85SAPS  H12Y 8126   1.175   5.264   9.269 -0.1868 -1.2937 -1.2362
   85SAPS  C313 8127   1.013   5.125   9.210  0.0660  0.0918 -0.1799
   85SAPS  H13X 8128   0.925   5.190   9.233  0.4249  0.3069  0.6340
   85SAPS  H13Y 8129   0.996   5.022   9.249  3.1861 -0.3169  0.3152
   85SAPS  C314 8130   1.046   5.132   9.054 -0.1379  0.0952  0.4870
   85SAPS  H14X 8131   1.075   5.235   9.026 -2.0399  1.1962  2.3094
   85SAPS  H14Y 8132   0.947   5.113   9.008 -0.1706 -0.8785  0.9241
   85SAPS  C315 8133   1.144   5.020   9.015 -0.3336 -0.5362  0.2958
   85SAPS  H15X 8134   1.102   4.920   9.041 -0.1300 -0.0571  2.6226
   85SAPS  H15Y 8135   1.236   5.033   9.075 -0.9931 -0.9598  1.4453
   85SAPS  C316 8136   1.166   5.020   8.862 -0.4496  0.3186  0.0740
   85SAPS  H16X 8137   1.255   4.954   8.849  0.9810  1.8114  1.7762
   85SAPS  H16Y 8138   1.198   5.122   8.832  1.6463  0.1496  1.5438
   85SAPS  C317 8139   1.051   4.958   8.785  0.5585 -0.5759  1.1355
   85SAPS  H17X 8140   0.971   5.035   8.789  0.2965 -0.6387 -1.1715
   85SAPS  H17Y 8141   1.007   4.864   8.826 -1.3511 -0.5198 -0.5893
   85SAPS  C318 8142   1.083   4.941   8.631  0.1935  0.3812 -0.4322
   85SAPS  H18X 8143   1.182   4.892   8.628  0.1157  0.2799 -1.7384
   85SAPS  H18Y 8144   1.096   5.034   8.573 -0.2206 -0.4068 -1.8320
   85SAPS  H18Z 8145   1.011   4.872   8.582  0.7768 -1.2088  0.8551
   86SAPS     N 8146   2.518   5.288  10.839 -0.4774  0.3072  0.0338
   86SAPS   HN1 8147   2.592   5.215  10.831  0.0384  0.8954 -0.7357
   86SAPS   HN2 8148   2.477   5.283  10.934 -0.2284 -2.3429  0.0890
   86SAPS   HN3 8149   2.439   5.267  10.774 -2.1149  1.6989  1.4850
   86SAPS   C12 8150   2.579   5.423  10.792 -0.2736  0.2729 -0.7228
   86SAPS  H12A 8151   2.580   5.407  10.685 -1.4140  1.0013 -0.8625
   86SAPS   C13 8152   2.483   5.539  10.821  0.4211  0.5594  0.4517
   86SAPS  O13A 8153   2.363   5.504  10.849 -0.1054  0.0797  0.6315
   86SAPS  O13B 8154   2.519   5.653  10.783  0.9022 -0.5878  0.4046
   86SAPS   C11 8155   2.716   5.447  10.848 -0.0676  0.5178 -0.6360
   86SAPS  H11A 8156   2.691   5.458  10.956  0.5067  0.6953 -0.5201
   86SAPS  H11B 8157   2.767   5.542  10.823  0.5765  0.2293 -0.4499
   86SAPS     P 8158   2.952   5.352  10.880 -0.0609  0.1522 -0.0484
   86SAPS   O13 8159   2.964   5.452  10.989  0.5673  0.0960  0.4787
   86SAPS   O14 8160   2.991   5.220  10.933  0.6436 -0.2824  0.0626
   86SAPS   O12 8161   2.805   5.339  10.822  0.4617  0.0033  0.0346
   86SAPS   O11 8162   3.036   5.389  10.752 -0.1776  0.0305  0.1167
   86SAPS    C1 8163   3.066   5.530  10.731 -0.6152 -0.1249 -0.5563
   86SAPS    HA 8164   2.981   5.598  10.750 -0.5551 -0.0843 -0.4345
   86SAPS    HB 8165   3.135   5.561  10.812 -1.8567  0.8456  0.1761
   86SAPS    C2 8166   3.131   5.548  10.591 -0.6491 -0.2706  0.8763
   86SAPS    HS 8167   3.156   5.654  10.567  0.9321 -1.2302 -2.4262
   86SAPS   O21 8168   3.047   5.486  10.498  0.2534 -0.3642 -0.5518
   86SAPS   C21 8169   2.940   5.554  10.473  0.3944 -1.0317  0.7383
   86SAPS   O22 8170   2.905   5.656  10.529  0.1107 -0.0333 -0.2538
   86SAPS   C22 8171   2.871   5.496  10.346 -0.7365  0.2820 -0.1397
   86SAPS   H2R 8172   2.944   5.501  10.262 -1.0655  0.9913 -0.3878
   86SAPS   H2S 8173   2.838   5.394  10.375 -1.7314  1.1331  1.9141
   86SAPS    C3 8174   3.281   5.490  10.589  0.1236 -0.4986  0.1035
   86SAPS    HX 8175   3.286   5.380  10.598  1.6391 -0.4330  0.3882
   86SAPS    HY 8176   3.316   5.518  10.691 -0.1659 -0.8467  0.2986
   86SAPS   O31 8177   3.357   5.541  10.475  0.7446 -0.0642  0.1857
   86SAPS   C31 8178   3.351   5.452  10.373  0.4012  0.7528  0.0955
   86SAPS   O32 8179   3.274   5.360  10.365  0.1119  0.0181  0.6774
   86SAPS   C32 8180   3.451   5.489  10.261 -0.5074 -0.3477 -0.3230
   86SAPS   H2X 8181   3.553   5.471  10.302 -0.9201 -0.5833  0.6351
   86SAPS   H2Y 8182   3.431   5.596  10.243  0.3994 -0.1155  0.0138
   86SAPS   C23 8183   2.754   5.576  10.287 -0.3482  0.1540  0.3386
   86SAPS   H3R 8184   2.754   5.565  10.177 -2.0774  0.4479  0.2776
   86SAPS   H3S 8185   2.771   5.685  10.298 -1.9431  0.3647  0.9586
   86SAPS   C24 8186   2.615   5.569  10.360 -0.6560 -0.2676 -0.3564
   86SAPS   H4R 8187   2.558   5.650  10.311 -2.5001 -1.5555 -0.4248
   86SAPS   H4S 8188   2.616   5.603  10.466  0.1092  1.0736 -0.7590
   86SAPS   C25 8189   2.557   5.431  10.351 -0.6290  0.2254 -0.5789
   86SAPS   H5R 8190   2.583   5.379  10.445  0.5558  2.5865  0.4985
   86SAPS   C26 8191   2.483   5.373  10.258  0.3795  0.7222  0.0589
   86SAPS   H6R 8192   2.456   5.266  10.258 -2.4311  1.3389  0.9412
   86SAPS   C27 8193   2.440   5.438  10.131  0.7462  0.7972 -0.5521
   86SAPS   H7R 8194   2.530   5.426  10.067  0.3388 -0.3113 -0.9601
   86SAPS   H7S 8195   2.433   5.548  10.137  0.7480  0.7227  1.6080
   86SAPS   C28 8196   2.309   5.384  10.071  0.2924 -0.3076  0.6470
   86SAPS   H8R 8197   2.223   5.447  10.099  0.7446 -0.2709  2.0382
   86SAPS   C29 8198   2.285   5.269  10.004 -0.3008  0.4241  0.1531
   86SAPS   H9R 8199   2.183   5.243   9.971 -0.3297 -0.6311  1.0246
   86SAPS  C210 8200   2.381   5.156   9.974 -1.2822 -0.8148  0.0920
   86SAPS  H10R 8201   2.344   5.070  10.034  0.5805 -0.4871  1.8280
   86SAPS  H10S 8202   2.478   5.178  10.024 -1.9758  1.1474  0.6863
   86SAPS  C211 8203   2.386   5.122   9.828 -0.2233  0.1419  0.4630
   86SAPS  H11R 8204   2.287   5.122   9.779 -0.3942 -1.5217  0.7406
   86SAPS  C212 8205   2.498   5.124   9.751 -0.5888 -1.3466  0.0954
   86SAPS  H12R 8206   2.485   5.117   9.642  0.4154 -0.1206 -0.1191
   86SAPS  C213 8207   2.637   5.150   9.799 -0.6622  1.1427 -0.5183
   86SAPS  H13R 8208   2.713   5.111   9.728 -0.5691 -0.4709  0.4100
   86SAPS  H13S 8209   2.648   5.084   9.888  1.0996  0.6332 -1.0721
   86SAPS  C214 8210   2.669   5.285   9.849 -0.0159  0.3036  0.3467
   86SAPS  H14R 8211   2.589   5.361   9.837 -0.8734 -0.5033  0.8088
   86SAPS  C215 8212   2.792   5.332   9.871  0.1439  0.0411  0.1226
   86SAPS  H15R 8213   2.803   5.429   9.922 -0.7729  0.1052  0.2052
   86SAPS  C216 8214   2.919   5.252   9.858  0.4704  0.0256  0.0404
   86SAPS  H16R 8215   2.984   5.293   9.778 -0.7352  0.4450 -0.7492
   86SAPS  H16S 8216   2.895   5.152   9.818  0.3587 -0.2429  0.7561
   86SAPS  C217 8217   2.992   5.223   9.992  0.7862 -0.6764 -0.0437
   86SAPS  H17R 8218   3.017   5.312  10.055 -0.4935  0.5582 -1.2224
   86SAPS  H17S 8219   3.084   5.166   9.967  1.2022  0.6081 -1.6803
   86SAPS  C218 8220   2.908   5.127  10.074 -0.1047  0.3279 -0.2304
   86SAPS  H18R 8221   2.885   5.030  10.025  0.6024 -0.2050  0.4609
   86SAPS  H18S 8222   2.812   5.180  10.092 -0.2997 -0.2052  0.3149
   86SAPS  C219 8223   2.977   5.101  10.212  0.3266 -0.5261  0.1488
   86SAPS  H19R 8224   2.905   5.033  10.262 -1.0703 -0.7201 -1.9857
   86SAPS  H19S 8225   2.977   5.194  10.272  0.9241 -0.6155  0.2972
   86SAPS  C220 8226   3.122   5.035  10.218 -0.0832 -0.4966 -0.4315
   86SAPS  H20R 8227   3.191   5.120  10.200 -0.8706  0.2240 -0.1129
   86SAPS  H20S 8228   3.136   4.943  10.157  0.0626 -2.3120  2.1896
   86SAPS  H20T 8229   3.134   5.002  10.323  0.3060 -0.3681 -0.4352
   86SAPS   C33 8230   3.425   5.429  10.123  0.2787  0.1533 -0.0944
   86SAPS   H3X 8231   3.480   5.479  10.041  0.2341 -0.3341 -0.4279
   86SAPS   H3Y 8232   3.316   5.428  10.103  0.0843 -0.4075  0.9224
   86SAPS   C34 8233   3.460   5.279  10.132 -0.3522 -0.1154  0.3984
   86SAPS   H4X 8234   3.412   5.224  10.215 -0.8098  0.6978  0.6794
   86SAPS   H4Y 8235   3.569   5.281  10.155 -0.6506  1.4777  1.8711
   86SAPS   C35 8236   3.415   5.199  10.004  0.6142 -0.5521 -0.3652
   86SAPS   H5X 8237   3.305   5.210   9.995  0.4534 -1.1162  0.6639
   86SAPS   H5Y 8238   3.439   5.094  10.032 -0.0568 -0.3957  0.9028
   86SAPS   C36 8239   3.471   5.238   9.873  0.5665  0.2957  0.4493
   86SAPS   H6X 8240   3.570   5.192   9.856  0.5270  1.1948 -2.9634
   86SAPS   H6Y 8241   3.470   5.349   9.864 -4.3344  0.3028 -2.2433
   86SAPS   C37 8242   3.384   5.185   9.757  0.1177  0.2265  0.3499
   86SAPS   H7X 8243   3.284   5.233   9.750 -0.2409 -0.7139 -2.4185
   86SAPS   H7Y 8244   3.367   5.075   9.764  3.8522 -0.5397 -0.7664
   86SAPS   C38 8245   3.472   5.202   9.631 -0.6614 -0.4416 -0.5365
   86SAPS   H8X 8246   3.566   5.142   9.632 -1.4055 -1.6319  0.7451
   86SAPS   H8Y 8247   3.503   5.308   9.633 -0.9896 -0.3526  2.0194
   86SAPS   C39 8248   3.391   5.201   9.501  0.1307  0.1571  1.0387
   86SAPS   H9X 8249   3.310   5.277   9.501  1.2901  1.4160  0.8547
   86SAPS   H9Y 8250   3.357   5.095   9.497  3.0444 -0.8690  1.4734
   86SAPS  C310 8251   3.479   5.223   9.369  0.9431  0.0100  0.7231
   86SAPS  H10X 8252   3.570   5.160   9.365  0.4262 -0.6932 -1.8423
   86SAPS  H10Y 8253   3.511   5.329   9.379 -3.2019  1.2799  3.2888
   86SAPS  C311 8254   3.404   5.199   9.237  1.0860  0.3896 -0.6241
   86SAPS  H11X 8255   3.335   5.286   9.230  2.2522  1.3156 -1.0802
   86SAPS  H11Y 8256   3.347   5.105   9.223 -2.0357  1.6334  2.1985
   86SAPS  C312 8257   3.502   5.195   9.119  0.4177 -0.0034 -0.2536
   86SAPS  H12X 8258   3.579   5.118   9.140  0.1029 -0.3982 -0.5624
   86SAPS  H12Y 8259   3.545   5.298   9.119 -0.8315  0.5334 -1.1554
   86SAPS  C313 8260   3.441   5.163   8.985  0.0797 -1.1525  0.7299
   86SAPS  H13X 8261   3.388   5.067   9.004  0.0208 -1.0438  1.1321
   86SAPS  H13Y 8262   3.534   5.150   8.925  0.4465 -1.0973  1.2776
   86SAPS  C314 8263   3.358   5.279   8.928 -0.1069  0.4552  0.0491
   86SAPS  H14X 8264   3.419   5.370   8.909 -0.1637  1.0135  2.1776
   86SAPS  H14Y 8265   3.273   5.296   8.998 -0.1040 -3.1942  1.1678
   86SAPS  C315 8266   3.295   5.248   8.790  0.0703 -0.4425 -0.2846
   86SAPS  H15X 8267   3.260   5.143   8.799  0.3481 -0.7339 -2.1360
   86SAPS  H15Y 8268   3.380   5.244   8.718  0.3341  0.9974 -0.0928
   86SAPS  C316 8269   3.183   5.346   8.750 -0.6322 -0.5860 -0.6552
   86SAPS  H16X 8270   3.124   5.374   8.840  0.6810  0.1271  0.0322
   86SAPS  H16Y 8271   3.111   5.286   8.690 -1.6157  0.0929 -0.1689
   86SAPS  C317 8272   3.232   5.464   8.673  0.3048 -0.9532  0.8282
   86SAPS  H17X 8273   3.290   5.429   8.585 -2.5854  0.2124 -1.7063
   86SAPS  H17Y 8274   3.282   5.544   8.731 -0.9623  2.5668 -2.4901
   86SAPS  C318 8275   3.108   5.532   8.610 -0.6688 -0.5517  0.1552
   86SAPS  H18X 8276   3.045   5.462   8.552 -0.7392 -0.0952 -0.3285
   86SAPS  H18Y 8277   3.142   5.617   8.548  1.2767 -0.5293  1.1690
   86SAPS  H18Z 8278   3.046   5.565   8.696  0.5592  0.4176  0.7001
   87SAPS     N 8279   3.767   6.344  10.999 -0.6159 -0.0130 -0.0383
   87SAPS   HN1 8280   3.825   6.368  11.082 -2.6006 -2.4626  2.2126
   87SAPS   HN2 8281   3.729   6.250  11.023 -3.1496  1.0653  0.4966
   87SAPS   HN3 8282   3.821   6.353  10.911 -0.5928  2.0784  0.1297
   87SAPS   C12 8283   3.654   6.440  11.000  0.2016  0.1359 -0.0403
   87SAPS  H12A 8284   3.591   6.419  11.085  0.4377 -0.0417  0.0921
   87SAPS   C13 8285   3.691   6.591  11.019 -0.0018  0.6640  0.6743
   87SAPS  O13A 8286   3.813   6.627  11.035  0.0991  0.4029  0.2112
   87SAPS  O13B 8287   3.601   6.673  10.987 -0.0173 -0.9327  0.1443
   87SAPS   C11 8288   3.572   6.423  10.873  0.4605  0.2932  0.5187
   87SAPS  H11A 8289   3.627   6.468  10.788  0.8517  1.4673  1.3750
   87SAPS  H11B 8290   3.478   6.481  10.883 -0.8071 -1.4183 -0.7880
   87SAPS     P 8291   3.413   6.208  10.923  0.3480  0.3357 -0.0063
   87SAPS   O13 8292   3.410   6.064  10.877 -0.0872 -0.2024  0.1695
   87SAPS   O14 8293   3.420   6.229  11.067  0.5676 -0.5167 -0.4242
   87SAPS   O12 8294   3.547   6.281  10.853  1.2100  0.3331  0.1631
   87SAPS   O11 8295   3.278   6.277  10.872  0.4796 -0.2742  0.1308
   87SAPS    C1 8296   3.265   6.373  10.769  0.4062 -0.1954 -0.0671
   87SAPS    HA 8297   3.262   6.475  10.812  0.6323 -0.1546 -0.1468
   87SAPS    HB 8298   3.360   6.381  10.713  0.1546  0.4349 -0.4112
   87SAPS    C2 8299   3.143   6.340  10.679 -0.2462 -0.5938 -0.8671
   87SAPS    HS 8300   3.056   6.326  10.747 -0.1411  1.5418 -0.2247
   87SAPS   O21 8301   3.164   6.216  10.608 -0.5248  0.4254  0.6025
   87SAPS   C21 8302   3.051   6.142  10.578  0.2061 -0.6274  0.3809
   87SAPS   O22 8303   2.942   6.171  10.623  0.4858  1.4431  0.1464
   87SAPS   C22 8304   3.081   6.014  10.503 -0.6706  0.5479  0.1415
   87SAPS   H2R 8305   3.184   5.978  10.524 -1.1754 -1.3129 -0.3365
   87SAPS   H2S 8306   3.008   5.958  10.565 -2.1304 -1.2645 -2.9266
   87SAPS    C3 8307   3.093   6.448  10.576  0.1871 -0.1196 -0.0398
   87SAPS    HX 8308   3.050   6.535  10.630 -3.8306 -3.0466  1.9673
   87SAPS    HY 8309   3.007   6.408  10.519 -0.1633 -1.9343  1.6523
   87SAPS   O31 8310   3.206   6.488  10.501 -0.4897 -0.6409  0.1311
   87SAPS   C31 8311   3.175   6.554  10.392  0.0528 -0.0970 -0.0198
   87SAPS   O32 8312   3.061   6.563  10.346 -0.4125 -0.1013 -0.3661
   87SAPS   C32 8313   3.305   6.613  10.337 -0.1573  0.2230 -0.6243
   87SAPS   H2X 8314   3.379   6.530  10.329 -0.6877 -0.6268  2.1846
   87SAPS   H2Y 8315   3.334   6.681  10.420 -1.1322 -1.1205  0.8813
   87SAPS   C23 8316   3.034   6.023  10.357  0.0383 -0.7323  0.3241
   87SAPS   H3R 8317   3.092   6.102  10.304 -1.1406  0.7941  1.2170
   87SAPS   H3S 8318   2.927   6.052  10.359 -0.3499 -2.1043  1.7997
   87SAPS   C24 8319   3.032   5.888  10.279 -0.3462  0.4219  0.2655
   87SAPS   H4R 8320   2.960   5.892  10.195  0.0051  0.5118 -0.0319
   87SAPS   H4S 8321   2.991   5.808  10.345 -0.0022 -0.2663 -0.3421
   87SAPS   C25 8322   3.170   5.842  10.237 -0.2546 -0.2994  0.3888
   87SAPS   H5R 8323   3.240   5.836  10.321 -0.9022 -1.0086  0.8885
   87SAPS   C26 8324   3.207   5.774  10.129  0.5321 -0.4570 -0.1611
   87SAPS   H6R 8325   3.313   5.752  10.116  0.7997  1.1148 -0.9224
   87SAPS   C27 8326   3.104   5.733  10.024  0.3285  0.6737 -0.0626
   87SAPS   H7R 8327   3.094   5.805   9.940 -0.1726 -0.3636 -0.9272
   87SAPS   H7S 8328   3.000   5.740  10.062 -0.3675  0.7921 -1.8519
   87SAPS   C28 8329   3.120   5.584   9.979  0.6215 -0.2102 -0.1426
   87SAPS   H8R 8330   3.092   5.506  10.051 -2.3034  1.4407  0.6630
   87SAPS   C29 8331   3.177   5.548   9.859 -0.4850 -0.2044  0.0487
   87SAPS   H9R 8332   3.182   5.440   9.838 -2.9579 -0.6958  1.6454
   87SAPS  C210 8333   3.220   5.646   9.751 -0.3822 -0.2256 -0.2608
   87SAPS  H10R 8334   3.292   5.719   9.792 -2.3416  0.4718  2.2125
   87SAPS  H10S 8335   3.128   5.703   9.724 -0.0188  0.7888  0.6092
   87SAPS  C211 8336   3.246   5.573   9.622  0.4995 -0.0088 -1.0648
   87SAPS  H11R 8337   3.157   5.530   9.574 -0.3717  0.7334 -0.1602
   87SAPS  C212 8338   3.363   5.557   9.552  0.4786  0.2383  0.3228
   87SAPS  H12R 8339   3.364   5.501   9.458 -1.6456 -0.6621  0.7688
   87SAPS  C213 8340   3.501   5.606   9.588  0.9301 -0.7120 -0.6108
   87SAPS  H13R 8341   3.515   5.576   9.694 -4.0988 -0.8520  0.2335
   87SAPS  H13S 8342   3.495   5.717   9.589 -2.4484 -0.7875 -1.0472
   87SAPS  C214 8343   3.613   5.561   9.504  0.3053  0.7243  1.0807
   87SAPS  H14R 8344   3.648   5.462   9.538 -0.5848  0.5007  1.3585
   87SAPS  C215 8345   3.664   5.623   9.394 -0.0993 -0.0883  0.0712
   87SAPS  H15R 8346   3.762   5.585   9.363  1.6264  1.2039  3.3655
   87SAPS  C216 8347   3.623   5.758   9.342 -0.0925  0.0999  0.2173
   87SAPS  H16R 8348   3.706   5.813   9.293 -0.5942 -1.2842 -2.3636
   87SAPS  H16S 8349   3.572   5.819   9.419  0.4465  0.8663 -0.0246
   87SAPS  C217 8350   3.529   5.738   9.216 -0.2721  0.3604  0.3858
   87SAPS  H17R 8351   3.496   5.834   9.171 -0.5286 -0.7107 -1.8148
   87SAPS  H17S 8352   3.432   5.693   9.245 -0.1748 -0.5783 -0.6762
   87SAPS  C218 8353   3.593   5.650   9.099  0.2450  0.5062 -0.2980
   87SAPS  H18R 8354   3.603   5.545   9.134 -0.7655  0.3423 -0.4775
   87SAPS  H18S 8355   3.691   5.692   9.068  0.6412 -0.0697  0.1494
   87SAPS  C219 8356   3.501   5.661   8.975 -0.6906  0.4160  0.4124
   87SAPS  H19R 8357   3.455   5.762   8.965 -1.8179 -0.3196 -4.1637
   87SAPS  H19S 8358   3.419   5.586   8.978 -1.2629  1.0321  0.6017
   87SAPS  C220 8359   3.587   5.631   8.854  0.6736 -0.2525 -0.8404
   87SAPS  H20R 8360   3.650   5.540   8.860 -0.7084 -1.2577 -0.9634
   87SAPS  H20S 8361   3.659   5.711   8.828  1.6591 -1.1488 -0.9397
   87SAPS  H20T 8362   3.514   5.625   8.769 -0.1896  2.4150 -0.3808
   87SAPS   C33 8363   3.283   6.695  10.200 -0.3018  0.0338 -0.8314
   87SAPS   H3X 8364   3.373   6.760  10.191 -0.6383  0.6506  0.0909
   87SAPS   H3Y 8365   3.194   6.759  10.217 -1.3136 -1.3320 -0.7637
   87SAPS   C34 8366   3.271   6.608  10.077  0.0652  0.5931  0.4973
   87SAPS   H4X 8367   3.177   6.549  10.081  1.2937 -1.4973  0.5407
   87SAPS   H4Y 8368   3.351   6.532  10.064  0.7843  1.5928 -1.3114
   87SAPS   C35 8369   3.279   6.697   9.951  0.3616 -0.2318  0.3316
   87SAPS   H5X 8370   3.365   6.767   9.955 -0.1003  0.4707 -1.0387
   87SAPS   H5Y 8371   3.189   6.762   9.951 -0.1457 -0.8792  2.2258
   87SAPS   C36 8372   3.288   6.613   9.825 -0.4040  0.4727 -0.1301
   87SAPS   H6X 8373   3.200   6.545   9.837  0.5991 -0.3839  3.6569
   87SAPS   H6Y 8374   3.379   6.552   9.807 -0.3892  0.2970  0.5162
   87SAPS   C37 8375   3.276   6.711   9.709 -0.5305  0.8416  0.3729
   87SAPS   H7X 8376   3.357   6.785   9.726  1.0444 -1.2532  2.6987
   87SAPS   H7Y 8377   3.181   6.768   9.718 -0.5398  0.9460 -0.3449
   87SAPS   C38 8378   3.285   6.657   9.562  0.1112  0.2438 -0.2823
   87SAPS   H8X 8379   3.204   6.583   9.543  0.8057 -0.8934  0.9610
   87SAPS   H8Y 8380   3.384   6.610   9.550  1.4953  2.1680  2.5667
   87SAPS   C39 8381   3.269   6.763   9.450 -0.4835 -0.6388  0.5345
   87SAPS   H9X 8382   3.353   6.837   9.447 -0.4554 -0.6794 -1.8947
   87SAPS   H9Y 8383   3.173   6.818   9.460 -2.5340 -3.9259  0.0734
   87SAPS  C310 8384   3.252   6.699   9.309  0.7608  0.2710 -0.9049
   87SAPS  H10X 8385   3.167   6.629   9.320 -0.1347  1.5882  1.2643
   87SAPS  H10Y 8386   3.339   6.638   9.277 -0.0350 -1.1967 -0.3878
   87SAPS  C311 8387   3.220   6.806   9.207  0.4497  0.2889  0.3048
   87SAPS  H11X 8388   3.302   6.880   9.198 -0.7663  1.6639  0.3264
   87SAPS  H11Y 8389   3.127   6.855   9.240  0.1424  0.6470 -1.0288
   87SAPS  C312 8390   3.187   6.750   9.068 -0.1885 -0.0629  0.0829
   87SAPS  H12X 8391   3.138   6.823   9.000 -1.8872 -0.7565  0.5252
   87SAPS  H12Y 8392   3.115   6.667   9.083 -1.3413  0.6386 -1.3458
   87SAPS  C313 8393   3.309   6.704   8.978 -0.2235 -0.3329 -0.4761
   87SAPS  H13X 8394   3.361   6.624   9.034 -1.9157 -1.6710 -0.7460
   87SAPS  H13Y 8395   3.374   6.788   8.947  0.0550 -0.8892 -1.4275
   87SAPS  C314 8396   3.253   6.637   8.851  0.2786 -0.4416 -0.4875
   87SAPS  H14X 8397   3.221   6.712   8.776  2.2111 -0.3748 -1.3226
   87SAPS  H14Y 8398   3.157   6.588   8.877  0.5347 -0.9171 -0.4101
   87SAPS  C315 8399   3.355   6.539   8.790 -0.2806  0.3378  0.3394
   87SAPS  H15X 8400   3.359   6.452   8.859 -1.9470 -0.4865 -0.5331
   87SAPS  H15Y 8401   3.454   6.587   8.776 -0.1999 -0.0365 -0.4266
   87SAPS  C316 8402   3.310   6.480   8.651  0.2167 -0.7216 -0.6973
   87SAPS  H16X 8403   3.311   6.566   8.580  1.5112 -0.5573 -0.5079
   87SAPS  H16Y 8404   3.206   6.443   8.659 -0.4309  0.9552 -0.8884
   87SAPS  C317 8405   3.383   6.354   8.600 -0.1301  0.0523  0.1397
   87SAPS  H17X 8406   3.355   6.267   8.663 -2.2869  0.5738 -0.0224
   87SAPS  H17Y 8407   3.489   6.382   8.615 -0.7972  2.8576  0.0988
   87SAPS  C318 8408   3.349   6.331   8.449  0.2806  0.6645 -0.1625
   87SAPS  H18X 8409   3.248   6.286   8.434  0.8889 -0.9093  0.2495
   87SAPS  H18Y 8410   3.421   6.258   8.408  0.0920  0.1744  0.3634
   87SAPS  H18Z 8411   3.366   6.424   8.392 -0.0664  0.3508 -0.7960
   88SAPS     N 8412   5.403   4.955  10.783 -0.1059  0.7276 -0.0091
   88SAPS   HN1 8413   5.456   5.023  10.724  0.1353 -0.9807 -1.8815
   88SAPS   HN2 8414   5.391   4.868  10.727 -2.4229  1.7265 -1.2088
   88SAPS   HN3 8415   5.306   4.990  10.791  0.0424  1.0927  0.2123
   88SAPS   C12 8416   5.445   4.918  10.926  0.0386  0.0393  0.2750
   88SAPS  H12A 8417   5.551   4.937  10.937 -0.0895 -0.2792  2.5202
   88SAPS   C13 8418   5.375   5.017  11.028 -0.1326  0.3626  0.7313
   88SAPS  O13A 8419   5.306   5.112  10.990  0.4501 -0.5393  0.1083
   88SAPS  O13B 8420   5.414   5.006  11.144 -0.0076  0.6843 -0.3605
   88SAPS   C11 8421   5.399   4.775  10.949 -0.6983  0.1466 -0.1784
   88SAPS  H11A 8422   5.289   4.763  10.960 -0.4628 -2.3776  0.1209
   88SAPS  H11B 8423   5.437   4.750  11.051 -1.4928 -1.5507 -0.2548
   88SAPS     P 8424   5.503   4.544  10.883  0.0111  0.2213  0.2961
   88SAPS   O13 8425   5.483   4.513  11.024 -0.2348  0.0807  0.8997
   88SAPS   O14 8426   5.468   4.432  10.794  1.0473 -0.8741 -0.3486
   88SAPS   O12 8427   5.433   4.673  10.846 -0.0162 -0.6070  0.2184
   88SAPS   O11 8428   5.658   4.574  10.868  0.1298 -0.0697  0.4136
   88SAPS    C1 8429   5.699   4.660  10.762  0.3912  0.8017 -0.6133
   88SAPS    HA 8430   5.618   4.709  10.704  0.8682  1.9216 -0.3590
   88SAPS    HB 8431   5.756   4.748  10.798  0.7831  0.3513 -0.1213
   88SAPS    C2 8432   5.804   4.593  10.667 -0.5013 -0.0940  0.3130
   88SAPS    HS 8433   5.820   4.674  10.593  2.0369  0.7875  1.7056
   88SAPS   O21 8434   5.759   4.476  10.591  0.4735  0.4944 -0.2050
   88SAPS   C21 8435   5.660   4.492  10.511 -0.0927 -0.2031  0.7069
   88SAPS   O22 8436   5.604   4.602  10.490  0.1092  0.8327  0.0398
   88SAPS   C22 8437   5.615   4.369  10.444  0.0732  0.2524  0.2888
   88SAPS   H2R 8438   5.667   4.286  10.496 -2.8355 -1.5057  0.6072
   88SAPS   H2S 8439   5.510   4.352  10.473  0.1360 -1.1577 -0.2139
   88SAPS    C3 8440   5.946   4.567  10.729 -0.5496  0.0925 -0.0737
   88SAPS    HX 8441   5.918   4.481  10.794 -3.2689  1.2021  0.3604
   88SAPS    HY 8442   5.979   4.651  10.794  0.9471 -0.3194 -0.2554
   88SAPS   O31 8443   6.044   4.538  10.631 -0.2134 -0.9034  0.4741
   88SAPS   C31 8444   6.163   4.498  10.680  0.3376  0.3056  1.0331
   88SAPS   O32 8445   6.191   4.483  10.795 -0.0697 -0.1697  0.1119
   88SAPS   C32 8446   6.254   4.476  10.558 -0.6531 -0.3846 -0.1264
   88SAPS   H2X 8447   6.354   4.462  10.603 -0.4350  1.0673 -0.1139
   88SAPS   H2Y 8448   6.250   4.568  10.496  2.1098 -0.1065  0.0110
   88SAPS   C23 8449   5.627   4.372  10.290 -0.7454  0.7271  0.1241
   88SAPS   H3R 8450   5.590   4.270  10.263  0.6992 -0.1164  1.1368
   88SAPS   H3S 8451   5.734   4.384  10.262 -0.7502  0.9509  0.2029
   88SAPS   C24 8452   5.538   4.470  10.210  0.0313 -0.3363 -0.4508
   88SAPS   H4R 8453   5.575   4.474  10.105 -0.9932  1.7842 -0.7656
   88SAPS   H4S 8454   5.565   4.570  10.248  1.6000 -1.9061  3.0645
   88SAPS   C25 8455   5.393   4.450  10.217  0.4866  0.5875 -0.0053
   88SAPS   H5R 8456   5.351   4.455  10.319  1.4850 -0.3624  0.4715
   88SAPS   C26 8457   5.319   4.437  10.104  0.7595  0.4006 -0.6361
   88SAPS   H6R 8458   5.210   4.447  10.115  0.5920 -0.9153 -0.8854
   88SAPS   C27 8459   5.370   4.423   9.962  0.1989  0.1567  0.5399
   88SAPS   H7R 8460   5.448   4.344   9.964  0.0786  0.0435  0.7842
   88SAPS   H7S 8461   5.435   4.512   9.949  0.4786  0.0247  0.9929
   88SAPS   C28 8462   5.272   4.416   9.845 -0.1591 -0.7923  0.4788
   88SAPS   H8R 8463   5.163   4.419   9.862 -0.1214 -2.0527  1.0995
   88SAPS   C29 8464   5.303   4.381   9.721 -0.2469 -0.2810 -0.3056
   88SAPS   H9R 8465   5.229   4.403   9.642  0.1222  0.1878 -0.5291
   88SAPS  C210 8466   5.445   4.357   9.680 -0.7526 -0.4608 -0.1664
   88SAPS  H10R 8467   5.448   4.269   9.612 -0.8530 -1.8278  1.5418
   88SAPS  H10S 8468   5.511   4.320   9.761  0.3482  0.3892 -0.6483
   88SAPS  C211 8469   5.507   4.477   9.612 -0.5636 -0.3655 -0.4953
   88SAPS  H11R 8470   5.531   4.570   9.665 -2.4414  0.7332 -1.4667
   88SAPS  C212 8471   5.514   4.484   9.481  0.1205 -0.2841  0.4023
   88SAPS  H12R 8472   5.566   4.569   9.435 -0.3275 -0.1654  0.1092
   88SAPS  C213 8473   5.443   4.389   9.388 -1.0864 -0.8336 -0.2011
   88SAPS  H13R 8474   5.371   4.320   9.437 -0.2159 -1.6821 -0.0987
   88SAPS  H13S 8475   5.531   4.327   9.363  2.4569  2.8650  1.9289
   88SAPS  C214 8476   5.405   4.436   9.250  0.2012 -0.1100 -0.3489
   88SAPS  H14R 8477   5.453   4.529   9.216  3.9791 -1.8300 -0.3173
   88SAPS  C215 8478   5.332   4.367   9.162 -0.5298  1.0351  0.1273
   88SAPS  H15R 8479   5.316   4.412   9.063  0.5543  0.1440 -0.4716
   88SAPS  C216 8480   5.281   4.225   9.192  0.1434  0.2218 -0.4153
   88SAPS  H16R 8481   5.323   4.169   9.278 -0.4988 -0.3697 -0.4746
   88SAPS  H16S 8482   5.308   4.163   9.104 -0.4795  0.8185 -1.0376
   88SAPS  C217 8483   5.127   4.234   9.211 -0.2690  0.6138 -0.3958
   88SAPS  H17R 8484   5.102   4.318   9.278 -0.0160 -1.4917  2.5095
   88SAPS  H17S 8485   5.100   4.140   9.264  0.6509 -0.2187 -1.3470
   88SAPS  C218 8486   5.067   4.240   9.066  0.4010  0.1870 -0.5103
   88SAPS  H18R 8487   5.103   4.149   9.014 -0.0920 -0.5339  0.3816
   88SAPS  H18S 8488   5.114   4.321   9.007 -0.4435  0.3255 -1.0018
   88SAPS  C219 8489   4.909   4.243   9.061 -1.1789 -0.1805 -0.0983
   88SAPS  H19R 8490   4.874   4.162   9.129 -0.3219 -0.2064  0.3283
   88SAPS  H19S 8491   4.877   4.214   8.959 -3.4696 -0.7959  0.7279
   88SAPS  C220 8492   4.843   4.379   9.085  0.1598  0.1588  0.0924
   88SAPS  H20R 8493   4.876   4.426   9.180  0.7303  0.4014 -0.2235
   88SAPS  H20S 8494   4.732   4.370   9.081 -0.3425  4.4594 -0.8363
   88SAPS  H20T 8495   4.851   4.438   8.992 -4.2116  0.4214 -0.3327
   88SAPS   C33 8496   6.203   4.364  10.471  1.1256  0.3852 -0.5286
   88SAPS   H3X 8497   6.113   4.376  10.407  0.3065  0.3871  0.6001
   88SAPS   H3Y 8498   6.171   4.279  10.536  0.1156  1.6232  0.6534
   88SAPS   C34 8499   6.305   4.298  10.379  0.7302 -0.4487 -0.3146
   88SAPS   H4X 8500   6.379   4.253  10.448 -1.4987 -1.2844  1.6497
   88SAPS   H4Y 8501   6.359   4.388  10.344 -0.9854  2.0606  2.9791
   88SAPS   C35 8502   6.240   4.209  10.270  0.0603  0.9441  0.6435
   88SAPS   H5X 8503   6.182   4.271  10.198  1.3249  2.3464  0.7858
   88SAPS   H5Y 8504   6.178   4.126  10.309  2.8373 -1.6184 -0.0503
   88SAPS   C36 8505   6.350   4.132  10.185 -0.0944 -1.1047 -0.9852
   88SAPS   H6X 8506   6.434   4.100  10.251  0.1597  0.3733 -0.5495
   88SAPS   H6Y 8507   6.412   4.198  10.121  2.7511 -2.2285  0.4189
   88SAPS   C37 8508   6.293   4.019  10.105  0.4163 -0.6609 -0.4560
   88SAPS   H7X 8509   6.206   3.972  10.156  0.0963  2.0159  1.6854
   88SAPS   H7Y 8510   6.376   3.952  10.075  1.2563  1.4951 -3.5291
   88SAPS   C38 8511   6.237   4.064   9.968  0.0857 -0.4936  0.7025
   88SAPS   H8X 8512   6.316   4.124   9.918  1.5725 -2.5732  0.4308
   88SAPS   H8Y 8513   6.150   4.133   9.977  1.4321  1.3590  0.2352
   88SAPS   C39 8514   6.199   3.943   9.879  0.0270  0.2603  0.6553
   88SAPS   H9X 8515   6.103   3.903   9.919 -0.2091 -1.1163 -1.1604
   88SAPS   H9Y 8516   6.270   3.858   9.892 -0.8551 -0.4608  0.8578
   88SAPS  C310 8517   6.180   3.982   9.726 -0.0092 -0.0928  0.0206
   88SAPS  H10X 8518   6.286   4.003   9.700  0.1346  0.7545  1.1899
   88SAPS  H10Y 8519   6.113   4.071   9.722  1.9482  1.5151  1.0450
   88SAPS  C311 8520   6.127   3.860   9.647  1.1273  0.2555 -0.5274
   88SAPS  H11X 8521   6.023   3.836   9.676  1.1605 -0.5578 -1.0564
   88SAPS  H11Y 8522   6.185   3.768   9.672  0.0752 -0.3025 -0.1031
   88SAPS  C312 8523   6.123   3.892   9.495  0.5430  0.6018  0.1775
   88SAPS  H12X 8524   6.226   3.894   9.453 -0.1315 -0.9508 -1.6878
   88SAPS  H12Y 8525   6.082   3.990   9.463  1.2580  0.7228 -0.3762
   88SAPS  C313 8526   6.047   3.778   9.411 -0.3044 -0.3453  0.4824
   88SAPS  H13X 8527   5.939   3.780   9.434 -1.0214  1.0416 -2.4748
   88SAPS  H13Y 8528   6.086   3.675   9.426 -2.1240 -1.2475 -0.6191
   88SAPS  C314 8529   6.065   3.809   9.257  0.1022  0.6355 -0.3785
   88SAPS  H14X 8530   6.174   3.807   9.240  0.1736  0.8382  0.0380
   88SAPS  H14Y 8531   6.025   3.910   9.233  1.4479  1.8037  1.9064
   88SAPS  C315 8532   5.995   3.705   9.169 -0.1006 -0.5910 -0.3353
   88SAPS  H15X 8533   5.891   3.712   9.207 -0.4541  0.5987 -1.4482
   88SAPS  H15Y 8534   6.032   3.601   9.184 -1.8594 -1.1195  0.6443
   88SAPS  C316 8535   6.005   3.748   9.024 -0.3281 -0.4269  0.1308
   88SAPS  H16X 8536   6.112   3.760   8.995 -0.3036  3.1012  1.1503
   88SAPS  H16Y 8537   5.969   3.850   8.999  2.4140  0.3692 -0.9983
   88SAPS  C317 8538   5.937   3.652   8.922  0.0317  0.1509  0.1580
   88SAPS  H17X 8539   5.953   3.547   8.952 -3.1155  0.3464  3.0490
   88SAPS  H17Y 8540   5.984   3.676   8.824 -1.3916 -0.0507 -0.5946
   88SAPS  C318 8541   5.793   3.674   8.912  0.3304 -0.4024  0.0831
   88SAPS  H18X 8542   5.772   3.783   8.910 -0.3313 -0.5281 -0.5163
   88SAPS  H18Y 8543   5.736   3.646   9.003 -0.3362 -0.2304 -0.2733
   88SAPS  H18Z 8544   5.749   3.608   8.834 -0.9407 -1.2167  1.4200
   89SAPS     N 8545   5.074   0.245  10.731 -0.0308  0.3749 -0.3624
   89SAPS   HN1 8546   5.073   0.320  10.658  0.8782  0.2708 -0.4967
   89SAPS   HN2 8547   5.137   0.173  10.691 -0.6802  0.2325 -1.1568
   89SAPS   HN3 8548   4.981   0.198  10.736  1.4031 -2.9291 -1.5354
   89SAPS   C12 8549   5.129   0.288  10.863 -0.6922  0.6664  0.6723
   89SAPS  H12A 8550   5.050   0.326  10.925 -2.3246 -1.2653 -0.1463
   89SAPS   C13 8551   5.192   0.169  10.945  0.3063  0.3898 -0.7959
   89SAPS  O13A 8552   5.165   0.053  10.913  0.1170 -0.1157  0.1264
   89SAPS  O13B 8553   5.209   0.196  11.071 -0.1402 -0.1325 -0.1858
   89SAPS   C11 8554   5.247   0.388  10.847 -0.0546 -0.1458  0.7114
   89SAPS  H11A 8555   5.347   0.341  10.838  0.1809  0.6152 -1.1292
   89SAPS  H11B 8556   5.247   0.448  10.940  1.9423 -0.4928  0.9865
   89SAPS     P 8557   5.336   0.563  10.662 -0.4415  0.2995  0.2547
   89SAPS   O13 8558   5.265   0.678  10.603 -0.2860  0.1073 -0.1422
   89SAPS   O14 8559   5.439   0.600  10.763 -0.0754  0.0642 -0.0655
   89SAPS   O12 8560   5.219   0.476  10.731  0.0288  0.3873 -0.6009
   89SAPS   O11 8561   5.412   0.477  10.554 -0.0059  0.1275 -0.0054
   89SAPS    C1 8562   5.345   0.392  10.465  0.4455  0.3412  0.5619
   89SAPS    HA 8563   5.413   0.312  10.429 -0.7961 -1.1836  1.4519
   89SAPS    HB 8564   5.257   0.336  10.504  0.7123  1.0199  2.1964
   89SAPS    C2 8565   5.294   0.471  10.335  0.2438 -0.2070  0.2796
   89SAPS    HS 8566   5.205   0.532  10.361  1.6041  1.8311  0.4305
   89SAPS   O21 8567   5.269   0.378  10.233 -0.2525  0.2666  0.2123
   89SAPS   C21 8568   5.169   0.417  10.142  0.5209  0.6930  0.6477
   89SAPS   O22 8569   5.113   0.527  10.136  0.1801  0.7941 -0.5712
   89SAPS   C22 8570   5.164   0.297  10.042  0.1273  0.6441 -0.5448
   89SAPS   H2R 8571   5.263   0.251  10.024  0.5274  0.1971  2.2999
   89SAPS   H2S 8572   5.101   0.218  10.089  1.2160  0.2552  0.2910
   89SAPS    C3 8573   5.404   0.569  10.279 -0.3221 -0.0087  0.1203
   89SAPS    HX 8574   5.504   0.520  10.278  0.1256  0.8683 -1.4190
   89SAPS    HY 8575   5.410   0.652  10.353 -1.1766  1.3037 -1.2393
   89SAPS   O31 8576   5.389   0.613  10.145  0.0276 -0.3654  0.4569
   89SAPS   C31 8577   5.334   0.735  10.144  0.1681 -0.1767 -1.0783
   89SAPS   O32 8578   5.297   0.797  10.243 -0.5973 -0.4725  0.7711
   89SAPS   C32 8579   5.337   0.779   9.996 -0.1067  0.1135  0.2778
   89SAPS   H2X 8580   5.262   0.859   9.974  3.2375  3.0994 -1.4672
   89SAPS   H2Y 8581   5.324   0.699   9.920  1.1387  0.6079 -0.4748
   89SAPS   C23 8582   5.091   0.351   9.923  0.2209 -0.3248  0.0240
   89SAPS   H3R 8583   5.145   0.430   9.866  1.2887  0.5616  2.1559
   89SAPS   H3S 8584   5.004   0.407   9.964  1.3447  2.6792 -1.3990
   89SAPS   C24 8585   5.060   0.246   9.821  0.4721  0.0649 -0.6767
   89SAPS   H4R 8586   4.999   0.298   9.745 -0.4622 -1.9712 -1.3848
   89SAPS   H4S 8587   4.999   0.170   9.873  2.1282  0.6584  2.3661
   89SAPS   C25 8588   5.188   0.176   9.767  0.4877 -0.4488  0.6406
   89SAPS   H5R 8589   5.261   0.134   9.838  2.1037 -0.1507 -0.7796
   89SAPS   C26 8590   5.218   0.147   9.637  0.1021 -0.3062 -0.6609
   89SAPS   H6R 8591   5.305   0.087   9.608 -0.1168 -0.2728 -1.4098
   89SAPS   C27 8592   5.128   0.188   9.524  0.0965  0.3629  0.1569
   89SAPS   H7R 8593   5.195   0.260   9.473  2.6995  0.8934  3.9336
   89SAPS   H7S 8594   5.035   0.236   9.560 -0.4704  1.3822 -2.4656
   89SAPS   C28 8595   5.099   0.075   9.430  0.0094  0.5914  0.2408
   89SAPS   H8R 8596   5.136  -0.023   9.462  0.7637  1.4405  2.1349
   89SAPS   C29 8597   5.056   0.091   9.304 -0.0505 -0.2253  0.0967
   89SAPS   H9R 8598   5.050   0.002   9.239  2.0751 -0.5072  0.1978
   89SAPS  C210 8599   5.025   0.220   9.232 -0.1174 -0.2044 -0.4885
   89SAPS  H10R 8600   4.957   0.272   9.303 -1.1791 -0.4216 -1.3144
   89SAPS  H10S 8601   4.962   0.215   9.141 -1.8366  0.2124  0.6264
   89SAPS  C211 8602   5.143   0.311   9.212  0.2627  0.0335  0.8405
   89SAPS  H11R 8603   5.121   0.408   9.260  0.1138 -1.0189  2.9994
   89SAPS  C212 8604   5.255   0.292   9.142  0.1773  0.4288  1.1725
   89SAPS  H12R 8605   5.303   0.390   9.129  1.5486 -0.4433 -0.8899
   89SAPS  C213 8606   5.278   0.178   9.041 -0.2238  0.4839 -0.6988
   89SAPS  H13R 8607   5.336   0.204   8.950 -0.6731  0.0594 -1.1148
   89SAPS  H13S 8608   5.182   0.135   9.005 -1.1899  1.5662  0.4770
   89SAPS  C214 8609   5.346   0.063   9.123 -0.5439  1.0714  0.2771
   89SAPS  H14R 8610   5.408   0.110   9.201  0.8385 -0.3049  0.0678
   89SAPS  C215 8611   5.369  -0.062   9.083 -0.3003 -0.0234 -0.8454
   89SAPS  H15R 8612   5.429  -0.130   9.145 -0.7911  0.7361  0.5022
   89SAPS  C216 8613   5.313  -0.118   8.955 -0.5360 -0.3007 -0.3334
   89SAPS  H16R 8614   5.298  -0.033   8.884 -2.1584 -0.0712  0.2482
   89SAPS  H16S 8615   5.212  -0.162   8.964 -0.6145  0.1911  1.4460
   89SAPS  C217 8616   5.406  -0.225   8.888  0.0526 -0.4566 -0.7623
   89SAPS  H17R 8617   5.383  -0.310   8.955 -0.8905 -1.7980 -2.6895
   89SAPS  H17S 8618   5.511  -0.194   8.905 -1.1347  3.2318  0.8981
   89SAPS  C218 8619   5.387  -0.258   8.744  0.4439  0.7793  0.1021
   89SAPS  H18R 8620   5.403  -0.175   8.672  0.7136  0.8476  0.2381
   89SAPS  H18S 8621   5.281  -0.283   8.726  0.3347 -0.3590  2.0264
   89SAPS  C219 8622   5.476  -0.375   8.691  1.1766  0.4066 -0.1637
   89SAPS  H19R 8623   5.577  -0.339   8.664  0.6114  1.6772 -0.6668
   89SAPS  H19S 8624   5.422  -0.404   8.598  0.8266  3.7459 -1.1224
   89SAPS  C220 8625   5.497  -0.507   8.774  0.8502 -0.1099 -0.0805
   89SAPS  H20R 8626   5.574  -0.501   8.854 -0.6549  2.7063  1.3269
   89SAPS  H20S 8627   5.518  -0.586   8.700 -1.2780  0.6627 -1.6198
   89SAPS  H20T 8628   5.397  -0.523   8.819  0.8372 -1.3327 -0.5205
   89SAPS   C33 8629   5.471   0.847   9.966  0.1384  0.5169  0.1955
   89SAPS   H3X 8630   5.537   0.760   9.945 -2.3848 -1.1144 -1.6403
   89SAPS   H3Y 8631   5.491   0.920  10.047  0.5319  2.4696 -1.6020
   89SAPS   C34 8632   5.480   0.947   9.843  0.5252  0.3531  0.4057
   89SAPS   H4X 8633   5.587   0.975   9.834  1.4324 -2.7443  0.4464
   89SAPS   H4Y 8634   5.412   1.035   9.841  1.9000  1.4286 -0.9606
   89SAPS   C35 8635   5.458   0.866   9.717  0.4394  0.7284  0.4632
   89SAPS   H5X 8636   5.353   0.834   9.699  1.1234 -1.4251  0.0289
   89SAPS   H5Y 8637   5.511   0.769   9.707 -0.4791  0.2463  0.1537
   89SAPS   C36 8638   5.483   0.954   9.596  0.3599  0.1503  0.9970
   89SAPS   H6X 8639   5.593   0.956   9.580  0.1728 -2.0432 -1.2328
   89SAPS   H6Y 8640   5.440   1.054   9.619 -2.2816 -0.6411 -0.0930
   89SAPS   C37 8641   5.425   0.903   9.460  0.1931  0.5299  0.8442
   89SAPS   H7X 8642   5.316   0.924   9.463  0.4032  1.8130  0.3385
   89SAPS   H7Y 8643   5.442   0.794   9.457 -2.5289  0.0432 -1.7087
   89SAPS   C38 8644   5.482   0.978   9.340  0.1301  0.1824  0.6474
   89SAPS   H8X 8645   5.590   0.952   9.336  0.0817 -0.2137 -4.3047
   89SAPS   H8Y 8646   5.474   1.087   9.358  0.2143  0.1678  0.7731
   89SAPS   C39 8647   5.409   0.943   9.212  0.0142  0.2044 -0.1609
   89SAPS   H9X 8648   5.307   0.986   9.224 -0.2427 -0.6884  0.9393
   89SAPS   H9Y 8649   5.392   0.834   9.200  2.3591 -0.1814 -0.3783
   89SAPS  C310 8650   5.462   0.991   9.081 -0.1554  0.0275  1.0983
   89SAPS  H10X 8651   5.565   0.957   9.058  0.3869  3.0265 -1.6133
   89SAPS  H10Y 8652   5.455   1.102   9.076 -1.9403 -0.0958 -0.7435
   89SAPS  C311 8653   5.370   0.932   8.968 -0.4942 -0.0321 -0.5871
   89SAPS  H11X 8654   5.265   0.963   8.987 -1.0668 -2.3225  0.4060
   89SAPS  H11Y 8655   5.362   0.821   8.970 -0.0540 -0.0553  0.0797
   89SAPS  C312 8656   5.410   0.982   8.831 -0.2597  0.8749  0.2380
   89SAPS  H12X 8657   5.520   0.975   8.815 -0.0797  2.0696  0.8198
   89SAPS  H12Y 8658   5.400   1.092   8.818  0.4417  0.9482  0.2812
   89SAPS  C313 8659   5.325   0.903   8.725 -0.1981 -0.0810 -0.1591
   89SAPS  H13X 8660   5.218   0.932   8.727 -0.4204 -0.7105 -1.4488
   89SAPS  H13Y 8661   5.338   0.797   8.755  0.6351 -0.4863 -1.8211
   89SAPS  C314 8662   5.378   0.928   8.580 -0.1621  0.4841  0.6031
   89SAPS  H14X 8663   5.458   0.858   8.549 -0.3070  0.6980 -0.2740
   89SAPS  H14Y 8664   5.428   1.027   8.579 -1.0475  0.9419 -0.0056
   89SAPS  C315 8665   5.261   0.914   8.474  0.6950 -0.4420 -0.3512
   89SAPS  H15X 8666   5.312   0.926   8.376 -1.1290  1.1426 -1.1509
   89SAPS  H15Y 8667   5.188   0.997   8.486  1.2166 -0.1310  0.7776
   89SAPS  C316 8668   5.188   0.776   8.461 -0.6741 -0.6179 -0.3040
   89SAPS  H16X 8669   5.099   0.791   8.397 -0.2827  0.4757 -0.6176
   89SAPS  H16Y 8670   5.147   0.751   8.561  0.7763 -2.8087 -0.1988
   89SAPS  C317 8671   5.268   0.663   8.406  0.2480  0.2188 -0.2116
   89SAPS  H17X 8672   5.354   0.646   8.473  1.0699 -0.3288 -1.3736
   89SAPS  H17Y 8673   5.308   0.686   8.305 -1.2795  1.6797 -0.5373
   89SAPS  C318 8674   5.192   0.535   8.404 -0.4669 -0.0613 -0.3492
   89SAPS  H18X 8675   5.117   0.528   8.323 -0.5362 -1.2089 -0.2051
   89SAPS  H18Y 8676   5.143   0.515   8.502  0.6245  1.0205  0.4573
   89SAPS  H18Z 8677   5.256   0.445   8.390  1.4818  0.9092  1.6478
   90SAPS     N 8678   0.711   0.531  10.654  0.0584 -0.0195  0.3141
   90SAPS   HN1 8679   0.762   0.618  10.680 -1.9880  0.7855  1.8367
   90SAPS   HN2 8680   0.725   0.513  10.552 -0.0537 -1.6018  0.5622
   90SAPS   HN3 8681   0.611   0.560  10.654 -0.3137 -1.1213 -1.4872
   90SAPS   C12 8682   0.728   0.415  10.744  0.8549 -0.6691 -1.5263
   90SAPS  H12A 8683   0.833   0.387  10.745  0.7039 -1.3266  0.6877
   90SAPS   C13 8684   0.697   0.440  10.888  0.8064  0.8068  0.2078
   90SAPS  O13A 8685   0.631   0.543  10.922 -0.0149  0.5083  0.2346
   90SAPS  O13B 8686   0.731   0.357  10.978 -0.4645 -0.2435  0.3629
   90SAPS   C11 8687   0.636   0.288  10.704  0.1715 -0.2028  0.4665
   90SAPS  H11A 8688   0.639   0.201  10.773  1.4714  0.6237  1.4909
   90SAPS  H11B 8689   0.693   0.252  10.616  0.0300  0.2133  0.2021
   90SAPS     P 8690   0.415   0.231  10.591 -0.3452  0.0267  0.1077
   90SAPS   O13 8691   0.451   0.092  10.619 -0.6246  0.4003 -0.4176
   90SAPS   O14 8692   0.275   0.261  10.630  0.2000 -0.4809  0.1132
   90SAPS   O12 8693   0.502   0.323  10.675 -0.1363 -0.6993 -0.6424
   90SAPS   O11 8694   0.438   0.266  10.440 -0.0150 -0.0059  0.0123
   90SAPS    C1 8695   0.330   0.278  10.351 -0.7879 -0.0546 -0.4007
   90SAPS    HA 8696   0.244   0.330  10.399 -2.0106 -0.1438 -2.3575
   90SAPS    HB 8697   0.370   0.326  10.259 -1.5066  0.6078 -0.3764
   90SAPS    C2 8698   0.278   0.139  10.315  0.5306  0.3397  0.2388
   90SAPS    HS 8699   0.266   0.082  10.409 -0.7522 -0.7862 -0.5569
   90SAPS   O21 8700   0.377   0.074  10.230  0.1361  0.1407  0.0395
   90SAPS   C21 8701   0.366  -0.054  10.235  0.1401  0.2840  0.1933
   90SAPS   O22 8702   0.281  -0.111  10.304 -0.5515 -0.1944 -0.3032
   90SAPS   C22 8703   0.466  -0.121  10.139  0.5624 -0.2441  0.3667
   90SAPS   H2R 8704   0.500  -0.046  10.064 -1.3382 -0.6778 -0.9924
   90SAPS   H2S 8705   0.560  -0.139  10.196  0.3968  1.7545  1.3531
   90SAPS    C3 8706   0.138   0.163  10.241 -0.2924 -0.2386  0.3925
   90SAPS    HX 8707   0.067   0.202  10.317  2.2416  2.6773  1.4717
   90SAPS    HY 8708   0.095   0.066  10.209 -0.6035 -0.0561  0.2580
   90SAPS   O31 8709   0.146   0.261  10.136 -0.0336  0.2373 -0.2947
   90SAPS   C31 8710   0.189   0.216  10.013 -0.3983  0.1748  0.1009
   90SAPS   O32 8711   0.169   0.106   9.970 -0.3100 -0.3700  0.4174
   90SAPS   C32 8712   0.246   0.334   9.935 -0.0085 -0.2831  0.7049
   90SAPS   H2X 8713   0.307   0.391  10.008  0.9312 -1.9510  1.2806
   90SAPS   H2Y 8714   0.155   0.388   9.901  0.4011 -0.0446 -0.0515
   90SAPS   C23 8715   0.422  -0.254  10.079  0.6975  0.5033  0.2109
   90SAPS   H3R 8716   0.327  -0.240  10.024 -0.4745 -0.9032  1.7756
   90SAPS   H3S 8717   0.405  -0.334  10.154  1.1031  0.9643  0.8020
   90SAPS   C24 8718   0.531  -0.314   9.978  0.3774  0.1523  0.0307
   90SAPS   H4R 8719   0.626  -0.329  10.033 -0.0908 -1.9321  0.3680
   90SAPS   H4S 8720   0.551  -0.238   9.900 -0.7749  1.3359  0.8350
   90SAPS   C25 8721   0.490  -0.452   9.920  0.7410 -0.2191 -0.0841
   90SAPS   H5R 8722   0.475  -0.537   9.989  2.1502 -1.5514 -1.3324
   90SAPS   C26 8723   0.463  -0.468   9.784  0.5039  0.6334  0.3490
   90SAPS   H6R 8724   0.420  -0.563   9.750  0.0017  1.2833 -0.8829
   90SAPS   C27 8725   0.489  -0.361   9.677  0.3886 -0.0977  0.0068
   90SAPS   H7R 8726   0.433  -0.266   9.689 -1.4903 -0.9954 -1.1082
   90SAPS   H7S 8727   0.457  -0.398   9.577  1.5644  0.4587 -0.5880
   90SAPS   C28 8728   0.627  -0.321   9.651 -0.8552 -0.6425  0.1052
   90SAPS   H8R 8729   0.679  -0.279   9.738 -1.2527  0.0550  0.0161
   90SAPS   C29 8730   0.700  -0.330   9.537 -0.2551 -0.4082  0.3304
   90SAPS   H9R 8731   0.799  -0.282   9.537 -1.3130  1.9698  0.4695
   90SAPS  C210 8732   0.640  -0.386   9.405 -0.5111  0.1333  0.0818
   90SAPS  H10R 8733   0.571  -0.470   9.426  0.9460 -0.9277  0.7178
   90SAPS  H10S 8734   0.719  -0.439   9.348 -3.3146 -0.3146 -3.8713
   90SAPS  C211 8735   0.580  -0.273   9.327  0.5709  0.1571  0.2398
   90SAPS  H11R 8736   0.516  -0.217   9.397 -0.5095  0.7310 -1.1400
   90SAPS  C212 8737   0.600  -0.225   9.202  0.0244 -0.2969 -0.1894
   90SAPS  H12R 8738   0.553  -0.132   9.168 -0.2995 -0.2396  0.4039
   90SAPS  C213 8739   0.695  -0.283   9.109 -0.4204 -0.5189 -0.6569
   90SAPS  H13R 8740   0.677  -0.392   9.097 -0.4720 -0.2174 -4.1983
   90SAPS  H13S 8741   0.798  -0.280   9.151 -0.0555 -0.7993 -1.5070
   90SAPS  C214 8742   0.686  -0.220   8.975 -0.7006  0.3355 -0.0747
   90SAPS  H14R 8743   0.647  -0.118   8.961 -0.1422  0.9005  2.0812
   90SAPS  C215 8744   0.701  -0.284   8.860  0.5968 -0.8930  0.2002
   90SAPS  H15R 8745   0.703  -0.225   8.768  1.3283 -2.6619 -0.9928
   90SAPS  C216 8746   0.753  -0.422   8.838 -0.1498 -0.3764  0.6004
   90SAPS  H16R 8747   0.782  -0.481   8.928 -1.7686 -3.0208 -0.4719
   90SAPS  H16S 8748   0.845  -0.414   8.777 -0.2104 -0.5740  0.4802
   90SAPS  C217 8749   0.647  -0.502   8.748 -0.5307 -0.7389  0.1630
   90SAPS  H17R 8750   0.551  -0.490   8.803  1.1275 -1.3831  3.4397
   90SAPS  H17S 8751   0.682  -0.607   8.763  1.1001  0.0022  2.0038
   90SAPS  C218 8752   0.646  -0.477   8.602 -0.3052  0.0280  0.2803
   90SAPS  H18R 8753   0.745  -0.494   8.555 -1.3407  0.1948 -2.1254
   90SAPS  H18S 8754   0.618  -0.372   8.580 -0.0822  0.2051  0.8267
   90SAPS  C219 8755   0.546  -0.564   8.544  0.1090  1.3162  0.3087
   90SAPS  H19R 8756   0.454  -0.566   8.606 -1.0587  1.7021 -1.3565
   90SAPS  H19S 8757   0.574  -0.671   8.534  0.2500  1.5111 -2.0334
   90SAPS  C220 8758   0.507  -0.527   8.403  0.2114 -0.4604  0.0623
   90SAPS  H20R 8759   0.467  -0.424   8.396  1.3410 -0.1125 -2.8864
   90SAPS  H20S 8760   0.426  -0.590   8.359  0.7494 -0.7364 -0.5511
   90SAPS  H20T 8761   0.598  -0.517   8.340  0.2765  0.0495  0.2316
   90SAPS   C33 8762   0.336   0.292   9.823  0.0862  0.0934 -0.1636
   90SAPS   H3X 8763   0.413   0.221   9.860  0.9085  0.8881 -0.3073
   90SAPS   H3Y 8764   0.375   0.380   9.767  1.4651  0.4170  1.2406
   90SAPS   C34 8765   0.256   0.225   9.706 -0.0356 -0.3129 -0.0277
   90SAPS   H4X 8766   0.193   0.138   9.733  1.9992 -1.9743 -0.3447
   90SAPS   H4Y 8767   0.332   0.184   9.636  0.4189 -0.2812  0.4367
   90SAPS   C35 8768   0.163   0.321   9.620 -0.4078 -0.2944 -0.7632
   90SAPS   H5X 8769   0.153   0.419   9.672  0.0699  0.7934 -2.6061
   90SAPS   H5Y 8770   0.058   0.286   9.620 -0.3934 -0.5538  1.9183
   90SAPS   C36 8771   0.213   0.345   9.478 -0.1805 -0.4430  0.6925
   90SAPS   H6X 8772   0.324   0.351   9.479 -0.2254  0.5158  1.7004
   90SAPS   H6Y 8773   0.172   0.442   9.439 -1.2035 -0.9232  0.5309
   90SAPS   C37 8774   0.178   0.235   9.377 -0.3394  0.0684  1.3118
   90SAPS   H7X 8775   0.069   0.214   9.380 -0.6818  0.4215 -2.8726
   90SAPS   H7Y 8776   0.224   0.139   9.410  2.7153  0.7553 -0.5944
   90SAPS   C38 8777   0.217   0.261   9.233  0.8718 -0.1099  0.4713
   90SAPS   H8X 8778   0.326   0.270   9.214  1.1765 -1.5065  1.3654
   90SAPS   H8Y 8779   0.159   0.354   9.216  0.4830 -0.7086 -1.8282
   90SAPS   C39 8780   0.166   0.155   9.140  0.1720  0.7988  0.7526
   90SAPS   H9X 8781   0.160   0.208   9.042 -0.0859  0.3044  0.4966
   90SAPS   H9Y 8782   0.061   0.122   9.158  0.8216 -0.7037  2.0340
   90SAPS  C310 8783   0.261   0.030   9.149  0.5127  0.0053  0.1618
   90SAPS  H10X 8784   0.235  -0.022   9.244  1.0279  0.1990  0.4080
   90SAPS  H10Y 8785   0.367   0.061   9.137  0.7847 -1.4821 -1.9874
   90SAPS  C311 8786   0.224  -0.059   9.031  0.1003  0.1965  0.1723
   90SAPS  H11X 8787   0.258  -0.003   8.942 -0.6561  1.3135  0.5671
   90SAPS  H11Y 8788   0.113  -0.066   9.028  0.0900 -1.0554  1.7583
   90SAPS  C312 8789   0.283  -0.201   9.032 -0.1322 -0.2843 -0.1530
   90SAPS  H12X 8790   0.247  -0.253   9.123  0.6315 -3.1266 -1.3440
   90SAPS  H12Y 8791   0.393  -0.191   9.042  0.0894 -1.7336 -0.7405
   90SAPS  C313 8792   0.244  -0.290   8.906  0.0923  0.9884 -0.0410
   90SAPS  H13X 8793   0.135  -0.310   8.901  0.4937 -1.2622 -0.9581
   90SAPS  H13Y 8794   0.296  -0.388   8.915 -1.7529 -0.3306 -2.3595
   90SAPS  C314 8795   0.292  -0.217   8.777 -0.0358  0.3034  0.0304
   90SAPS  H14X 8796   0.403  -0.211   8.782  0.0543 -1.1634  0.0287
   90SAPS  H14Y 8797   0.243  -0.117   8.770 -1.7692 -0.3346  1.9463
   90SAPS  C315 8798   0.244  -0.292   8.651  0.1986  0.3359 -0.4466
   90SAPS  H15X 8799   0.284  -0.396   8.652 -1.8994 -0.5114 -0.2192
   90SAPS  H15Y 8800   0.295  -0.251   8.561 -1.2304  0.1234 -1.3908
   90SAPS  C316 8801   0.092  -0.276   8.623  0.1515  0.2409 -0.3366
   90SAPS  H16X 8802   0.084  -0.165   8.620 -1.0395  0.2761  1.8701
   90SAPS  H16Y 8803   0.040  -0.316   8.714  1.2653  1.8016  1.0454
   90SAPS  C317 8804   0.043  -0.353   8.502  0.6630  0.2910 -0.7556
   90SAPS  H17X 8805   0.110  -0.326   8.418  0.9698  0.0035 -0.6035
   90SAPS  H17Y 8806  -0.061  -0.321   8.479  0.0751 -0.3367  0.8723
   90SAPS  C318 8807   0.042  -0.501   8.510  0.1342  0.1974 -0.5400
   90SAPS  H18X 8808  -0.021  -0.545   8.590  0.5799  1.7746  0.7307
   90SAPS  H18Y 8809   0.147  -0.536   8.518  0.0143  0.1330  1.1978
   90SAPS  H18Z 8810   0.004  -0.539   8.413  0.7982  0.4567 -0.9090
   91SAPS     N 8811   5.210   5.274   5.939 -0.2913  0.2061  0.3229
   91SAPS   HN1 8812   5.218   5.178   5.978  0.3793  0.9814  2.2106
   91SAPS   HN2 8813   5.197   5.349   6.010  0.7607 -0.0473  0.8101
   91SAPS   HN3 8814   5.138   5.280   5.864  0.4568  2.4621 -0.2948
   91SAPS   C12 8815   5.356   5.301   5.897  0.0790  0.3396 -0.4281
   91SAPS  H12A 8816   5.384   5.238   5.814  2.5418 -1.1854  1.4059
   91SAPS   C13 8817   5.387   5.453   5.852 -0.3537 -0.5851 -0.7657
   91SAPS  O13A 8818   5.294   5.535   5.862  0.4705 -0.0520  0.0691
   91SAPS  O13B 8819   5.499   5.484   5.805  0.2496 -0.2656 -0.1938
   91SAPS   C11 8820   5.439   5.262   6.025  0.0354  0.1031 -0.6228
   91SAPS  H11A 8821   5.404   5.317   6.115  1.8110 -0.2978  0.3643
   91SAPS  H11B 8822   5.543   5.285   5.993 -0.0232  0.8180 -0.3101
   91SAPS     P 8823   5.552   5.033   6.084 -0.1876  0.2515  0.1105
   91SAPS   O13 8824   5.534   4.902   6.022  0.1103 -0.0886  0.3492
   91SAPS   O14 8825   5.672   5.104   6.061 -0.1547  0.1576 -0.1052
   91SAPS   O12 8826   5.429   5.124   6.042  0.1061 -0.0882  0.0505
   91SAPS   O11 8827   5.517   5.027   6.238  0.2831  0.6383 -1.1275
   91SAPS    C1 8828   5.616   5.006   6.341 -0.1793  0.0178  1.2229
   91SAPS    HA 8829   5.604   4.900   6.374  0.6647 -0.8982 -1.1819
   91SAPS    HB 8830   5.718   5.022   6.302 -0.6953  0.8143  0.1564
   91SAPS    C2 8831   5.579   5.095   6.460 -0.2846 -0.3178 -0.0401
   91SAPS    HS 8832   5.666   5.091   6.528  0.5467 -1.0214 -1.1262
   91SAPS   O21 8833   5.454   5.055   6.528 -0.4979 -0.0067 -0.2299
   91SAPS   C21 8834   5.468   4.975   6.633 -0.4214  0.1264  0.1998
   91SAPS   O22 8835   5.568   4.918   6.668  0.0728  0.0238 -0.6851
   91SAPS   C22 8836   5.334   4.960   6.707  0.1530  0.7023 -0.4099
   91SAPS   H2R 8837   5.252   4.991   6.639  0.9169 -0.1957 -1.7972
   91SAPS   H2S 8838   5.318   4.851   6.722 -0.6405  0.5885 -1.9758
   91SAPS    C3 8839   5.558   5.241   6.416 -0.3789 -0.3204 -0.5777
   91SAPS    HX 8840   5.464   5.258   6.360 -0.5294 -1.8894 -0.8501
   91SAPS    HY 8841   5.641   5.261   6.345 -0.5679  1.7150 -0.2833
   91SAPS   O31 8842   5.575   5.336   6.529 -0.4778 -0.6099  0.3319
   91SAPS   C31 8843   5.465   5.369   6.594 -0.4308  0.2113  0.5298
   91SAPS   O32 8844   5.348   5.341   6.560 -0.6305 -0.1900 -0.3836
   91SAPS   C32 8845   5.515   5.424   6.728  0.4801 -0.1536  0.5607
   91SAPS   H2X 8846   5.571   5.519   6.714  0.2826 -0.0260  0.6325
   91SAPS   H2Y 8847   5.588   5.349   6.767  1.5931  0.1529 -0.8266
   91SAPS   C23 8848   5.357   5.023   6.844 -0.0922  0.6719  0.5904
   91SAPS   H3R 8849   5.406   5.122   6.836  0.0164  0.4768 -1.9573
   91SAPS   H3S 8850   5.432   4.960   6.896  2.0441  2.3946 -0.2407
   91SAPS   C24 8851   5.228   5.038   6.931  0.0450 -0.0697 -0.3744
   91SAPS   H4R 8852   5.165   5.111   6.875  2.8343  0.8645 -2.5392
   91SAPS   H4S 8853   5.258   5.097   7.021  0.2815  0.1005 -0.5626
   91SAPS   C25 8854   5.154   4.912   6.959 -0.0096  0.5124 -0.0473
   91SAPS   H5R 8855   5.064   4.907   6.897  0.3426  0.5882 -0.5739
   91SAPS   C26 8856   5.186   4.812   7.043  0.3084 -0.0294 -0.1247
   91SAPS   H6R 8857   5.146   4.712   7.016 -3.4250  0.3364  3.1224
   91SAPS   C27 8858   5.308   4.817   7.138  0.0846 -0.2745 -0.4539
   91SAPS   H7R 8859   5.288   4.893   7.217 -1.3485 -0.7462 -0.3267
   91SAPS   H7S 8860   5.394   4.859   7.082 -0.2473  0.8057 -0.1883
   91SAPS   C28 8861   5.351   4.680   7.190  0.0889 -0.0612  0.1185
   91SAPS   H8R 8862   5.300   4.591   7.150 -0.3472  0.3623 -0.2654
   91SAPS   C29 8863   5.449   4.658   7.287  0.1066 -0.5025  0.4318
   91SAPS   H9R 8864   5.490   4.557   7.295  0.8293 -0.3575 -0.9986
   91SAPS  C210 8865   5.525   4.758   7.362 -0.4765  0.3710  0.3913
   91SAPS  H10R 8866   5.458   4.805   7.437  3.1622  3.0654  2.2986
   91SAPS  H10S 8867   5.556   4.841   7.295  1.8022  1.7705  2.9625
   91SAPS  C211 8868   5.647   4.709   7.422  0.0868 -0.2251 -0.6384
   91SAPS  H11R 8869   5.733   4.708   7.354 -0.9376  1.2737 -2.0411
   91SAPS  C212 8870   5.656   4.665   7.550  0.2854  0.0405 -0.7984
   91SAPS  H12R 8871   5.756   4.636   7.584 -0.1119 -1.8216 -1.1113
   91SAPS  C213 8872   5.544   4.651   7.652  0.0392  0.1661  0.8415
   91SAPS  H13R 8873   5.484   4.557   7.644  1.5351 -0.7499 -0.2959
   91SAPS  H13S 8874   5.470   4.732   7.638  0.9985  1.1518  1.3755
   91SAPS  C214 8875   5.601   4.675   7.788  0.2776 -0.7212 -0.5223
   91SAPS  H14R 8876   5.626   4.779   7.813 -0.6172 -1.1608  2.6238
   91SAPS  C215 8877   5.630   4.587   7.886  0.1119 -0.5144  0.3087
   91SAPS  H15R 8878   5.666   4.637   7.977 -0.5099  1.6437 -0.5588
   91SAPS  C216 8879   5.597   4.443   7.882 -0.1966 -0.3746  0.0004
   91SAPS  H16R 8880   5.682   4.379   7.916  0.1249 -0.4950 -1.0074
   91SAPS  H16S 8881   5.580   4.403   7.780 -1.3229 -2.5267  0.9681
   91SAPS  C217 8882   5.477   4.388   7.962  0.2656  0.4269 -0.1020
   91SAPS  H17R 8883   5.459   4.282   7.933  2.8604  0.0631 -0.6079
   91SAPS  H17S 8884   5.383   4.443   7.937  0.0276 -0.2478 -0.7325
   91SAPS  C218 8885   5.500   4.414   8.113  0.2884  0.2199  0.9872
   91SAPS  H18R 8886   5.495   4.525   8.115 -0.6440  0.2123  0.2172
   91SAPS  H18S 8887   5.600   4.379   8.148 -0.1149 -1.0436  0.9321
   91SAPS  C219 8888   5.405   4.345   8.207 -0.4958  0.1886 -0.3412
   91SAPS  H19R 8889   5.399   4.236   8.186  2.6608 -0.6417  2.2784
   91SAPS  H19S 8890   5.304   4.387   8.189 -1.0556 -0.7754  0.4273
   91SAPS  C220 8891   5.429   4.352   8.353 -0.7434  0.1325 -0.1896
   91SAPS  H20R 8892   5.528   4.311   8.380 -0.3788  0.6008 -0.7961
   91SAPS  H20S 8893   5.353   4.291   8.406 -1.0316 -0.8832 -1.7101
   91SAPS  H20T 8894   5.439   4.457   8.390  1.0778  0.6958 -2.0444
   91SAPS   C33 8895   5.404   5.444   6.829 -0.1047 -0.1827 -0.1368
   91SAPS   H3X 8896   5.350   5.349   6.849  0.9479 -0.3911  1.9895
   91SAPS   H3Y 8897   5.336   5.526   6.799 -0.4722 -0.2442  0.5234
   91SAPS   C34 8898   5.467   5.470   6.974  0.4918  0.1461  0.2501
   91SAPS   H4X 8899   5.406   5.537   7.038 -1.9107 -0.9038 -0.8409
   91SAPS   H4Y 8900   5.555   5.535   6.954 -0.4566  1.6526  0.7939
   91SAPS   C35 8901   5.504   5.352   7.059 -0.1762  1.0685  0.5392
   91SAPS   H5X 8902   5.554   5.289   6.982 -0.4495  1.6298 -0.1031
   91SAPS   H5Y 8903   5.421   5.299   7.111  1.5695 -0.3555  2.0310
   91SAPS   C36 8904   5.614   5.374   7.159 -0.0719 -0.5250 -0.2722
   91SAPS   H6X 8905   5.669   5.466   7.129  0.1327  0.2702  2.2822
   91SAPS   H6Y 8906   5.686   5.291   7.174  1.1042  0.6246  0.7660
   91SAPS   C37 8907   5.548   5.395   7.292 -0.2397  0.3107 -0.4222
   91SAPS   H7X 8908   5.505   5.302   7.335 -0.6817  0.7930  0.1888
   91SAPS   H7Y 8909   5.466   5.469   7.288 -1.1362 -0.0493  4.6339
   91SAPS   C38 8910   5.651   5.444   7.400  0.2540 -0.6486 -0.4641
   91SAPS   H8X 8911   5.735   5.371   7.400  0.9986  0.1436 -2.3845
   91SAPS   H8Y 8912   5.600   5.434   7.499  2.9759  0.7529  1.2084
   91SAPS   C39 8913   5.715   5.585   7.380  0.3124  0.1662  0.1953
   91SAPS   H9X 8914   5.630   5.649   7.348 -0.5291 -0.4074  1.2174
   91SAPS   H9Y 8915   5.790   5.575   7.298 -1.6379  0.6399 -1.7459
   91SAPS  C310 8916   5.808   5.626   7.501 -0.6035 -0.6851 -0.4705
   91SAPS  H10X 8917   5.811   5.736   7.489  0.1850 -0.4688  1.3807
   91SAPS  H10Y 8918   5.904   5.571   7.497  0.9259  1.5988  1.6146
   91SAPS  C311 8919   5.743   5.600   7.635  0.1429  0.3385  0.0934
   91SAPS  H11X 8920   5.726   5.491   7.647 -1.3602  0.5505  0.1082
   91SAPS  H11Y 8921   5.646   5.651   7.658 -0.5732 -0.3954 -1.1463
   91SAPS  C312 8922   5.835   5.631   7.754  0.5546  0.6699 -0.4272
   91SAPS  H12X 8923   5.865   5.737   7.744  0.6961  0.4505 -3.1540
   91SAPS  H12Y 8924   5.920   5.561   7.741 -0.0609  0.1985 -2.3634
   91SAPS  C313 8925   5.763   5.622   7.892 -0.6262  0.3986 -0.0913
   91SAPS  H13X 8926   5.724   5.520   7.907  2.0614 -0.9667 -1.6648
   91SAPS  H13Y 8927   5.669   5.681   7.891 -2.2508 -2.0609  0.6068
   91SAPS  C314 8928   5.850   5.648   8.017 -0.0945 -0.2985 -0.1129
   91SAPS  H14X 8929   5.865   5.755   8.041  0.0344 -0.6276  1.4011
   91SAPS  H14Y 8930   5.952   5.606   8.008 -0.3412 -0.9245 -0.0468
   91SAPS  C315 8931   5.786   5.569   8.138  0.4504  0.0073 -0.3186
   91SAPS  H15X 8932   5.795   5.461   8.114  3.2462  0.3894 -1.3976
   91SAPS  H15Y 8933   5.680   5.599   8.143  0.0323 -1.5278  0.8038
   91SAPS  C316 8934   5.854   5.618   8.270 -0.4854 -0.2574  0.0740
   91SAPS  H16X 8935   5.827   5.725   8.282  1.4471  0.0916  1.9222
   91SAPS  H16Y 8936   5.964   5.610   8.251 -0.4686  3.1451 -2.1720
   91SAPS  C317 8937   5.815   5.527   8.387  1.1266  0.0256  0.3958
   91SAPS  H17X 8938   5.828   5.419   8.365 -0.9191  0.1126 -1.5795
   91SAPS  H17Y 8939   5.705   5.543   8.383  1.0977  0.8257  2.6771
   91SAPS  C318 8940   5.871   5.569   8.523 -0.1392  0.5849  0.4685
   91SAPS  H18X 8941   5.976   5.533   8.531 -1.7696 -4.8717  0.9253
   91SAPS  H18Y 8942   5.815   5.520   8.606 -0.7484  0.2242 -0.1523
   91SAPS  H18Z 8943   5.859   5.678   8.541 -2.1371  0.5207 -0.2955
   92SAPS     N 8944   5.078   2.790   6.138  0.1650  0.3199 -0.2652
   92SAPS   HN1 8945   5.165   2.783   6.081 -0.2258 -2.4552 -0.6879
   92SAPS   HN2 8946   5.087   2.720   6.215 -0.1702 -1.3561 -1.6997
   92SAPS   HN3 8947   5.003   2.765   6.071  0.9641  2.5369 -2.0911
   92SAPS   C12 8948   5.039   2.928   6.181 -0.0330  0.5562  0.3188
   92SAPS  H12A 8949   5.130   2.973   6.217  0.5641 -1.0116  0.8873
   92SAPS   C13 8950   4.978   3.020   6.076 -0.3720  0.2623  0.4494
   92SAPS  O13A 8951   4.937   2.975   5.964 -0.1125  0.5180 -0.5468
   92SAPS  O13B 8952   4.966   3.141   6.105 -0.4114 -0.0622  0.2820
   92SAPS   C11 8953   4.942   2.907   6.298 -0.3610 -0.1598 -0.2799
   92SAPS  H11A 8954   4.849   2.865   6.254 -0.5774 -0.6133  0.5845
   92SAPS  H11B 8955   4.919   3.007   6.340 -1.8798 -0.9343  0.8352
   92SAPS     P 8956   4.896   2.761   6.509 -0.0864 -0.2300 -0.0155
   92SAPS   O13 8957   4.786   2.689   6.448  0.4619 -0.2576 -0.1000
   92SAPS   O14 8958   4.978   2.687   6.608 -0.1839 -0.2508 -0.0937
   92SAPS   O12 8959   4.995   2.813   6.400  0.6763 -0.3372  0.5417
   92SAPS   O11 8960   4.832   2.883   6.583  0.1885 -0.1131  0.4821
   92SAPS    C1 8961   4.902   2.966   6.671  0.0602 -0.3453  0.3599
   92SAPS    HA 8962   5.009   2.967   6.639  0.5810  1.0770  2.0182
   92SAPS    HB 8963   4.864   3.070   6.667  1.6513  0.2718  0.4880
   92SAPS    C2 8964   4.894   2.923   6.821  0.0085 -0.1548  0.3037
   92SAPS    HS 8965   4.932   2.819   6.826  1.6821  0.4108 -0.2111
   92SAPS   O21 8966   4.762   2.942   6.864  0.4354 -0.6287  0.6503
   92SAPS   C21 8967   4.685   2.832   6.860  0.1968  0.5419  0.2619
   92SAPS   O22 8968   4.715   2.722   6.815 -0.3413 -0.0514  0.2459
   92SAPS   C22 8969   4.561   2.858   6.935 -0.3134  0.9775  0.2592
   92SAPS   H2R 8970   4.590   2.928   7.016  1.1759  1.0498 -0.2978
   92SAPS   H2S 8971   4.481   2.904   6.872 -1.9344 -1.4787  0.4092
   92SAPS    C3 8972   4.984   3.006   6.906 -0.9209 -0.4561  0.2979
   92SAPS    HX 8973   4.964   2.971   7.010 -0.9524 -2.7092 -0.4173
   92SAPS    HY 8974   4.960   3.113   6.888  2.3971  0.2481 -0.5390
   92SAPS   O31 8975   5.122   2.990   6.863 -0.2784 -0.3009  0.4430
   92SAPS   C31 8976   5.191   2.910   6.922  0.5006  0.4643 -0.3294
   92SAPS   O32 8977   5.149   2.832   7.010  0.2569 -0.2096 -0.5157
   92SAPS   C32 8978   5.340   2.912   6.876  0.0705 -0.2245  0.3100
   92SAPS   H2X 8979   5.352   2.987   6.795 -1.0127 -0.3236  0.0477
   92SAPS   H2Y 8980   5.348   2.810   6.832 -0.9474  0.0067 -0.4193
   92SAPS   C23 8981   4.504   2.725   7.012 -0.0708  0.0404 -0.0126
   92SAPS   H3R 8982   4.587   2.683   7.072 -0.6232 -1.4362 -0.2426
   92SAPS   H3S 8983   4.489   2.645   6.937  1.0963 -0.7041  0.5182
   92SAPS   C24 8984   4.383   2.754   7.104  0.0499 -0.0294 -0.0018
   92SAPS   H4R 8985   4.401   2.837   7.176  0.6247  1.0828 -1.3750
   92SAPS   H4S 8986   4.363   2.660   7.160  0.9553 -0.5562 -0.5380
   92SAPS   C25 8987   4.244   2.772   7.030 -0.2377  0.6649  0.2502
   92SAPS   H5R 8988   4.240   2.700   6.947  2.8417  0.7064 -0.0289
   92SAPS   C26 8989   4.145   2.863   7.045 -0.7920 -0.0766  0.1750
   92SAPS   H6R 8990   4.050   2.857   6.990  0.2904 -0.3213 -1.7894
   92SAPS   C27 8991   4.140   2.962   7.158  0.2612 -0.0792 -0.5866
   92SAPS   H7R 8992   4.051   3.028   7.143  1.0586  0.5161 -3.2530
   92SAPS   H7S 8993   4.229   3.022   7.131  1.5960 -1.6611  0.1610
   92SAPS   C28 8994   4.152   2.910   7.304 -0.0542 -0.3195  0.3506
   92SAPS   H8R 8995   4.085   2.827   7.334  2.2083 -1.8562  1.5267
   92SAPS   C29 8996   4.247   2.943   7.394 -0.2711  0.0407 -0.4932
   92SAPS   H9R 8997   4.241   2.892   7.491  0.6163  0.3304 -0.2783
   92SAPS  C210 8998   4.351   3.052   7.388  0.5791 -0.2753  0.5056
   92SAPS  H10R 8999   4.323   3.118   7.303 -1.9841 -2.7431 -0.7372
   92SAPS  H10S 9000   4.452   3.014   7.362  1.1132  1.3395  0.0783
   92SAPS  C211 9001   4.366   3.136   7.507 -0.0394 -0.5762  0.1790
   92SAPS  H11R 9002   4.292   3.217   7.515 -0.1656 -0.8509  2.5575
   92SAPS  C212 9003   4.461   3.117   7.602  0.2099 -0.3730 -0.3442
   92SAPS  H12R 9004   4.476   3.194   7.679  0.4008 -0.7284 -0.0214
   92SAPS  C213 9005   4.565   3.011   7.606  0.4211  0.0701  1.0867
   92SAPS  H13R 9006   4.593   2.999   7.499 -0.2483  0.7975  0.8231
   92SAPS  H13S 9007   4.520   2.913   7.632 -0.4370 -0.0085 -0.5657
   92SAPS  C214 9008   4.692   3.039   7.687  0.5166  0.3640  0.3311
   92SAPS  H14R 9009   4.745   3.129   7.653 -0.7157  0.5309 -1.2735
   92SAPS  C215 9010   4.749   2.961   7.782 -0.2716  0.6679  0.5440
   92SAPS  H15R 9011   4.852   2.975   7.818  0.1319 -0.3411 -0.1801
   92SAPS  C216 9012   4.689   2.836   7.847  0.2519  0.2757  0.0329
   92SAPS  H16R 9013   4.749   2.751   7.808 -1.7850 -1.0264 -0.3664
   92SAPS  H16S 9014   4.587   2.806   7.815  1.0717 -1.5906 -0.9785
   92SAPS  C217 9015   4.698   2.855   7.998  0.1888  0.0891  0.1690
   92SAPS  H17R 9016   4.640   2.947   8.020 -0.3868  0.3552 -2.2423
   92SAPS  H17S 9017   4.801   2.859   8.038  1.1095 -3.5601 -1.4730
   92SAPS  C218 9018   4.625   2.738   8.074 -0.3728 -0.2128 -0.0117
   92SAPS  H18R 9019   4.679   2.642   8.055 -1.2526 -0.3545 -2.0900
   92SAPS  H18S 9020   4.527   2.728   8.023  0.5121  0.5677 -1.9466
   92SAPS  C219 9021   4.615   2.771   8.219  0.1009 -0.0211  0.6763
   92SAPS  H19R 9022   4.570   2.872   8.224  1.5560  0.6241  1.7220
   92SAPS  H19S 9023   4.715   2.800   8.258  1.8584 -3.1638 -1.0900
   92SAPS  C220 9024   4.551   2.664   8.299 -0.1239 -0.3120 -0.2738
   92SAPS  H20R 9025   4.467   2.613   8.246  0.5527 -0.0881 -1.6173
   92SAPS  H20S 9026   4.517   2.706   8.396  0.8271 -1.8071  0.7571
   92SAPS  H20T 9027   4.626   2.595   8.343 -0.8334 -2.0491 -1.6435
   92SAPS   C33 9028   5.443   2.937   6.986  0.7741  0.2844  0.1447
   92SAPS   H3X 9029   5.445   3.047   7.002  1.2685  0.3745 -0.4765
   92SAPS   H3Y 9030   5.540   2.896   6.950  1.0323  0.6717  0.3888
   92SAPS   C34 9031   5.403   2.860   7.116 -0.0867  0.6701  0.8155
   92SAPS   H4X 9032   5.388   2.752   7.097  3.1139  0.1291  0.7198
   92SAPS   H4Y 9033   5.312   2.910   7.155  0.1188 -0.2499  2.5588
   92SAPS   C35 9034   5.512   2.858   7.219  0.0603 -0.1963 -0.4298
   92SAPS   H5X 9035   5.527   2.951   7.278  3.3476 -2.1579  2.1464
   92SAPS   H5Y 9036   5.605   2.828   7.166 -0.2986 -0.0536 -1.1548
   92SAPS   C36 9037   5.476   2.753   7.324  0.8862 -0.1883 -0.2869
   92SAPS   H6X 9038   5.475   2.652   7.277 -0.1863  0.2904 -1.3673
   92SAPS   H6Y 9039   5.372   2.768   7.360  0.3119 -0.5712 -1.7068
   92SAPS   C37 9040   5.564   2.747   7.445  0.0792 -0.0194 -0.2494
   92SAPS   H7X 9041   5.558   2.844   7.500 -0.1746 -0.3443  0.3000
   92SAPS   H7Y 9042   5.667   2.722   7.412 -0.2275 -2.7041  0.6187
   92SAPS   C38 9043   5.509   2.634   7.532 -0.3442  0.1318 -0.1200
   92SAPS   H8X 9044   5.510   2.535   7.483 -0.2445  0.4511 -0.7775
   92SAPS   H8Y 9045   5.403   2.661   7.552 -0.3368  0.3817 -0.3993
   92SAPS   C39 9046   5.598   2.639   7.654  0.1818 -0.1287 -0.7679
   92SAPS   H9X 9047   5.593   2.740   7.700  0.5564  0.2703 -1.5912
   92SAPS   H9Y 9048   5.704   2.615   7.633  0.6096  0.7804  0.2704
   92SAPS  C310 9049   5.556   2.529   7.756 -0.3849 -0.9427  0.2643
   92SAPS  H10X 9050   5.614   2.435   7.744 -0.3817 -1.0772  1.3113
   92SAPS  H10Y 9051   5.445   2.523   7.749 -0.4559  1.2422 -2.1926
   92SAPS  C311 9052   5.590   2.558   7.910 -0.2205 -0.3418 -0.4520
   92SAPS  H11X 9053   5.577   2.667   7.926  0.2751 -0.4957  1.2367
   92SAPS  H11Y 9054   5.697   2.534   7.928 -0.7015 -1.3627  1.2701
   92SAPS  C312 9055   5.511   2.483   8.014 -0.2892  0.8809  0.0593
   92SAPS  H12X 9056   5.402   2.495   7.997 -1.0412 -1.2553  2.6109
   92SAPS  H12Y 9057   5.540   2.539   8.105  1.5091 -0.4177  0.3494
   92SAPS  C313 9058   5.554   2.331   8.034  0.0151 -1.2546  0.6514
   92SAPS  H13X 9059   5.654   2.344   8.081 -0.7553  1.8393  1.6832
   92SAPS  H13Y 9060   5.574   2.272   7.942  2.1088  0.5513 -0.1453
   92SAPS  C314 9061   5.459   2.250   8.126  0.1091 -0.0482 -0.3021
   92SAPS  H14X 9062   5.376   2.231   8.055 -1.1598  0.4195  1.0081
   92SAPS  H14Y 9063   5.422   2.314   8.209  2.8800  1.6004 -0.1870
   92SAPS  C315 9064   5.507   2.116   8.174 -0.6097  0.3175 -0.7775
   92SAPS  H15X 9065   5.545   2.052   8.092 -0.0350 -1.9354  1.1256
   92SAPS  H15Y 9066   5.425   2.059   8.224  0.8349 -0.3084  1.0045
   92SAPS  C316 9067   5.613   2.127   8.279 -0.0790 -0.2807 -0.8915
   92SAPS  H16X 9068   5.574   2.193   8.359  0.0061 -2.2472  0.8449
   92SAPS  H16Y 9069   5.704   2.177   8.241  0.0324 -1.7947 -2.7995
   92SAPS  C317 9070   5.648   1.984   8.344 -0.1811 -0.3086 -0.2911
   92SAPS  H17X 9071   5.690   1.929   8.256 -0.0082 -3.0690  1.4019
   92SAPS  H17Y 9072   5.562   1.920   8.374 -2.6704  2.8336 -0.2302
   92SAPS  C318 9073   5.754   2.003   8.450 -0.4021  0.5200 -0.5313
   92SAPS  H18X 9074   5.836   2.066   8.410 -0.9692  1.8495  0.3064
   92SAPS  H18Y 9075   5.784   1.907   8.498 -1.4479  0.4024 -0.0935
   92SAPS  H18Z 9076   5.707   2.069   8.527 -0.1409  0.0959 -0.0022
   93SAPS     N 9077   5.607   3.346   6.422  0.1046 -0.3293 -0.1620
   93SAPS   HN1 9078   5.598   3.449   6.423  0.4827 -0.2968  0.2769
   93SAPS   HN2 9079   5.515   3.308   6.394 -0.1392 -1.9424  2.4619
   93SAPS   HN3 9080   5.624   3.315   6.520  1.2436 -0.2507 -0.3200
   93SAPS   C12 9081   5.710   3.304   6.317 -0.4703  0.0056 -0.1723
   93SAPS  H12A 9082   5.700   3.196   6.317 -0.0613 -0.0312 -0.7837
   93SAPS   C13 9083   5.693   3.346   6.172 -0.0879  0.2272 -0.1990
   93SAPS  O13A 9084   5.589   3.419   6.152 -0.4365  0.1013 -0.0501
   93SAPS  O13B 9085   5.778   3.313   6.086  0.2213 -0.2959 -0.1491
   93SAPS   C11 9086   5.840   3.356   6.381 -0.0900  0.5729  0.1655
   93SAPS  H11A 9087   5.846   3.465   6.359  2.2182  0.1786 -1.5730
   93SAPS  H11B 9088   5.910   3.296   6.318 -1.4561 -2.2915  1.1792
   93SAPS     P 9089   6.011   3.381   6.578 -0.4618 -0.1562 -0.3931
   93SAPS   O13 9090   6.118   3.293   6.535 -0.4383 -0.0767  0.2324
   93SAPS   O14 9091   6.021   3.530   6.554 -0.2617 -0.6412  0.5173
   93SAPS   O12 9092   5.868   3.326   6.520  0.8886  0.1604 -0.9195
   93SAPS   O11 9093   5.989   3.362   6.731  0.3631  0.2545  0.1168
   93SAPS    C1 9094   5.936   3.245   6.789  0.2432  0.1995  0.6604
   93SAPS    HA 9095   5.913   3.161   6.721 -0.3921 -1.2653  2.6106
   93SAPS    HB 9096   5.998   3.204   6.872  0.7515  0.3598  0.3643
   93SAPS    C2 9097   5.798   3.280   6.844 -0.0855  0.1258 -0.1726
   93SAPS    HS 9098   5.739   3.330   6.765  0.3779  2.0145  0.6250
   93SAPS   O21 9099   5.813   3.365   6.958  0.0311 -0.2520 -0.3132
   93SAPS   C21 9100   5.705   3.437   6.989 -0.6235  0.2783  0.0934
   93SAPS   O22 9101   5.599   3.428   6.931  0.6205  0.2284  0.1482
   93SAPS   C22 9102   5.732   3.511   7.120  0.2394  0.7029  0.6851
   93SAPS   H2R 9103   5.627   3.539   7.142 -0.0528  0.2053 -0.0595
   93SAPS   H2S 9104   5.757   3.440   7.201 -1.7891  2.1936  2.7473
   93SAPS    C3 9105   5.722   3.148   6.879  0.1780  0.3521  0.4337
   93SAPS    HX 9106   5.703   3.096   6.782  0.7377 -0.1746  0.5987
   93SAPS    HY 9107   5.623   3.170   6.923  0.6020  0.5289  1.3278
   93SAPS   O31 9108   5.800   3.057   6.954  0.3956 -0.0518  0.1159
   93SAPS   C31 9109   5.796   3.074   7.086  0.0475  0.2280 -0.0056
   93SAPS   O32 9110   5.735   3.161   7.144 -0.4676 -0.0354  0.4207
   93SAPS   C32 9111   5.903   2.989   7.148 -0.2223  0.0474 -0.7794
   93SAPS   H2X 9112   5.997   3.049   7.144  0.2190 -0.6773 -1.7150
   93SAPS   H2Y 9113   5.909   2.892   7.094  1.9143  0.0733 -0.6956
   93SAPS   C23 9114   5.818   3.640   7.114 -0.4914 -0.5249 -0.0680
   93SAPS   H3R 9115   5.797   3.693   7.019 -2.1743  0.1004  0.6233
   93SAPS   H3S 9116   5.921   3.599   7.105 -0.3673 -0.7165  1.7606
   93SAPS   C24 9117   5.795   3.740   7.227 -0.2141  0.1547 -0.3392
   93SAPS   H4R 9118   5.689   3.751   7.259  0.3234  0.5823  1.4301
   93SAPS   H4S 9119   5.838   3.834   7.185 -0.7433  1.0699  1.0867
   93SAPS   C25 9120   5.886   3.702   7.342  0.4366  0.6190  0.5867
   93SAPS   H5R 9121   5.984   3.665   7.310 -0.5006  0.0037 -1.7300
   93SAPS   C26 9122   5.857   3.715   7.478 -0.1280  0.2126  0.3192
   93SAPS   H6R 9123   5.926   3.665   7.548 -2.9512 -4.3077  0.2858
   93SAPS   C27 9124   5.734   3.788   7.532  0.2631 -0.0682  0.0141
   93SAPS   H7R 9125   5.681   3.853   7.459 -2.6692 -3.6124 -1.2987
   93SAPS   H7S 9126   5.769   3.853   7.616  0.3878  0.4028 -0.3986
   93SAPS   C28 9127   5.636   3.671   7.567 -0.5952  0.1660  1.1106
   93SAPS   H8R 9128   5.582   3.622   7.485 -1.0060  1.5079  0.5397
   93SAPS   C29 9129   5.613   3.634   7.691  0.7278 -0.3957  0.3110
   93SAPS   H9R 9130   5.547   3.550   7.716  0.5183  0.2369  1.9738
   93SAPS  C210 9131   5.677   3.688   7.814  0.7671 -0.6142 -0.2940
   93SAPS  H10R 9132   5.621   3.769   7.865  1.9875 -0.4963  0.9180
   93SAPS  H10S 9133   5.766   3.750   7.789 -0.2106  1.7402  1.7442
   93SAPS  C211 9134   5.709   3.577   7.908 -0.5064  0.1806 -0.1868
   93SAPS  H11R 9135   5.808   3.530   7.900 -1.2465 -1.6942  1.0966
   93SAPS  C212 9136   5.628   3.535   8.014 -0.2929 -0.1604 -0.5713
   93SAPS  H12R 9137   5.659   3.444   8.068  0.5534  0.4062 -0.0838
   93SAPS  C213 9138   5.494   3.603   8.045  0.2520  0.1512  0.3863
   93SAPS  H13R 9139   5.485   3.693   7.981  1.9907  0.1322  0.0770
   93SAPS  H13S 9140   5.502   3.645   8.148  1.8583  1.0604 -0.0781
   93SAPS  C214 9141   5.384   3.508   8.018  0.1129  0.3811 -0.0761
   93SAPS  H14R 9142   5.340   3.520   7.918  0.4655 -1.1084 -0.4434
   93SAPS  C215 9143   5.338   3.398   8.090  0.2445  0.3759 -0.0221
   93SAPS  H15R 9144   5.247   3.342   8.061  0.7443 -0.9879  0.9223
   93SAPS  C216 9145   5.386   3.349   8.228 -0.1854  0.1485  0.4539
   93SAPS  H16R 9146   5.484   3.397   8.250  0.6043 -1.4840  0.6301
   93SAPS  H16S 9147   5.396   3.239   8.213 -0.0289  0.4462 -1.9853
   93SAPS  C217 9148   5.299   3.365   8.353  0.4012  0.1342  0.4208
   93SAPS  H17R 9149   5.367   3.321   8.428  0.0674 -1.3081 -0.0931
   93SAPS  H17S 9150   5.203   3.311   8.340  0.0014  0.8280  0.4090
   93SAPS  C218 9151   5.261   3.508   8.407 -0.1775 -0.0340  0.3811
   93SAPS  H18R 9152   5.204   3.561   8.328  0.6876 -0.7257 -0.7450
   93SAPS  H18S 9153   5.338   3.583   8.434 -0.4012  0.7350 -1.0249
   93SAPS  C219 9154   5.171   3.492   8.530  0.9839 -0.0022  0.0113
   93SAPS  H19R 9155   5.218   3.430   8.609 -0.8829 -0.4692  0.8082
   93SAPS  H19S 9156   5.084   3.428   8.501  0.9359  0.7452 -1.6286
   93SAPS  C220 9157   5.110   3.620   8.582  1.0761 -0.0029  0.6290
   93SAPS  H20R 9158   5.178   3.706   8.561  0.4809  0.3249 -0.0042
   93SAPS  H20S 9159   5.094   3.623   8.692  0.8398  1.2813  0.5751
   93SAPS  H20T 9160   5.013   3.639   8.532  1.7509 -0.8790 -1.1139
   93SAPS   C33 9161   5.865   2.948   7.296 -0.3276 -0.0584 -0.6562
   93SAPS   H3X 9162   5.808   2.853   7.299 -1.0379  0.3801  0.6335
   93SAPS   H3Y 9163   5.794   3.021   7.341 -0.4179 -0.3964 -0.2467
   93SAPS   C34 9164   5.983   2.915   7.379 -0.6011 -0.1424 -0.2527
   93SAPS   H4X 9165   6.051   3.003   7.382 -0.6761 -0.0494 -1.0735
   93SAPS   H4Y 9166   6.041   2.831   7.335 -0.3083 -0.6429  1.0532
   93SAPS   C35 9167   5.936   2.872   7.521 -0.0109 -0.7976  0.0526
   93SAPS   H5X 9168   5.834   2.829   7.512 -0.7979  1.0077 -0.2162
   93SAPS   H5Y 9169   5.929   2.954   7.595 -1.2005 -1.5226  0.7709
   93SAPS   C36 9170   6.020   2.757   7.563 -0.6082 -0.1345 -0.1621
   93SAPS   H6X 9171   6.124   2.795   7.548 -1.4805  1.9964 -1.3147
   93SAPS   H6Y 9172   6.013   2.678   7.485 -4.0304 -0.5461  0.3907
   93SAPS   C37 9173   5.994   2.679   7.694  0.0339 -0.4603 -0.0454
   93SAPS   H7X 9174   6.074   2.602   7.689 -0.3793 -0.8214 -1.8132
   93SAPS   H7Y 9175   5.893   2.630   7.696 -0.7601  1.0915 -0.8195
   93SAPS   C38 9176   6.024   2.754   7.830 -0.2237 -0.5671 -0.1733
   93SAPS   H8X 9177   5.942   2.828   7.843 -0.6917 -1.2189  0.7966
   93SAPS   H8Y 9178   6.121   2.801   7.806 -1.1618  0.1857 -2.7561
   93SAPS   C39 9179   6.027   2.662   7.951  0.1362 -0.2204 -0.1410
   93SAPS   H9X 9180   6.099   2.579   7.933  0.0078 -0.2497 -0.5353
   93SAPS   H9Y 9181   5.931   2.607   7.955  0.2902 -0.4949 -0.1683
   93SAPS  C310 9182   6.045   2.728   8.092  0.0111 -0.4307 -0.6445
   93SAPS  H10X 9183   5.962   2.801   8.101  0.8557  0.4383  0.2330
   93SAPS  H10Y 9184   6.138   2.787   8.081 -1.5480  2.1997 -0.5461
   93SAPS  C311 9185   6.042   2.632   8.211 -0.3476  0.3390  0.6151
   93SAPS  H11X 9186   6.079   2.688   8.300  2.9808 -0.5000 -0.1324
   93SAPS  H11Y 9187   6.120   2.553   8.206 -1.0283 -0.3022 -0.3030
   93SAPS  C312 9188   5.898   2.570   8.217  0.1884 -0.6733  0.3510
   93SAPS  H12X 9189   5.892   2.465   8.181  1.1767 -0.0870 -1.6962
   93SAPS  H12Y 9190   5.836   2.644   8.160  2.0410 -0.1226 -1.0662
   93SAPS  C313 9191   5.847   2.567   8.363  0.0863  0.6801 -0.4871
   93SAPS  H13X 9192   5.740   2.538   8.371  0.7886 -1.5435  3.3705
   93SAPS  H13Y 9193   5.846   2.669   8.408  1.4105 -0.6173  2.8228
   93SAPS  C314 9194   5.952   2.487   8.458 -0.6905 -0.7203  0.7982
   93SAPS  H14X 9195   6.049   2.541   8.458 -0.9567 -0.1794 -0.8818
   93SAPS  H14Y 9196   5.967   2.382   8.423  1.8181  0.2980 -1.5360
   93SAPS  C315 9197   5.899   2.475   8.596 -0.3888 -0.0422 -0.6853
   93SAPS  H15X 9198   5.946   2.388   8.648 -1.1319  0.2834  0.5774
   93SAPS  H15Y 9199   5.792   2.461   8.569  0.2532 -0.3006 -3.4575
   93SAPS  C316 9200   5.929   2.611   8.665  1.0778 -0.1637 -0.1798
   93SAPS  H16X 9201   5.959   2.685   8.587  0.4430  0.2500 -0.0454
   93SAPS  H16Y 9202   6.010   2.609   8.741  0.8286  1.4728  0.1600
   93SAPS  C317 9203   5.802   2.664   8.740  0.5238  0.0731  0.2183
   93SAPS  H17X 9204   5.787   2.610   8.836 -2.6718  2.3532  1.1893
   93SAPS  H17Y 9205   5.712   2.637   8.680 -1.1741  1.5280  1.9527
   93SAPS  C318 9206   5.819   2.817   8.749  0.5953  0.3996  0.8762
   93SAPS  H18X 9207   5.831   2.848   8.644 -0.7742 -2.2645 -0.1672
   93SAPS  H18Y 9208   5.904   2.846   8.814  2.6126 -0.0940 -1.4058
   93SAPS  H18Z 9209   5.728   2.868   8.788 -1.5692 -0.2976 -2.8213
   94SAPS     N 9210   6.185   5.408   5.695  0.5869 -0.4093 -0.2034
   94SAPS   HN1 9211   6.229   5.317   5.719  0.0635 -0.9706 -1.2939
   94SAPS   HN2 9212   6.099   5.382   5.643 -0.5806  1.3170  0.7796
   94SAPS   HN3 9213   6.255   5.464   5.644 -0.3906  2.9072  1.8227
   94SAPS   C12 9214   6.170   5.481   5.828  0.1036  0.3430 -0.6435
   94SAPS  H12A 9215   6.094   5.428   5.884  0.7207 -1.1080 -1.1187
   94SAPS   C13 9216   6.302   5.490   5.920 -0.1449  0.1450  0.0694
   94SAPS  O13A 9217   6.419   5.476   5.874  0.5488 -0.3600  0.1912
   94SAPS  O13B 9218   6.295   5.540   6.032 -0.5258  0.3894  0.5724
   94SAPS   C11 9219   6.117   5.623   5.804  0.4799 -0.3474  0.2779
   94SAPS  H11A 9220   6.188   5.675   5.735  0.0157 -1.8359 -1.3767
   94SAPS  H11B 9221   6.103   5.681   5.898 -0.2045 -1.8122  1.1021
   94SAPS     P 9222   5.849   5.619   5.802  0.3135  0.1398  0.6920
   94SAPS   O13 9223   5.747   5.701   5.737  0.3079  0.2916 -0.1220
   94SAPS   O14 9224   5.826   5.475   5.819  0.6021 -0.4833 -0.4449
   94SAPS   O12 9225   5.991   5.640   5.735  0.0522 -0.2049  0.0887
   94SAPS   O11 9226   5.876   5.679   5.945  0.1852  0.4132  0.3527
   94SAPS    C1 9227   5.917   5.600   6.059  0.0723  0.1470  0.5697
   94SAPS    HA 9228   5.932   5.493   6.030  1.1701  0.4668 -0.1096
   94SAPS    HB 9229   6.011   5.639   6.104 -0.3042  1.4814  0.2402
   94SAPS    C2 9230   5.808   5.600   6.167  0.1709  0.1181  0.3346
   94SAPS    HS 9231   5.777   5.706   6.182  2.4992  0.9801 -0.4872
   94SAPS   O21 9232   5.868   5.551   6.292  0.0174 -0.8488 -0.3426
   94SAPS   C21 9233   5.921   5.643   6.374  0.0419 -0.1241  0.4400
   94SAPS   O22 9234   5.901   5.763   6.361  0.2130 -0.5529 -0.1541
   94SAPS   C22 9235   5.982   5.577   6.494  0.1789 -0.1303 -0.0144
   94SAPS   H2R 9236   6.044   5.488   6.469 -0.1897 -1.0523  2.0720
   94SAPS   H2S 9237   6.057   5.637   6.549 -3.8139  2.0989  3.5708
   94SAPS    C3 9238   5.683   5.514   6.140  0.8534  0.0213  0.4791
   94SAPS    HX 9239   5.701   5.404   6.137 -1.2185 -0.3677  0.9001
   94SAPS    HY 9240   5.639   5.529   6.039 -1.4185 -0.7840  1.2814
   94SAPS   O31 9241   5.578   5.532   6.251 -0.1612  0.0694 -0.1227
   94SAPS   C31 9242   5.520   5.646   6.237  0.2884 -0.8041  0.2137
   94SAPS   O32 9243   5.538   5.726   6.149  0.4662  0.2766 -0.0118
   94SAPS   C32 9244   5.420   5.672   6.357 -0.1589 -0.0565 -0.5421
   94SAPS   H2X 9245   5.370   5.576   6.382  0.1773  0.1351  0.9166
   94SAPS   H2Y 9246   5.345   5.746   6.324 -0.1159 -0.7696 -2.3885
   94SAPS   C23 9247   5.878   5.539   6.598  0.0389  0.2288 -0.5011
   94SAPS   H3R 9248   5.894   5.430   6.613  0.1058  0.2993 -0.0407
   94SAPS   H3S 9249   5.775   5.555   6.560 -0.0114 -1.4632 -1.1755
   94SAPS   C24 9250   5.890   5.609   6.737  0.1954 -0.1148  0.0003
   94SAPS   H4R 9251   5.998   5.606   6.761  0.9343  0.9979 -2.8022
   94SAPS   H4S 9252   5.821   5.558   6.808 -2.8760  0.9334 -2.0406
   94SAPS   C25 9253   5.846   5.755   6.728  0.0221 -0.2371  0.2091
   94SAPS   H5R 9254   5.821   5.802   6.632  0.5520 -1.5921 -0.6203
   94SAPS   C26 9255   5.837   5.826   6.843 -0.1955  0.3832  0.5400
   94SAPS   H6R 9256   5.796   5.928   6.833 -0.2014  0.2841 -0.6066
   94SAPS   C27 9257   5.890   5.788   6.981  0.3914 -0.6758  0.7503
   94SAPS   H7R 9258   5.988   5.840   6.982 -0.2080  0.4976  0.1346
   94SAPS   H7S 9259   5.917   5.680   6.989 -1.2472 -1.2645 -1.0371
   94SAPS   C28 9260   5.801   5.819   7.096 -0.0101 -0.9278 -0.2208
   94SAPS   H8R 9261   5.700   5.773   7.098  0.0307 -1.0058  1.2035
   94SAPS   C29 9262   5.848   5.873   7.211 -0.1592  0.2753  0.1703
   94SAPS   H9R 9263   5.783   5.907   7.293  3.0531  1.0629  2.5982
   94SAPS  C210 9264   5.984   5.938   7.230  0.5809 -0.1402 -0.1318
   94SAPS  H10R 9265   5.999   6.010   7.146 -0.4005 -0.4518 -0.5927
   94SAPS  H10S 9266   6.065   5.864   7.213  3.4250  2.4695  1.0830
   94SAPS  C211 9267   6.010   6.003   7.368 -0.0970 -0.1813  0.8904
   94SAPS  H11R 9268   5.978   6.108   7.375 -1.1014 -0.4831  0.9057
   94SAPS  C212 9269   6.056   5.944   7.481 -0.5573  0.5104 -0.4078
   94SAPS  H12R 9270   6.045   6.009   7.568  0.8276  3.9130 -2.5766
   94SAPS  C213 9271   6.110   5.799   7.508 -0.3198  0.3714 -0.4681
   94SAPS  H13R 9272   6.088   5.740   7.416 -0.8241  1.3836 -1.0072
   94SAPS  H13S 9273   6.054   5.754   7.592  0.9468  0.1267  0.2737
   94SAPS  C214 9274   6.259   5.786   7.537 -0.7154 -0.2231  0.4079
   94SAPS  H14R 9275   6.322   5.804   7.449  0.5369  1.7660  1.6171
   94SAPS  C215 9276   6.317   5.769   7.657 -0.2378 -0.1855  0.0886
   94SAPS  H15R 9277   6.426   5.761   7.669 -0.1864  1.5778  1.1920
   94SAPS  C216 9278   6.244   5.747   7.783  0.6651 -0.3670  0.1165
   94SAPS  H16R 9279   6.298   5.671   7.845  0.3447 -1.3223 -0.7595
   94SAPS  H16S 9280   6.141   5.709   7.769 -0.4382  2.3675  0.3013
   94SAPS  C217 9281   6.237   5.865   7.874 -0.0134 -0.6432 -0.0699
   94SAPS  H17R 9282   6.337   5.895   7.913 -0.5199  0.8138  0.1550
   94SAPS  H17S 9283   6.173   5.827   7.956 -0.9402 -2.2618 -1.4654
   94SAPS  C218 9284   6.162   5.987   7.820  0.4182  0.6546  0.3279
   94SAPS  H18R 9285   6.057   5.966   7.790  0.5895  1.9956 -1.3566
   94SAPS  H18S 9286   6.215   6.034   7.734  0.9618 -1.3410 -0.4677
   94SAPS  C219 9287   6.152   6.104   7.923 -0.5945 -0.3203 -0.7625
   94SAPS  H19R 9288   6.254   6.109   7.967 -1.7060  1.8516  1.7774
   94SAPS  H19S 9289   6.084   6.066   8.002  0.6740 -0.9771  0.0463
   94SAPS  C220 9290   6.100   6.237   7.864  0.1014  0.4132  0.0124
   94SAPS  H20R 9291   5.993   6.241   7.832  0.7323  0.0381 -2.2781
   94SAPS  H20S 9292   6.175   6.261   7.786  1.7379 -1.0819  1.0437
   94SAPS  H20T 9293   6.115   6.310   7.946 -1.9793 -0.4254  1.2533
   94SAPS   C33 9294   5.483   5.726   6.489  0.2442  0.4296 -0.3785
   94SAPS   H3X 9295   5.551   5.810   6.464 -0.6942  1.2900 -0.1047
   94SAPS   H3Y 9296   5.543   5.642   6.530  0.0278  0.3677 -0.1846
   94SAPS   C34 9297   5.375   5.761   6.598 -0.0837  0.1810 -0.7827
   94SAPS   H4X 9298   5.327   5.672   6.642  2.4447  0.2120  2.3752
   94SAPS   H4Y 9299   5.293   5.819   6.550  0.6468 -0.1852 -2.5721
   94SAPS   C35 9300   5.429   5.854   6.711  0.0237  0.3143 -0.3085
   94SAPS   H5X 9301   5.469   5.943   6.659  2.3690  1.0225  2.4618
   94SAPS   H5Y 9302   5.519   5.794   6.738 -0.4457 -0.5442 -0.6229
   94SAPS   C36 9303   5.323   5.888   6.820 -0.3902 -0.0708  0.0660
   94SAPS   H6X 9304   5.291   5.791   6.863  2.1862 -1.2771 -0.5498
   94SAPS   H6Y 9305   5.245   5.959   6.784  0.7505  2.6345  2.4993
   94SAPS   C37 9306   5.403   5.955   6.944 -0.6719  0.1642  0.1319
   94SAPS   H7X 9307   5.400   6.059   6.905 -1.0802  0.0402 -0.1786
   94SAPS   H7Y 9308   5.510   5.927   6.944 -0.6542  0.2223  0.7384
   94SAPS   C38 9309   5.341   5.952   7.086 -0.6139 -0.9833 -0.5947
   94SAPS   H8X 9310   5.231   5.962   7.070 -1.2248 -5.1265 -0.0158
   94SAPS   H8Y 9311   5.377   6.040   7.144 -0.0752 -0.8823 -1.0760
   94SAPS   C39 9312   5.377   5.824   7.161  0.1203 -0.6399 -0.9600
   94SAPS   H9X 9313   5.481   5.828   7.201 -1.3743 -0.6374  3.5051
   94SAPS   H9Y 9314   5.363   5.734   7.097  3.0104  0.1917 -2.9679
   94SAPS  C310 9315   5.286   5.806   7.283  0.4837  0.7509 -0.0623
   94SAPS  H10X 9316   5.308   5.704   7.322  0.4523  0.4242 -0.8772
   94SAPS  H10Y 9317   5.183   5.817   7.245  0.5722  1.0361 -0.2176
   94SAPS  C311 9318   5.326   5.899   7.383  0.4888 -0.0967  0.5174
   94SAPS  H11X 9319   5.332   6.001   7.339  0.7231 -0.2272  0.2400
   94SAPS  H11Y 9320   5.423   5.875   7.431  0.3026  0.4405  1.1812
   94SAPS  C312 9321   5.234   5.893   7.508  0.0128 -0.2001  0.7676
   94SAPS  H12X 9322   5.230   5.791   7.552  1.4678  0.1649  1.8427
   94SAPS  H12Y 9323   5.131   5.920   7.478  0.7298  2.3697  0.2946
   94SAPS  C313 9324   5.280   6.003   7.615 -0.0233  0.3347  0.0360
   94SAPS  H13X 9325   5.385   5.972   7.635  0.5292 -0.5587 -3.5603
   94SAPS  H13Y 9326   5.225   6.007   7.711  1.7068  1.0310  1.0412
   94SAPS  C314 9327   5.268   6.145   7.562  0.0287 -0.6914 -0.5421
   94SAPS  H14X 9328   5.162   6.149   7.530  0.1764 -1.1532 -1.0975
   94SAPS  H14Y 9329   5.321   6.160   7.465  1.5044  0.2639  0.3580
   94SAPS  C315 9330   5.315   6.265   7.649  0.0589 -0.5718  0.2534
   94SAPS  H15X 9331   5.410   6.238   7.699  1.8935  0.4927 -2.3960
   94SAPS  H15Y 9332   5.247   6.286   7.734  0.3605  0.5229  0.2491
   94SAPS  C316 9333   5.333   6.390   7.565 -0.1333 -0.3111  0.4376
   94SAPS  H16X 9334   5.376   6.363   7.466 -2.0817 -2.3211  0.0643
   94SAPS  H16Y 9335   5.394   6.464   7.623  0.8957 -1.0238  0.2920
   94SAPS  C317 9336   5.196   6.449   7.517 -1.0301 -0.2671 -0.5236
   94SAPS  H17X 9337   5.150   6.385   7.439 -1.8303 -0.2513 -0.0777
   94SAPS  H17Y 9338   5.206   6.545   7.463  0.9778 -0.4986 -0.6276
   94SAPS  C318 9339   5.106   6.482   7.632 -0.2103 -0.0142  0.4723
   94SAPS  H18X 9340   5.024   6.546   7.591 -0.1086 -0.1088  0.1134
   94SAPS  H18Y 9341   5.163   6.548   7.701  2.3124 -0.9853 -0.5490
   94SAPS  H18Z 9342   5.071   6.394   7.690  0.3373 -0.0958  0.6880
   95SAPS     N 9343   2.335   3.544   5.980  0.5992  0.1812  0.0382
   95SAPS   HN1 9344   2.261   3.607   5.943 -0.2900 -0.1621  1.1965
   95SAPS   HN2 9345   2.320   3.535   6.082  0.0953 -0.2852 -0.0742
   95SAPS   HN3 9346   2.425   3.597   5.978 -0.3812  2.0353  1.3942
   95SAPS   C12 9347   2.329   3.404   5.916  0.5785 -0.0936  0.4131
   95SAPS  H12A 9348   2.229   3.365   5.934  0.6922 -0.6914 -0.2080
   95SAPS   C13 9349   2.371   3.400   5.769  0.5584  0.9763  0.1435
   95SAPS  O13A 9350   2.409   3.500   5.703  0.3143 -0.0654  0.3247
   95SAPS  O13B 9351   2.371   3.292   5.707 -0.1943  0.6907 -0.0609
   95SAPS   C11 9352   2.442   3.323   5.991  0.2947  0.2213  0.0890
   95SAPS  H11A 9353   2.545   3.354   5.965  0.3836  1.8145  2.0714
   95SAPS  H11B 9354   2.432   3.219   5.955 -1.3230  0.5285 -0.4602
   95SAPS     P 9355   2.509   3.268   6.232  0.1459 -0.2097 -0.0978
   95SAPS   O13 9356   2.514   3.123   6.214  0.1402  0.1537 -0.0473
   95SAPS   O14 9357   2.640   3.331   6.237  0.2737  0.5394 -0.2293
   95SAPS   O12 9358   2.413   3.337   6.132  0.1000  0.7324 -0.0884
   95SAPS   O11 9359   2.438   3.294   6.366  0.1261 -0.7336 -0.2629
   95SAPS    C1 9360   2.295   3.302   6.383 -0.1107  0.2777  0.4813
   95SAPS    HA 9361   2.258   3.371   6.304 -0.9387 -0.9287 -0.2224
   95SAPS    HB 9362   2.250   3.202   6.369  2.4665 -0.5159 -4.0867
   95SAPS    C2 9363   2.248   3.349   6.523  0.5814  0.7011 -0.5909
   95SAPS    HS 9364   2.302   3.445   6.539 -0.1577  1.1132 -0.5488
   95SAPS   O21 9365   2.275   3.247   6.629  0.2899 -0.0301 -0.1790
   95SAPS   C21 9366   2.308   3.297   6.748 -0.1446 -0.0404  0.0088
   95SAPS   O22 9367   2.335   3.416   6.770 -0.1187  0.5971 -0.2083
   95SAPS   C22 9368   2.302   3.190   6.849  0.4919  0.0491 -0.4774
   95SAPS   H2R 9369   2.210   3.211   6.908  0.6673 -1.1256  0.2328
   95SAPS   H2S 9370   2.295   3.092   6.798  1.1308 -1.0340  1.4079
   95SAPS    C3 9371   2.098   3.369   6.525 -0.1917  0.8196  0.2294
   95SAPS    HX 9372   2.054   3.277   6.481  1.1745 -0.0814  0.6722
   95SAPS    HY 9373   2.078   3.438   6.440  1.7972 -0.1359 -1.0742
   95SAPS   O31 9374   2.049   3.408   6.651  0.2869 -0.3452 -0.7499
   95SAPS   C31 9375   1.928   3.461   6.636 -0.1288  0.0591 -0.3758
   95SAPS   O32 9376   1.860   3.460   6.535 -0.0208 -0.2779  0.0511
   95SAPS   C32 9377   1.887   3.505   6.768  1.0993 -0.3047  0.0359
   95SAPS   H2X 9378   1.940   3.599   6.796  1.2371 -0.1891 -0.5854
   95SAPS   H2Y 9379   1.914   3.427   6.843  0.5832 -1.6216 -1.1101
   95SAPS   C23 9380   2.433   3.184   6.935  0.0209 -0.1234  0.2388
   95SAPS   H3R 9381   2.441   3.278   6.992 -1.0901  0.2087 -0.1178
   95SAPS   H3S 9382   2.515   3.164   6.863  0.1551 -1.3742  0.7047
   95SAPS   C24 9383   2.432   3.069   7.038 -0.0987 -0.8593  0.4179
   95SAPS   H4R 9384   2.408   2.982   6.972  0.0144 -0.9544  0.5007
   95SAPS   H4S 9385   2.339   3.063   7.099 -1.5269 -1.5504 -1.7172
   95SAPS   C25 9386   2.565   3.070   7.108  0.2773 -0.6066 -0.6561
   95SAPS   H5R 9387   2.656   3.048   7.050  1.7524  2.4547  0.2652
   95SAPS   C26 9388   2.589   3.115   7.237  0.7124  0.1012 -0.2182
   95SAPS   H6R 9389   2.689   3.086   7.271  0.4501 -0.6160 -0.0224
   95SAPS   C27 9390   2.492   3.149   7.347 -0.1394 -0.2997 -0.6322
   95SAPS   H7R 9391   2.405   3.204   7.307  0.2568  0.2658 -0.7264
   95SAPS   H7S 9392   2.534   3.230   7.411  0.5522 -0.5695 -0.7329
   95SAPS   C28 9393   2.441   3.037   7.430 -0.6098 -0.2246 -0.0257
   95SAPS   H8R 9394   2.434   2.936   7.386 -0.2698 -0.7075  0.9832
   95SAPS   C29 9395   2.407   3.036   7.557 -0.9826  0.1996 -0.7869
   95SAPS   H9R 9396   2.364   2.944   7.599 -2.2467  1.6522  1.3263
   95SAPS  C210 9397   2.425   3.156   7.649  0.1035 -0.7843 -0.3009
   95SAPS  H10R 9398   2.324   3.188   7.682  1.3902  0.7729  2.5340
   95SAPS  H10S 9399   2.472   3.247   7.606  1.5209 -0.7788  1.1802
   95SAPS  C211 9400   2.506   3.110   7.765  0.2684 -1.0913 -0.0155
   95SAPS  H11R 9401   2.588   3.039   7.745  1.0795 -0.5544  1.2806
   95SAPS  C212 9402   2.493   3.140   7.895  0.8141  0.3740  0.4951
   95SAPS  H12R 9403   2.559   3.098   7.972 -0.1105 -2.1029  0.0426
   95SAPS  C213 9404   2.410   3.240   7.973  0.4041  0.2247 -0.1334
   95SAPS  H13R 9405   2.330   3.286   7.910  1.1244 -3.0716 -3.9010
   95SAPS  H13S 9406   2.477   3.322   8.006  0.2717  0.1250  0.3793
   95SAPS  C214 9407   2.350   3.179   8.100 -1.1707 -0.0124  0.1048
   95SAPS  H14R 9408   2.265   3.110   8.089 -0.1760 -0.9890 -2.1963
   95SAPS  C215 9409   2.402   3.193   8.227 -0.2976  0.2655 -0.3624
   95SAPS  H15R 9410   2.366   3.132   8.311  1.1459 -1.8373 -1.1859
   95SAPS  C216 9411   2.508   3.295   8.270  0.2513  0.1932  0.2563
   95SAPS  H16R 9412   2.491   3.387   8.210  0.2500 -0.1995 -0.3610
   95SAPS  H16S 9413   2.613   3.264   8.250  0.9945  3.1507 -1.0142
   95SAPS  C217 9414   2.505   3.332   8.421  0.2142  0.0326  0.0999
   95SAPS  H17R 9415   2.589   3.400   8.446  0.3914 -0.0839 -0.1730
   95SAPS  H17S 9416   2.528   3.238   8.476  0.0372 -0.8503 -1.2765
   95SAPS  C218 9417   2.380   3.401   8.467  0.4444 -0.5156 -0.6769
   95SAPS  H18R 9418   2.289   3.344   8.438  0.5804  0.6816 -3.8326
   95SAPS  H18S 9419   2.379   3.500   8.417  0.7069 -0.3087 -0.2817
   95SAPS  C219 9420   2.389   3.449   8.616  0.6351  0.2351 -0.8573
   95SAPS  H19R 9421   2.485   3.501   8.637  1.4502 -2.0444  1.7019
   95SAPS  H19S 9422   2.399   3.352   8.669 -0.9143  0.6020  0.1660
   95SAPS  C220 9423   2.264   3.533   8.662 -0.3998  0.4318  0.1902
   95SAPS  H20R 9424   2.271   3.565   8.768  0.5362  1.5052 -0.1748
   95SAPS  H20S 9425   2.173   3.476   8.636  0.8887 -0.7238 -2.1081
   95SAPS  H20T 9426   2.259   3.631   8.610 -0.5653  0.2915 -0.0602
   95SAPS   C33 9427   1.731   3.522   6.783  0.4974 -0.6299  0.1183
   95SAPS   H3X 9428   1.686   3.543   6.684 -3.3475 -0.7679  1.6712
   95SAPS   H3Y 9429   1.713   3.613   6.844  0.3101  1.2660 -2.6068
   95SAPS   C34 9430   1.662   3.393   6.832  0.7115 -0.5812  0.6449
   95SAPS   H4X 9431   1.712   3.304   6.787  3.0326  0.5507  0.8641
   95SAPS   H4Y 9432   1.555   3.402   6.800  1.0055  3.1066  0.3082
   95SAPS   C35 9433   1.662   3.387   6.978 -0.2748 -0.3378  0.1604
   95SAPS   H5X 9434   1.641   3.485   7.025  0.1652  0.2659 -0.8627
   95SAPS   H5Y 9435   1.765   3.370   7.017 -0.4110  1.0528  1.1967
   95SAPS   C36 9436   1.557   3.286   7.040  0.2111 -0.0757 -0.3011
   95SAPS   H6X 9437   1.562   3.192   6.981 -1.0905  0.1532 -0.8160
   95SAPS   H6Y 9438   1.454   3.326   7.026 -0.0730 -1.0711 -1.1833
   95SAPS   C37 9439   1.580   3.252   7.192 -0.0876  0.2969  0.8263
   95SAPS   H7X 9440   1.572   3.343   7.255 -3.6655 -0.9399  2.4178
   95SAPS   H7Y 9441   1.686   3.219   7.206  0.8295  2.2162 -1.0250
   95SAPS   C38 9442   1.476   3.153   7.243  0.0703 -0.0367 -0.0380
   95SAPS   H8X 9443   1.480   3.054   7.192 -2.2113 -0.3426  0.2573
   95SAPS   H8Y 9444   1.378   3.193   7.210 -0.7426 -0.8407  1.3281
   95SAPS   C39 9445   1.477   3.131   7.398 -0.0579  0.0658  0.4099
   95SAPS   H9X 9446   1.575   3.093   7.433  0.9004  2.0320 -0.0004
   95SAPS   H9Y 9447   1.400   3.059   7.432  0.4992  0.2024  2.0591
   95SAPS  C310 9448   1.441   3.264   7.473  0.5283 -0.2038  0.9626
   95SAPS  H10X 9449   1.356   3.310   7.418 -1.0157 -3.1627  0.6959
   95SAPS  H10Y 9450   1.528   3.333   7.472  1.4000 -1.0237 -4.0445
   95SAPS  C311 9451   1.405   3.234   7.615 -0.9327  0.2987  0.4189
   95SAPS  H11X 9452   1.491   3.180   7.659 -1.1170  0.1253  0.5650
   95SAPS  H11Y 9453   1.316   3.167   7.612 -0.8536  0.2030  0.0830
   95SAPS  C312 9454   1.376   3.354   7.703  0.7255  0.0932  0.2883
   95SAPS  H12X 9455   1.315   3.432   7.653 -0.0059 -0.3757  0.4336
   95SAPS  H12Y 9456   1.473   3.400   7.732 -0.0887  0.3764  2.8398
   95SAPS  C313 9457   1.302   3.306   7.829 -0.3527 -0.7134  0.1946
   95SAPS  H13X 9458   1.292   3.400   7.888 -0.9717  0.9600 -2.3987
   95SAPS  H13Y 9459   1.368   3.239   7.888  1.2568  0.3181 -0.3407
   95SAPS  C314 9460   1.161   3.245   7.812 -0.2840 -0.1975  0.5949
   95SAPS  H14X 9461   1.165   3.138   7.783 -0.7367 -0.1657  0.4084
   95SAPS  H14Y 9462   1.095   3.306   7.747  0.3293  0.1979  0.3324
   95SAPS  C315 9463   1.073   3.253   7.947  0.1931 -0.1618  0.6434
   95SAPS  H15X 9464   0.983   3.192   7.926 -0.6871  0.9444  1.0944
   95SAPS  H15Y 9465   1.044   3.357   7.974  0.9597 -0.4233  2.6353
   95SAPS  C316 9466   1.160   3.213   8.071 -0.0752 -0.1146  0.5711
   95SAPS  H16X 9467   1.240   3.289   8.086 -0.9687  0.5454  2.2244
   95SAPS  H16Y 9468   1.216   3.118   8.057 -2.0550 -1.1881 -0.5068
   95SAPS  C317 9469   1.082   3.203   8.202  0.3357 -0.2911  0.0365
   95SAPS  H17X 9470   1.005   3.123   8.207  0.3452 -0.2480  0.9382
   95SAPS  H17Y 9471   1.026   3.299   8.210  2.0816  0.9355 -1.5219
   95SAPS  C318 9472   1.174   3.185   8.316 -0.5285  0.3145 -0.7198
   95SAPS  H18X 9473   1.121   3.178   8.413  0.9285 -0.9964  0.0283
   95SAPS  H18Y 9474   1.256   3.260   8.324  1.9281 -2.3563  1.0212
   95SAPS  H18Z 9475   1.225   3.087   8.303 -1.1271  0.0021 -0.7631
   96SAPS     N 9476   2.103   4.703   6.325  0.0434  0.2228 -0.1561
   96SAPS   HN1 9477   2.149   4.761   6.253  0.9212 -1.4248 -0.9774
   96SAPS   HN2 9478   2.025   4.656   6.275  0.4738  1.0285 -1.6388
   96SAPS   HN3 9479   2.073   4.765   6.404 -1.1113 -0.4200 -0.0680
   96SAPS   C12 9480   2.206   4.613   6.368  0.3585 -0.4359  0.3380
   96SAPS  H12A 9481   2.180   4.561   6.460 -0.9442 -0.2797  0.0796
   96SAPS   C13 9482   2.240   4.495   6.269 -0.4897 -0.0833 -0.1893
   96SAPS  O13A 9483   2.169   4.481   6.168 -0.0266 -0.5974  0.3165
   96SAPS  O13B 9484   2.334   4.414   6.309  0.3669  0.3681  0.6782
   96SAPS   C11 9485   2.327   4.697   6.397 -0.2887 -0.3099  0.0218
   96SAPS  H11A 9486   2.400   4.633   6.450 -0.5024 -0.1005  0.5806
   96SAPS  H11B 9487   2.301   4.773   6.474  3.6801 -0.0335  1.3237
   96SAPS     P 9488   2.468   4.883   6.293 -0.0249 -0.0683  0.0420
   96SAPS   O13 9489   2.557   4.894   6.172  0.0869 -0.2923 -0.0747
   96SAPS   O14 9490   2.372   4.995   6.313 -0.0529 -0.3000 -0.8041
   96SAPS   O12 9491   2.383   4.752   6.277  0.0539 -0.0229 -0.6359
   96SAPS   O11 9492   2.561   4.865   6.423 -0.2890  0.0424  0.2068
   96SAPS    C1 9493   2.676   4.781   6.437 -0.3083 -0.1094 -0.2604
   96SAPS    HA 9494   2.643   4.681   6.404 -0.9788  0.5629 -1.7245
   96SAPS    HB 9495   2.744   4.808   6.354 -0.4379  0.1183 -0.2961
   96SAPS    C2 9496   2.743   4.778   6.576 -0.0232 -0.4777  0.0998
   96SAPS    HS 9497   2.834   4.714   6.565  1.4799  1.0892  2.4394
   96SAPS   O21 9498   2.652   4.719   6.667  0.4898 -0.8979  0.1590
   96SAPS   C21 9499   2.678   4.598   6.723  0.2170 -0.0632  0.8754
   96SAPS   O22 9500   2.788   4.543   6.717  0.5832 -0.3322 -0.1647
   96SAPS   C22 9501   2.553   4.542   6.783  0.2894  0.1506  0.1793
   96SAPS   H2R 9502   2.467   4.612   6.793  0.3784  0.1196  1.3027
   96SAPS   H2S 9503   2.507   4.456   6.729  0.9246  0.5182 -0.9868
   96SAPS    C3 9504   2.777   4.924   6.607 -0.0102  0.3436  0.0592
   96SAPS    HX 9505   2.696   4.995   6.579 -1.2942 -1.6812 -1.6898
   96SAPS    HY 9506   2.859   4.947   6.534 -0.3894  1.2772 -0.0894
   96SAPS   O31 9507   2.821   4.941   6.743 -0.3108  0.3105 -0.3045
   96SAPS   C31 9508   2.950   4.917   6.773 -0.7112  0.2954 -0.0121
   96SAPS   O32 9509   3.039   4.905   6.693 -0.3857  0.1122  0.1259
   96SAPS   C32 9510   2.957   4.897   6.929 -0.0246 -0.0265  0.0813
   96SAPS   H2X 9511   2.866   4.841   6.961  0.8913 -1.3932  0.3709
   96SAPS   H2Y 9512   2.942   5.002   6.961  0.9146  0.3799 -0.7528
   96SAPS   C23 9513   2.565   4.500   6.928  0.2468  0.4604  0.9031
   96SAPS   H3R 9514   2.644   4.422   6.935 -1.5956 -1.5769 -0.1944
   96SAPS   H3S 9515   2.470   4.455   6.963 -0.5465 -0.3927 -2.0495
   96SAPS   C24 9516   2.621   4.609   7.013 -0.2564  0.5510  0.7754
   96SAPS   H4R 9517   2.704   4.661   6.961  1.8506 -1.3607  2.0287
   96SAPS   H4S 9518   2.676   4.571   7.102  2.7311  0.9657 -0.7708
   96SAPS   C25 9519   2.503   4.704   7.043 -0.0783  0.5966  0.0543
   96SAPS   H5R 9520   2.445   4.725   6.952  2.4964  0.1411 -1.8128
   96SAPS   C26 9521   2.468   4.745   7.164  0.2300 -0.2381 -0.1649
   96SAPS   H6R 9522   2.382   4.813   7.167 -0.2553 -0.8453 -0.1354
   96SAPS   C27 9523   2.544   4.726   7.293 -0.4803 -0.2951 -0.4417
   96SAPS   H7R 9524   2.539   4.819   7.353 -0.5528 -0.1091 -0.7294
   96SAPS   H7S 9525   2.651   4.736   7.264 -0.6461  4.9040 -0.1779
   96SAPS   C28 9526   2.506   4.606   7.371  0.0571 -0.0910  0.1260
   96SAPS   H8R 9527   2.443   4.529   7.324 -1.8118  0.0652  2.2156
   96SAPS   C29 9528   2.518   4.592   7.507 -0.2313  0.5340  0.2449
   96SAPS   H9R 9529   2.488   4.494   7.546 -0.9347  0.4482 -0.4851
   96SAPS  C210 9530   2.569   4.696   7.601  0.5890 -0.5577  0.1952
   96SAPS  H10R 9531   2.626   4.780   7.556 -0.6843 -0.0908 -0.5976
   96SAPS  H10S 9532   2.626   4.644   7.680 -0.5090 -1.0703  0.6717
   96SAPS  C211 9533   2.447   4.773   7.658 -0.4211  0.2796  0.1476
   96SAPS  H11R 9534   2.381   4.818   7.582 -0.2024  0.3217 -0.0194
   96SAPS  C212 9535   2.409   4.794   7.781 -0.1979  0.1429  0.3555
   96SAPS  H12R 9536   2.322   4.858   7.798  1.2625  3.0512 -2.2489
   96SAPS  C213 9537   2.470   4.730   7.901  0.0002  0.0725 -0.1591
   96SAPS  H13R 9538   2.510   4.808   7.969  0.0783 -2.0420  2.3853
   96SAPS  H13S 9539   2.559   4.673   7.865 -0.1261  0.2799 -0.8058
   96SAPS  C214 9540   2.369   4.648   7.973 -0.1936 -0.0191 -0.4102
   96SAPS  H14R 9541   2.296   4.601   7.906  1.2603  1.6423 -3.3423
   96SAPS  C215 9542   2.352   4.633   8.107 -0.0151  0.2458 -0.1015
   96SAPS  H15R 9543   2.272   4.568   8.144  0.1304  1.2370  2.0610
   96SAPS  C216 9544   2.438   4.681   8.221 -0.4151  0.3244 -0.9343
   96SAPS  H16R 9545   2.404   4.774   8.273  4.3304  0.4046  2.7568
   96SAPS  H16S 9546   2.536   4.714   8.179  0.0272 -0.9165 -0.9211
   96SAPS  C217 9547   2.473   4.577   8.330  0.8644  0.1036 -0.0201
   96SAPS  H17R 9548   2.582   4.587   8.352  0.8452  1.1912 -0.3509
   96SAPS  H17S 9549   2.445   4.472   8.309 -0.6525  0.3315  0.7057
   96SAPS  C218 9550   2.411   4.605   8.473 -0.0703  0.1872 -0.0568
   96SAPS  H18R 9551   2.425   4.711   8.502  2.4627 -0.0166 -0.2794
   96SAPS  H18S 9552   2.471   4.557   8.553  1.2485  0.7059 -0.6989
   96SAPS  C219 9553   2.264   4.560   8.489 -0.5273  0.2704 -0.0291
   96SAPS  H19R 9554   2.261   4.456   8.450 -0.0173 -0.5610  2.0170
   96SAPS  H19S 9555   2.207   4.619   8.414  0.3155  2.0570  0.6817
   96SAPS  C220 9556   2.199   4.570   8.617  0.6370 -0.4823 -0.7124
   96SAPS  H20R 9557   2.245   4.517   8.703 -3.2319 -2.1897  0.5225
   96SAPS  H20S 9558   2.099   4.521   8.616  0.9603 -1.1588 -0.5287
   96SAPS  H20T 9559   2.188   4.676   8.649 -1.7199 -0.9285  0.2078
   96SAPS   C33 9560   3.087   4.835   6.978 -0.3541  0.4098  0.6804
   96SAPS   H3X 9561   3.163   4.886   6.915 -1.1427 -0.1367 -0.7675
   96SAPS   H3Y 9562   3.100   4.727   6.954 -2.3646  0.2944 -0.0744
   96SAPS   C34 9563   3.103   4.856   7.125 -0.1933  0.3661 -0.1511
   96SAPS   H4X 9564   3.110   4.965   7.148  1.5964  0.2295  0.1065
   96SAPS   H4Y 9565   3.202   4.816   7.156 -0.5532 -0.6690 -0.3116
   96SAPS   C35 9566   2.991   4.796   7.209  0.4334 -0.0188  0.2237
   96SAPS   H5X 9567   2.974   4.698   7.160  1.8921  0.1217 -0.6420
   96SAPS   H5Y 9568   2.902   4.861   7.222  0.5431  0.5671 -1.6697
   96SAPS   C36 9569   3.050   4.758   7.349  0.4443  0.4571 -0.3697
   96SAPS   H6X 9570   3.122   4.834   7.387 -1.7788  2.8996 -0.7780
   96SAPS   H6Y 9571   3.088   4.653   7.340 -2.6355 -0.7047 -0.8953
   96SAPS   C37 9572   2.942   4.753   7.458 -0.1355 -0.3734 -0.4756
   96SAPS   H7X 9573   2.872   4.668   7.442  0.2190 -0.3443 -2.3717
   96SAPS   H7Y 9574   2.899   4.855   7.458 -0.3324 -0.4532 -1.1195
   96SAPS   C38 9575   3.012   4.728   7.590  0.2522  0.2869 -0.2405
   96SAPS   H8X 9576   3.100   4.794   7.606  0.0402  0.5639 -0.2020
   96SAPS   H8Y 9577   3.042   4.621   7.591  1.1342  0.4888 -1.8281
   96SAPS   C39 9578   2.921   4.771   7.707  0.1763 -0.2690  0.5582
   96SAPS   H9X 9579   2.830   4.708   7.710 -0.0234  0.0368  1.2530
   96SAPS   H9Y 9580   2.903   4.880   7.699  0.1219 -0.3412 -0.4295
   96SAPS  C310 9581   2.996   4.755   7.840  0.3790  0.3785 -0.1166
   96SAPS  H10X 9582   3.075   4.831   7.861 -1.2058  2.0066  0.1983
   96SAPS  H10Y 9583   3.043   4.655   7.833 -1.6053 -0.6672  0.9615
   96SAPS  C311 9584   2.892   4.745   7.952 -0.4756  0.4372  0.7527
   96SAPS  H11X 9585   2.818   4.666   7.925  0.7713 -0.3117 -0.5949
   96SAPS  H11Y 9586   2.838   4.841   7.960 -0.3202  0.4737  1.4541
   96SAPS  C312 9587   2.964   4.705   8.085  0.1976 -0.5316  0.1859
   96SAPS  H12X 9588   3.064   4.754   8.095  1.8989 -3.6292 -0.2877
   96SAPS  H12Y 9589   2.987   4.596   8.094 -0.6713 -0.5838  2.4584
   96SAPS  C313 9590   2.872   4.746   8.201 -0.9191  0.1020  0.5879
   96SAPS  H13X 9591   2.776   4.693   8.185  0.0181 -1.4264 -0.2482
   96SAPS  H13Y 9592   2.868   4.857   8.205  0.1643  0.1225  1.5786
   96SAPS  C314 9593   2.931   4.707   8.339 -0.4577  0.3069  1.2734
   96SAPS  H14X 9594   3.034   4.745   8.355  0.1220 -1.7856  2.9533
   96SAPS  H14Y 9595   2.930   4.596   8.337  0.7798  0.2756 -1.5138
   96SAPS  C315 9596   2.853   4.775   8.445 -0.0358 -0.0786 -0.5716
   96SAPS  H15X 9597   2.744   4.771   8.428 -0.2686  1.0317  0.5304
   96SAPS  H15Y 9598   2.878   4.883   8.436  1.3904 -0.2574  0.6618
   96SAPS  C316 9599   2.900   4.730   8.589  0.3097  0.3484 -0.1807
   96SAPS  H16X 9600   2.855   4.805   8.658  0.2291  0.2726 -0.1526
   96SAPS  H16Y 9601   3.010   4.720   8.596  0.1223 -1.3090  0.9299
   96SAPS  C317 9602   2.843   4.600   8.635 -0.4313  0.0265  0.2876
   96SAPS  H17X 9603   2.850   4.517   8.561 -0.8859  0.6743 -0.5040
   96SAPS  H17Y 9604   2.738   4.623   8.661 -0.1017 -1.9907  4.1184
   96SAPS  C318 9605   2.908   4.551   8.764 -0.3395 -0.3170 -0.0679
   96SAPS  H18X 9606   2.902   4.623   8.848  0.2067 -0.4564  0.0871
   96SAPS  H18Y 9607   3.017   4.536   8.754 -0.2409  0.9295 -1.1640
   96SAPS  H18Z 9608   2.860   4.456   8.796  1.2875 -0.8889  0.7724
   97SAPS     N 9609   3.093   2.729   6.333 -0.1767  0.1053 -0.3230
   97SAPS   HN1 9610   3.119   2.817   6.382  0.1265 -0.2445  0.1514
   97SAPS   HN2 9611   3.003   2.737   6.282  0.6964  0.7018 -1.8379
   97SAPS   HN3 9612   3.095   2.656   6.406  1.8702  0.0482 -0.3784
   97SAPS   C12 9613   3.187   2.695   6.230 -0.4995 -0.2383 -0.5046
   97SAPS  H12A 9614   3.170   2.599   6.185  1.9314 -1.1087  0.2589
   97SAPS   C13 9615   3.216   2.802   6.116 -0.0295  0.4055  0.1244
   97SAPS  O13A 9616   3.142   2.908   6.112  0.2403  0.3165  0.5152
   97SAPS  O13B 9617   3.293   2.769   6.024 -0.0461 -0.0738 -0.0321
   97SAPS   C11 9618   3.332   2.679   6.294  0.5600 -0.2650 -0.6635
   97SAPS  H11A 9619   3.358   2.779   6.335 -1.3581  0.1296 -0.3031
   97SAPS  H11B 9620   3.397   2.652   6.208  1.3173  2.3097 -0.9826
   97SAPS     P 9621   3.472   2.522   6.451 -0.3738 -0.2366  0.6885
   97SAPS   O13 9622   3.464   2.376   6.437 -0.4508 -0.2237 -0.1083
   97SAPS   O14 9623   3.582   2.596   6.385  0.3548  0.1163  0.5427
   97SAPS   O12 9624   3.332   2.575   6.399 -0.1002  0.2346  0.2486
   97SAPS   O11 9625   3.459   2.566   6.602 -0.0877  0.0983  0.3112
   97SAPS    C1 9626   3.454   2.706   6.623 -0.0706  0.0990  0.8579
   97SAPS    HA 9627   3.534   2.761   6.568  1.7408 -0.6073  2.6728
   97SAPS    HB 9628   3.367   2.763   6.584 -2.3498 -2.8443  1.2668
   97SAPS    C2 9629   3.468   2.747   6.778 -0.5575  0.7722  0.3836
   97SAPS    HS 9630   3.517   2.846   6.793  0.1771  0.0981  3.0018
   97SAPS   O21 9631   3.566   2.648   6.831  0.2874 -0.3899 -1.1677
   97SAPS   C21 9632   3.697   2.655   6.803  0.5053  0.6166 -0.2837
   97SAPS   O22 9633   3.751   2.742   6.741  0.0016 -0.2152 -0.3135
   97SAPS   C22 9634   3.770   2.530   6.847 -0.1254  0.0018  0.1466
   97SAPS   H2R 9635   3.695   2.457   6.884 -0.6575  0.3262 -0.2686
   97SAPS   H2S 9636   3.817   2.491   6.755 -2.0743  1.6634 -1.6669
   97SAPS    C3 9637   3.344   2.742   6.862 -0.0522  0.3355  0.2603
   97SAPS    HX 9638   3.311   2.637   6.847  2.1784 -0.2431 -0.9876
   97SAPS    HY 9639   3.269   2.808   6.814 -1.4518 -1.1984  0.2441
   97SAPS   O31 9640   3.377   2.783   6.996 -0.2321 -0.1626 -0.2122
   97SAPS   C31 9641   3.400   2.681   7.080  0.9893 -0.4530 -0.6413
   97SAPS   O32 9642   3.392   2.563   7.056  0.3196 -0.4621 -0.1519
   97SAPS   C32 9643   3.453   2.738   7.213  0.0117  0.4173 -0.2244
   97SAPS   H2X 9644   3.445   2.849   7.209 -1.6306  0.4260  1.7374
   97SAPS   H2Y 9645   3.558   2.707   7.229 -0.0810 -1.1705 -2.3299
   97SAPS   C23 9646   3.879   2.553   6.944 -0.0616 -0.6045 -0.0634
   97SAPS   H3R 9647   3.948   2.634   6.911 -1.0223 -0.1049 -0.8872
   97SAPS   H3S 9648   3.935   2.457   6.943  2.3261  0.6872 -0.9385
   97SAPS   C24 9649   3.823   2.599   7.088  0.1112 -0.1093 -0.3437
   97SAPS   H4R 9650   3.740   2.536   7.125  1.3271 -0.2483  2.4240
   97SAPS   H4S 9651   3.772   2.695   7.068 -2.5313 -1.4905 -0.6167
   97SAPS   C25 9652   3.933   2.614   7.193 -0.0828  0.2405  0.4664
   97SAPS   H5R 9653   4.016   2.684   7.177 -0.4805  0.7447  0.5891
   97SAPS   C26 9654   3.924   2.559   7.320 -0.8847  0.2677  0.0849
   97SAPS   H6R 9655   4.004   2.590   7.388  0.4023  0.5101 -1.4780
   97SAPS   C27 9656   3.813   2.472   7.383 -0.2892  0.3906  0.8766
   97SAPS   H7R 9657   3.814   2.371   7.337 -0.9886  1.3525 -1.3894
   97SAPS   H7S 9658   3.709   2.505   7.363 -0.9557 -2.6030 -1.1173
   97SAPS   C28 9659   3.825   2.442   7.529 -0.1482  0.3839 -0.6980
   97SAPS   H8R 9660   3.849   2.336   7.545 -0.6288  0.3479 -0.1927
   97SAPS   C29 9661   3.823   2.524   7.634 -0.1410  0.3587 -0.0241
   97SAPS   H9R 9662   3.836   2.484   7.736 -0.0042  0.7717  0.1225
   97SAPS  C210 9663   3.786   2.674   7.624 -0.2902  0.5185  0.2867
   97SAPS  H10R 9664   3.692   2.688   7.681 -1.5123  1.3295 -1.7930
   97SAPS  H10S 9665   3.766   2.710   7.520 -0.4472 -0.3680 -0.0002
   97SAPS  C211 9666   3.905   2.752   7.686  0.1997  0.5480  0.0552
   97SAPS  H11R 9667   3.974   2.793   7.610 -0.7071  0.6904 -0.7150
   97SAPS  C212 9668   3.928   2.761   7.817  0.0221 -0.4059 -0.5983
   97SAPS  H12R 9669   4.022   2.811   7.843  0.7389 -1.2646 -1.4467
   97SAPS  C213 9670   3.853   2.707   7.936 -0.0401 -0.0449 -1.2421
   97SAPS  H13R 9671   3.773   2.632   7.917 -2.8823  0.7907  4.8911
   97SAPS  H13S 9672   3.776   2.779   7.971  0.7230 -0.6095  1.9481
   97SAPS  C214 9673   3.922   2.661   8.059  0.1238 -0.3972 -0.6263
   97SAPS  H14R 9674   3.928   2.551   8.066 -2.1630 -0.5924 -1.0426
   97SAPS  C215 9675   3.972   2.736   8.155 -0.9434 -0.7947 -0.0564
   97SAPS  H15R 9676   4.022   2.693   8.243 -0.1072 -1.9866 -1.0740
   97SAPS  C216 9677   3.963   2.883   8.156 -0.5930 -0.2769 -1.3278
   97SAPS  H16R 9678   3.941   2.927   8.056 -1.7063  1.9849 -0.1826
   97SAPS  H16S 9679   4.064   2.926   8.177 -0.6771 -0.5535 -0.2812
   97SAPS  C217 9680   3.875   2.959   8.260  0.9563  0.2279  0.4254
   97SAPS  H17R 9681   3.773   2.918   8.246 -0.4034  3.1537  1.1317
   97SAPS  H17S 9682   3.867   3.061   8.216 -1.9434 -0.3950 -0.7516
   97SAPS  C218 9683   3.927   2.965   8.403 -0.5813 -0.7076 -0.0843
   97SAPS  H18R 9684   3.868   3.035   8.465 -1.1697 -0.1834 -1.2004
   97SAPS  H18S 9685   4.030   3.008   8.407 -1.1398  0.6031  1.1458
   97SAPS  C219 9686   3.937   2.831   8.474  0.4784 -0.3415 -0.5396
   97SAPS  H19R 9687   3.890   2.750   8.414 -0.0150 -0.7617  0.3751
   97SAPS  H19S 9688   3.888   2.840   8.574  2.2169 -0.5762  0.3738
   97SAPS  C220 9689   4.079   2.779   8.505 -0.8341  0.4169 -0.0067
   97SAPS  H20R 9690   4.131   2.848   8.575 -0.7851  0.6977 -0.3149
   97SAPS  H20S 9691   4.123   2.777   8.403 -0.6583 -0.8763  0.0738
   97SAPS  H20T 9692   4.082   2.675   8.543 -0.4079  1.0570  1.7890
   97SAPS   C33 9693   3.371   2.680   7.326 -0.1534 -0.8710  0.1826
   97SAPS   H3X 9694   3.414   2.583   7.357  0.7463 -0.2132  1.0736
   97SAPS   H3Y 9695   3.269   2.656   7.292 -0.3467 -0.9177  0.7750
   97SAPS   C34 9696   3.363   2.783   7.438  0.0853  0.1452  0.0861
   97SAPS   H4X 9697   3.309   2.870   7.396  1.2854  0.3811 -1.0177
   97SAPS   H4Y 9698   3.469   2.816   7.446 -0.8464  3.0784  1.7967
   97SAPS   C35 9699   3.316   2.741   7.578 -0.2770 -0.6152 -0.3722
   97SAPS   H5X 9700   3.349   2.639   7.607  0.1769 -0.4920 -0.4346
   97SAPS   H5Y 9701   3.206   2.730   7.583 -0.2749 -1.4886 -1.8700
   97SAPS   C36 9702   3.371   2.847   7.684  0.3468  0.6287  0.2165
   97SAPS   H6X 9703   3.321   2.943   7.657  2.8637  1.8748 -0.2612
   97SAPS   H6Y 9704   3.481   2.846   7.671  0.2594 -1.3316 -0.7576
   97SAPS   C37 9705   3.324   2.814   7.834  0.2727 -0.6838  0.5236
   97SAPS   H7X 9706   3.215   2.809   7.853  0.1842 -0.4410  0.0960
   97SAPS   H7Y 9707   3.367   2.895   7.897  0.2108  0.6549 -1.0944
   97SAPS   C38 9708   3.389   2.681   7.886  0.4004 -0.0201 -0.9793
   97SAPS   H8X 9709   3.500   2.688   7.879  0.3266  1.6670 -0.8873
   97SAPS   H8Y 9710   3.367   2.591   7.825  0.1399 -1.4296  1.0871
   97SAPS   C39 9711   3.340   2.648   8.028 -0.1858  0.1124  0.3412
   97SAPS   H9X 9712   3.231   2.633   8.018 -0.1599 -0.3093  0.6926
   97SAPS   H9Y 9713   3.363   2.740   8.086  0.4757  0.4085 -0.3627
   97SAPS  C310 9714   3.401   2.526   8.097  0.2160  0.1767  0.4649
   97SAPS  H10X 9715   3.402   2.441   8.025 -1.3828 -0.3081  0.9709
   97SAPS  H10Y 9716   3.340   2.499   8.186 -1.8014 -1.9482 -1.4118
   97SAPS  C311 9717   3.544   2.544   8.139  0.3158 -0.4181  0.8288
   97SAPS  H11X 9718   3.537   2.630   8.208 -1.8406 -1.0950  1.5316
   97SAPS  H11Y 9719   3.610   2.563   8.052  2.2731 -0.2942  2.2695
   97SAPS  C312 9720   3.586   2.423   8.225 -0.4309  0.1598 -0.0486
   97SAPS  H12X 9721   3.593   2.339   8.154 -0.0954 -0.8794  1.1759
   97SAPS  H12Y 9722   3.513   2.380   8.297 -0.0154 -1.9281 -0.8160
   97SAPS  C313 9723   3.723   2.436   8.281 -1.1465 -0.9619  0.1325
   97SAPS  H13X 9724   3.735   2.527   8.344 -2.6759 -1.7110  1.5671
   97SAPS  H13Y 9725   3.797   2.437   8.198 -0.0483 -1.9505  1.0533
   97SAPS  C314 9726   3.742   2.320   8.374  0.5458 -0.4059 -0.9138
   97SAPS  H14X 9727   3.750   2.223   8.320  0.3225  0.2314 -2.1296
   97SAPS  H14Y 9728   3.653   2.323   8.442  1.1361  0.3363 -0.1585
   97SAPS  C315 9729   3.854   2.349   8.479 -0.0051  0.3175  0.3595
   97SAPS  H15X 9730   3.859   2.264   8.551  1.5399 -0.6352 -0.8053
   97SAPS  H15Y 9731   3.827   2.438   8.539  0.6152  0.2500  0.7419
   97SAPS  C316 9732   3.989   2.374   8.413 -0.4680  0.2941 -0.2085
   97SAPS  H16X 9733   3.989   2.483   8.393  2.2129  0.2132 -1.0342
   97SAPS  H16Y 9734   4.016   2.314   8.324 -1.3918  1.4480 -1.3170
   97SAPS  C317 9735   4.110   2.337   8.508  0.7278  0.1996 -0.1080
   97SAPS  H17X 9736   4.096   2.229   8.529 -0.4621  0.3214 -0.2427
   97SAPS  H17Y 9737   4.101   2.393   8.604 -0.5802  1.5949 -1.0119
   97SAPS  C318 9738   4.247   2.369   8.444 -1.1658  0.0926 -0.3864
   97SAPS  H18X 9739   4.235   2.459   8.380 -1.7023 -0.0961 -0.5598
   97SAPS  H18Y 9740   4.283   2.282   8.386  2.4588  0.5329  0.9801
   97SAPS  H18Z 9741   4.320   2.389   8.526 -2.2940 -0.7408  0.8671
   98SAPS     N 9742   1.734   2.897   5.871  0.3462  0.2033  0.0264
   98SAPS   HN1 9743   1.691   2.832   5.941 -1.1277  2.7230  1.5978
   98SAPS   HN2 9744   1.791   2.841   5.804 -1.3199 -1.5236 -0.0278
   98SAPS   HN3 9745   1.804   2.955   5.921  1.7907 -0.3709 -1.2443
   98SAPS   C12 9746   1.640   2.989   5.802  0.4611  0.1235  0.4085
   98SAPS  H12A 9747   1.693   3.060   5.740  0.1003 -0.5164 -0.6619
   98SAPS   C13 9748   1.528   2.924   5.708  0.7277 -0.3209 -0.8716
   98SAPS  O13A 9749   1.518   2.800   5.697 -0.8674 -0.1448 -0.4665
   98SAPS  O13B 9750   1.451   2.999   5.641  0.4810 -0.7536  0.4110
   98SAPS   C11 9751   1.575   3.079   5.911 -0.4776 -0.1274  0.1324
   98SAPS  H11A 9752   1.521   3.014   5.983 -0.1409  0.5500  1.0162
   98SAPS  H11B 9753   1.500   3.140   5.857 -0.1074  1.3073  1.1540
   98SAPS     P 9754   1.652   3.257   6.081  0.1067 -0.2454 -0.2705
   98SAPS   O13 9755   1.772   3.339   6.113 -0.2250  0.5859  0.7353
   98SAPS   O14 9756   1.529   3.329   6.040  0.1263 -0.3364  0.1914
   98SAPS   O12 9757   1.680   3.150   5.970  0.6216  0.5845  0.2617
   98SAPS   O11 9758   1.624   3.180   6.200  0.4388 -0.1918 -0.0770
   98SAPS    C1 9759   1.674   3.049   6.225  0.2440 -0.4485 -0.0203
   98SAPS    HA 9760   1.595   2.970   6.229 -0.4873  0.2275 -0.5803
   98SAPS    HB 9761   1.753   3.010   6.157  0.7854 -1.6122  1.2307
   98SAPS    C2 9762   1.739   3.037   6.362 -0.2729  0.0360 -0.6180
   98SAPS    HS 9763   1.779   2.933   6.369  1.3615  0.7545  2.9854
   98SAPS   O21 9764   1.638   3.069   6.456  0.2954  0.1540  0.1789
   98SAPS   C21 9765   1.623   2.991   6.558  0.2393 -0.4180  0.6143
   98SAPS   O22 9766   1.684   2.883   6.570  0.0424 -0.5116 -0.2464
   98SAPS   C22 9767   1.546   3.062   6.665  0.2435 -0.5840 -0.5061
   98SAPS   H2R 9768   1.565   3.014   6.764  0.0054 -0.6131 -0.4733
   98SAPS   H2S 9769   1.565   3.171   6.653 -1.7890 -0.0191  0.7490
   98SAPS    C3 9770   1.866   3.120   6.401  0.7968 -0.0768  0.3707
   98SAPS    HX 9771   1.844   3.228   6.381  0.6755  0.0652  1.2445
   98SAPS    HY 9772   1.948   3.084   6.336 -0.1117  0.2805 -1.0312
   98SAPS   O31 9773   1.904   3.117   6.541 -0.6707  0.6883 -0.4918
   98SAPS   C31 9774   1.993   3.016   6.561 -0.1763 -0.8302 -0.3485
   98SAPS   O32 9775   2.042   2.945   6.475  0.2857  0.4176 -0.2198
   98SAPS   C32 9776   2.022   2.989   6.709  0.2385 -0.3560  0.6691
   98SAPS   H2X 9777   2.083   3.078   6.733 -0.5240 -0.4159  3.1341
   98SAPS   H2Y 9778   2.086   2.898   6.704  1.3465  0.4466 -0.0643
   98SAPS   C23 9779   1.398   3.058   6.638 -0.7255  0.3985  0.1807
   98SAPS   H3R 9780   1.370   2.954   6.613  0.6310  0.1883 -0.5317
   98SAPS   H3S 9781   1.369   3.120   6.550  1.5770  0.0677 -0.8747
   98SAPS   C24 9782   1.320   3.117   6.751  0.0208  0.6615 -0.1888
   98SAPS   H4R 9783   1.334   3.227   6.752  1.2015  0.5425 -1.5256
   98SAPS   H4S 9784   1.359   3.078   6.848 -0.7048  1.4200  0.4310
   98SAPS   C25 9785   1.178   3.078   6.738  0.3400 -0.3278 -0.3277
   98SAPS   H5R 9786   1.138   3.087   6.636 -0.5469  1.0537  0.1172
   98SAPS   C26 9787   1.094   3.044   6.839  0.5039  0.0966  0.3171
   98SAPS   H6R 9788   0.989   3.033   6.806  0.9510 -1.7915 -0.6397
   98SAPS   C27 9789   1.119   3.045   6.989 -1.0358 -0.2201  0.4603
   98SAPS   H7R 9790   1.052   3.123   7.032 -0.5804  0.5088 -0.1340
   98SAPS   H7S 9791   1.222   3.081   7.009 -1.8605  2.6970  0.0334
   98SAPS   C28 9792   1.087   2.909   7.043 -0.1639  0.4206 -0.2622
   98SAPS   H8R 9793   1.029   2.845   6.974  1.2120 -0.4986 -0.6053
   98SAPS   C29 9794   1.122   2.868   7.164 -0.3515 -0.5857  0.1100
   98SAPS   H9R 9795   1.088   2.770   7.199 -0.3496 -1.2467 -1.6687
   98SAPS  C210 9796   1.201   2.942   7.272 -0.0861  0.0857  0.6550
   98SAPS  H10R 9797   1.243   3.040   7.240 -1.5095  0.9544  1.3618
   98SAPS  H10S 9798   1.289   2.882   7.303  0.1486  1.0239  1.8814
   98SAPS  C211 9799   1.108   2.981   7.379  0.8443  0.1862 -0.4804
   98SAPS  H11R 9800   1.041   3.061   7.345  0.7978  0.1364 -0.5058
   98SAPS  C212 9801   1.095   2.928   7.501  0.0684 -0.0869  0.5665
   98SAPS  H12R 9802   1.003   2.953   7.556 -1.2445  2.5527 -2.5114
   98SAPS  C213 9803   1.178   2.821   7.558  0.5025  0.2464  0.2036
   98SAPS  H13R 9804   1.281   2.857   7.538 -0.4510  3.1650  0.0694
   98SAPS  H13S 9805   1.164   2.730   7.496  3.9736 -1.0127  1.0410
   98SAPS  C214 9806   1.142   2.794   7.702  0.0399  0.2502  0.2536
   98SAPS  H14R 9807   1.041   2.751   7.710  0.8951 -1.7634  0.8772
   98SAPS  C215 9808   1.216   2.809   7.814  0.6723 -0.4467 -0.0132
   98SAPS  H15R 9809   1.178   2.797   7.916 -0.9123 -0.0160 -0.5257
   98SAPS  C216 9810   1.347   2.873   7.816  0.6193 -0.1597 -0.4512
   98SAPS  H16R 9811   1.339   2.981   7.792  1.1644  0.4002  1.6491
   98SAPS  H16S 9812   1.410   2.832   7.735  2.2090  1.5470 -0.1523
   98SAPS  C217 9813   1.411   2.882   7.958  0.0564 -0.3380 -0.5945
   98SAPS  H17R 9814   1.438   2.780   7.993 -0.5789  0.1355  1.3702
   98SAPS  H17S 9815   1.334   2.921   8.028  0.8302  1.2039 -0.5489
   98SAPS  C218 9816   1.521   2.989   7.960 -0.0759  0.6964  0.6094
   98SAPS  H18R 9817   1.487   3.075   7.898 -1.2276 -0.1450  0.0499
   98SAPS  H18S 9818   1.613   2.953   7.908 -0.4458 -2.9275  2.1960
   98SAPS  C219 9819   1.573   3.035   8.097 -0.0628 -0.0270 -0.2531
   98SAPS  H19R 9820   1.483   3.057   8.159  0.1005 -3.2465  1.3219
   98SAPS  H19S 9821   1.621   3.135   8.090 -0.4231  0.0884 -1.2083
   98SAPS  C220 9822   1.659   2.942   8.183  0.0156  0.3397 -0.2150
   98SAPS  H20R 9823   1.611   2.845   8.207 -0.2276  0.6534  0.5969
   98SAPS  H20S 9824   1.672   2.994   8.280  0.2888  1.0254 -0.6098
   98SAPS  H20T 9825   1.749   2.916   8.123  0.7472 -0.9945  1.3998
   98SAPS   C33 9826   1.900   2.982   6.801 -0.5916  0.1982 -0.1378
   98SAPS   H3X 9827   1.835   2.897   6.772 -0.7197 -0.3251  1.5724
   98SAPS   H3Y 9828   1.836   3.072   6.784 -0.3731  0.1642 -1.2270
   98SAPS   C34 9829   1.917   2.968   6.959 -0.5411 -0.2852  0.4923
   98SAPS   H4X 9830   1.999   2.895   6.974 -0.4625 -0.3765 -0.3595
   98SAPS   H4Y 9831   1.822   2.919   6.991  0.5706 -1.1625  2.6392
   98SAPS   C35 9832   1.950   3.094   7.036 -0.4845  0.0018 -0.1671
   98SAPS   H5X 9833   1.880   3.177   7.009  0.3923  0.5901 -0.6875
   98SAPS   H5Y 9834   2.047   3.127   6.994 -1.4391  1.1384 -1.6038
   98SAPS   C36 9835   1.961   3.055   7.184  0.0490 -0.4548 -0.0656
   98SAPS   H6X 9836   2.022   2.962   7.193 -0.6871 -0.7555  3.0168
   98SAPS   H6Y 9837   1.861   3.029   7.226  0.3299 -0.9363  0.3245
   98SAPS   C37 9838   2.040   3.158   7.260  0.6312  0.5505 -0.1671
   98SAPS   H7X 9839   1.974   3.246   7.276  0.5286  0.0856  2.4080
   98SAPS   H7Y 9840   2.130   3.191   7.203  0.0643  1.8187 -0.3585
   98SAPS   C38 9841   2.073   3.094   7.394  0.1639 -0.7524  0.1444
   98SAPS   H8X 9842   2.145   3.165   7.439  0.8474 -1.2414 -0.1563
   98SAPS   H8Y 9843   2.131   2.999   7.385  0.3998 -0.6170  0.2127
   98SAPS   C39 9844   1.952   3.086   7.489  0.3589  0.2337  0.2704
   98SAPS   H9X 9845   1.874   3.025   7.438 -1.6064  0.5031  2.7370
   98SAPS   H9Y 9846   1.905   3.186   7.505 -1.6734 -0.4805 -0.7910
   98SAPS  C310 9847   1.981   3.025   7.628 -0.4475  0.5124  0.0108
   98SAPS  H10X 9848   2.063   3.079   7.680  0.6065  1.5490 -2.5767
   98SAPS  H10Y 9849   2.007   2.918   7.619 -3.3400 -0.2500 -0.3231
   98SAPS  C311 9850   1.855   3.036   7.726  0.1467  0.3233 -0.5667
   98SAPS  H11X 9851   1.771   2.974   7.687 -1.3392  1.3020  0.9343
   98SAPS  H11Y 9852   1.815   3.139   7.716 -0.3173  0.0524 -1.7018
   98SAPS  C312 9853   1.883   2.983   7.868 -0.2240 -0.4322  0.2762
   98SAPS  H12X 9854   1.903   2.874   7.873  1.2683 -0.2876 -1.4184
   98SAPS  H12Y 9855   1.800   3.003   7.939 -0.3313 -1.8951  0.5901
   98SAPS  C313 9856   1.989   3.070   7.949  0.3260  0.2503  0.3280
   98SAPS  H13X 9857   1.975   3.174   7.914  2.0760 -0.1319 -1.7174
   98SAPS  H13Y 9858   2.085   3.037   7.903 -0.0124 -0.6627  0.2471
   98SAPS  C314 9859   1.994   3.061   8.105  0.0288  0.6514 -0.2876
   98SAPS  H14X 9860   1.888   3.069   8.136 -0.5829  1.4120 -2.3689
   98SAPS  H14Y 9861   2.054   3.138   8.158  0.4082  0.0911  0.1044
   98SAPS  C315 9862   2.055   2.925   8.163  0.0512  0.1384  0.0300
   98SAPS  H15X 9863   2.156   2.917   8.116 -0.1044 -0.6505 -0.1770
   98SAPS  H15Y 9864   1.997   2.836   8.130 -1.5854  0.9036  0.7590
   98SAPS  C316 9865   2.081   2.914   8.314  0.0027 -0.0867 -0.0765
   98SAPS  H16X 9866   2.123   3.007   8.357 -1.6492  0.6464  0.0214
   98SAPS  H16Y 9867   2.152   2.831   8.335  0.0655 -0.1694 -0.5846
   98SAPS  C317 9868   1.958   2.872   8.395 -0.5738  0.3124 -0.8684
   98SAPS  H17X 9869   1.895   2.818   8.321  0.9815 -0.4088 -1.7253
   98SAPS  H17Y 9870   1.906   2.966   8.422 -0.3403  0.7389 -1.8343
   98SAPS  C318 9871   1.998   2.793   8.517 -0.1729 -0.3764  0.4638
   98SAPS  H18X 9872   2.040   2.692   8.497 -0.6406 -0.8618  1.8607
   98SAPS  H18Y 9873   1.917   2.764   8.587  0.9231 -3.7834  0.4734
   98SAPS  H18Z 9874   2.076   2.848   8.572  1.1543 -1.5791 -0.1682
   99SAPS     N 9875   0.860   6.597   5.950 -0.0276  0.6864 -0.5471
   99SAPS   HN1 9876   0.860   6.576   6.052 -2.5262  0.8888 -0.4277
   99SAPS   HN2 9877   0.762   6.582   5.917 -0.3112  0.4901  0.3495
   99SAPS   HN3 9878   0.910   6.523   5.897 -1.5636 -1.3230  0.6410
   99SAPS   C12 9879   0.914   6.735   5.925  0.0391  0.7328  0.0320
   99SAPS  H12A 9880   1.017   6.725   5.957 -0.1112  0.5541  0.4711
   99SAPS   C13 9881   0.911   6.771   5.781  0.1141  0.4314 -0.7620
   99SAPS  O13A 9882   0.880   6.685   5.696 -0.2364  0.2397 -0.2585
   99SAPS  O13B 9883   0.962   6.880   5.744 -0.2724  0.2714  0.3612
   99SAPS   C11 9884   0.847   6.841   6.029  0.4611  0.5275 -0.3887
   99SAPS  H11A 9885   0.744   6.844   5.986  0.4880 -1.0225 -0.6240
   99SAPS  H11B 9886   0.901   6.937   6.017  2.2837 -0.0717  2.3295
   99SAPS     P 9887   0.710   6.748   6.227  0.2342  0.1143 -0.1240
   99SAPS   O13 9888   0.599   6.828   6.180  0.1216 -0.5541 -0.5691
   99SAPS   O14 9889   0.704   6.602   6.212  0.2235 -0.4147  0.2002
   99SAPS   O12 9890   0.851   6.791   6.161 -0.4402 -0.5654  0.5450
   99SAPS   O11 9891   0.735   6.791   6.385 -0.1089 -0.0597  0.1005
   99SAPS    C1 9892   0.827   6.707   6.455 -0.2425  0.2393  0.6846
   99SAPS    HA 9893   0.774   6.617   6.492 -1.1134  0.0260 -0.9954
   99SAPS    HB 9894   0.918   6.693   6.393 -1.5761  0.4900 -1.4309
   99SAPS    C2 9895   0.865   6.785   6.596 -0.8114 -0.2447  0.2796
   99SAPS    HS 9896   0.930   6.714   6.651 -0.0615 -1.0870 -1.6132
   99SAPS   O21 9897   0.744   6.813   6.672 -0.1621  0.6718  0.1678
   99SAPS   C21 9898   0.715   6.710   6.753 -0.5687 -0.0215 -0.4301
   99SAPS   O22 9899   0.767   6.604   6.755  0.3759 -0.1961 -0.3579
   99SAPS   C22 9900   0.606   6.755   6.854 -0.6919 -0.4670 -0.3248
   99SAPS   H2R 9901   0.550   6.844   6.821  0.5200  0.6082  0.4059
   99SAPS   H2S 9902   0.535   6.670   6.862 -1.4691 -0.0503 -2.2883
   99SAPS    C3 9903   0.953   6.916   6.569  0.1859  0.0367 -0.4284
   99SAPS    HX 9904   0.889   6.984   6.509 -1.8903  1.1575  2.8194
   99SAPS    HY 9905   1.030   6.888   6.493  0.8639  2.3749 -0.6903
   99SAPS   O31 9906   1.015   6.984   6.688 -0.3251  0.2320  0.1904
   99SAPS   C31 9907   0.934   7.078   6.741 -0.4498  0.5386 -0.2291
   99SAPS   O32 9908   0.817   7.079   6.722  0.2051  0.8661  0.0484
   99SAPS   C32 9909   1.018   7.181   6.836 -0.0422  1.1496  0.2974
   99SAPS   H2X 9910   1.010   7.153   6.943 -0.1660  0.8060  0.1999
   99SAPS   H2Y 9911   0.972   7.280   6.816 -2.0646 -0.0778 -1.6772
   99SAPS   C23 9912   0.677   6.801   6.985  0.7394  0.2866  0.2506
   99SAPS   H3R 9913   0.725   6.900   6.968  0.2032  0.0479 -3.7357
   99SAPS   H3S 9914   0.752   6.725   7.017 -1.6662 -2.7879 -0.9077
   99SAPS   C24 9915   0.576   6.817   7.110  0.9106 -0.7854  0.1106
   99SAPS   H4R 9916   0.507   6.899   7.079  0.9272 -0.7333  0.2111
   99SAPS   H4S 9917   0.641   6.862   7.188  2.7084 -1.0270 -1.1810
   99SAPS   C25 9918   0.503   6.702   7.159 -0.3101  0.3582 -0.0323
   99SAPS   H5R 9919   0.451   6.635   7.089 -2.4431  0.9691  0.8711
   99SAPS   C26 9920   0.488   6.670   7.293 -0.3587 -0.3863  0.3570
   99SAPS   H6R 9921   0.425   6.587   7.328 -1.4571  0.8450  1.4062
   99SAPS   C27 9922   0.535   6.750   7.408 -0.4847 -0.4429  0.4178
   99SAPS   H7R 9923   0.479   6.843   7.384  1.7175  1.4223  1.9444
   99SAPS   H7S 9924   0.642   6.781   7.402 -1.0372  1.3733 -0.9105
   99SAPS   C28 9925   0.507   6.699   7.545 -0.4941 -0.7292  0.2303
   99SAPS   H8R 9926   0.575   6.616   7.569  1.6198  0.2883 -1.8525
   99SAPS   C29 9927   0.432   6.752   7.637 -0.0029 -1.1927  0.0121
   99SAPS   H9R 9928   0.414   6.692   7.728  1.4444 -3.7991 -1.3083
   99SAPS  C210 9929   0.338   6.876   7.619  0.0527 -0.0199  0.4666
   99SAPS  H10R 9930   0.326   6.906   7.512  1.9351  0.8424  0.4573
   99SAPS  H10S 9931   0.386   6.966   7.664  2.7194  0.3027 -2.6384
   99SAPS  C211 9932   0.199   6.842   7.678  0.3201  0.7539 -0.4745
   99SAPS  H11R 9933   0.124   6.793   7.615 -0.4718  0.9634  0.2853
   99SAPS  C212 9934   0.159   6.885   7.805 -0.4894  0.4677 -0.2474
   99SAPS  H12R 9935   0.062   6.849   7.844  0.0133 -1.7085 -0.8538
   99SAPS  C213 9936   0.244   6.968   7.900 -0.4519  0.6254  0.2363
   99SAPS  H13R 9937   0.341   6.998   7.857 -2.2111  1.9040 -3.2052
   99SAPS  H13S 9938   0.262   6.895   7.983 -0.4497  0.2777 -0.0675
   99SAPS  C214 9939   0.165   7.085   7.948 -0.2067 -0.2191 -0.0770
   99SAPS  H14R 9940   0.147   7.164   7.875  0.1508 -0.5461 -0.5302
   99SAPS  C215 9941   0.113   7.105   8.069 -0.0103 -0.6013 -0.2102
   99SAPS  H15R 9942   0.063   7.200   8.095  1.3391 -0.1805  0.9663
   99SAPS  C216 9943   0.117   7.017   8.191 -1.1688 -0.1663 -0.5658
   99SAPS  H16R 9944   0.168   6.921   8.171 -0.0551  0.1750  0.4947
   99SAPS  H16S 9945   0.013   6.987   8.216 -0.5841 -0.6241  1.4551
   99SAPS  C217 9946   0.156   7.086   8.323  0.4416 -0.0246 -0.2248
   99SAPS  H17R 9947   0.163   7.003   8.397  0.1154  0.0257 -0.1360
   99SAPS  H17S 9948   0.082   7.167   8.341  1.8400  1.4479 -0.8569
   99SAPS  C218 9949   0.290   7.159   8.324  0.0943  0.0742  0.7878
   99SAPS  H18R 9950   0.283   7.243   8.252  1.9036 -0.3059  0.1041
   99SAPS  H18S 9951   0.371   7.091   8.290 -1.2240 -0.8405 -0.6546
   99SAPS  C219 9952   0.328   7.230   8.450  0.0200 -0.1243 -0.6988
   99SAPS  H19R 9953   0.370   7.166   8.530  2.5246  3.1315  0.8631
   99SAPS  H19S 9954   0.236   7.270   8.497 -0.2155  1.2556 -2.2306
   99SAPS  C220 9955   0.426   7.345   8.420 -0.7192 -0.0692  0.1166
   99SAPS  H20R 9956   0.517   7.297   8.379 -0.6936  0.3298 -0.2923
   99SAPS  H20S 9957   0.452   7.406   8.509 -0.9671  0.5033 -0.2010
   99SAPS  H20T 9958   0.382   7.418   8.349  1.0905  0.5987 -0.3509
   99SAPS   C33 9959   1.162   7.191   6.794  0.0503  0.2862  0.2705
   99SAPS   H3X 9960   1.169   7.215   6.685 -0.7362 -2.4857 -0.4665
   99SAPS   H3Y 9961   1.211   7.092   6.796  1.1495  0.8201  1.0542
   99SAPS   C34 9962   1.250   7.282   6.877 -0.1763 -0.5910 -1.2802
   99SAPS   H4X 9963   1.219   7.258   6.981 -3.1386  1.1374 -1.6507
   99SAPS   H4Y 9964   1.214   7.385   6.855 -0.5237  0.2340  2.4473
   99SAPS   C35 9965   1.403   7.267   6.843 -0.7165 -0.3952 -0.4173
   99SAPS   H5X 9966   1.420   7.285   6.734  1.7607  1.2619  0.1621
   99SAPS   H5Y 9967   1.418   7.160   6.869 -0.9120  0.0973  1.8591
   99SAPS   C36 9968   1.492   7.355   6.936 -0.8041 -0.5108  0.2617
   99SAPS   H6X 9969   1.453   7.459   6.944  2.7212  0.8401  1.7976
   99SAPS   H6Y 9970   1.594   7.353   6.892 -1.3788 -1.2192 -1.0927
   99SAPS   C37 9971   1.508   7.307   7.080  0.3912  0.1706  0.1072
   99SAPS   H7X 9972   1.538   7.200   7.072  0.5603  0.3916 -3.8963
   99SAPS   H7Y 9973   1.413   7.314   7.138 -0.3374 -1.4772 -0.7953
   99SAPS   C38 9974   1.613   7.385   7.159  0.1482  0.2645 -0.0471
   99SAPS   H8X 9975   1.592   7.493   7.149 -0.8916 -0.0098 -0.9748
   99SAPS   H8Y 9976   1.709   7.365   7.107 -1.3138 -1.7069 -2.1782
   99SAPS   C39 9977   1.620   7.329   7.296 -0.7992  0.3119 -0.3379
   99SAPS   H9X 9978   1.668   7.229   7.282 -2.8035 -0.5306 -1.5654
   99SAPS   H9Y 9979   1.529   7.328   7.359  0.0518  3.9410  1.1984
   99SAPS  C310 9980   1.727   7.402   7.383 -0.5720  0.3653  0.6995
   99SAPS  H10X 9981   1.667   7.488   7.420 -1.1955  0.1033  0.3169
   99SAPS  H10Y 9982   1.805   7.426   7.308 -1.1895 -1.3759 -0.5660
   99SAPS  C311 9983   1.791   7.312   7.499  1.2611 -0.2013 -0.2549
   99SAPS  H11X 9984   1.870   7.249   7.453 -1.9590 -1.8513 -4.1923
   99SAPS  H11Y 9985   1.711   7.239   7.525 -0.0727  1.1554 -0.4355
   99SAPS  C312 9986   1.827   7.390   7.622 -0.5515 -0.4845  0.0780
   99SAPS  H12X 9987   1.729   7.436   7.649  0.5620  2.1036 -0.0293
   99SAPS  H12Y 9988   1.894   7.467   7.577 -1.1138 -1.1869 -2.0596
   99SAPS  C313 9989   1.866   7.302   7.742 -0.0589 -0.0032  0.3797
   99SAPS  H13X 9990   1.966   7.254   7.740 -0.0982 -0.0593 -0.7356
   99SAPS  H13Y 9991   1.792   7.221   7.756 -1.0227  0.6217 -0.8933
   99SAPS  C314 9992   1.855   7.370   7.878 -0.7608 -1.1898 -0.4695
   99SAPS  H14X 9993   1.875   7.289   7.951 -0.9370 -0.5871  0.2627
   99SAPS  H14Y 9994   1.751   7.409   7.889  0.5226  2.3310  0.4931
   99SAPS  C315 9995   1.932   7.499   7.901 -0.4122 -0.4569  0.7395
   99SAPS  H15X 9996   1.901   7.580   7.831 -0.7686  0.7623  2.2749
   99SAPS  H15Y 9997   2.037   7.473   7.877 -1.1520 -0.7232 -2.8185
   99SAPS  C316 9998   1.916   7.570   8.040 -0.2371 -0.0843 -0.3185
   99SAPS  H16X 9999   1.813   7.610   8.032 -0.8230 -1.4998 -0.0351
   99SAPS  H16Y10000   1.992   7.651   8.039 -1.8800  1.6860  3.1057
   99SAPS  C31710001   1.943   7.490   8.164 -0.1728  0.9422 -0.0348
   99SAPS  H17X10002   2.045   7.446   8.157 -0.9584 -0.9141 -0.4886
   99SAPS  H17Y10003   1.876   7.402   8.148 -3.3707  3.3694 -1.1436
   99SAPS  C31810004   1.926   7.566   8.296 -1.1806 -0.6538  0.7358
   99SAPS  H18X10005   1.977   7.510   8.378 -0.9516 -0.4234  0.7524
   99SAPS  H18Y10006   1.817   7.561   8.318 -1.2246 -0.2660  0.6108
   99SAPS  H18Z10007   1.959   7.672   8.295 -1.1373 -0.6660 -0.0762
  100SAPS     N10008   3.981   1.597   5.986 -0.4593  0.5461  0.5744
  100SAPS   HN110009   3.936   1.540   5.912 -0.7811  0.3302  0.9343
  100SAPS   HN210010   4.084   1.584   5.972 -0.6125  1.0331 -1.1671
  100SAPS   HN310011   3.948   1.559   6.077 -1.5580 -2.0560 -0.8019
  100SAPS   C1210012   3.943   1.738   5.976  0.6949 -0.8243  0.3988
  100SAPS  H12A10013   4.021   1.784   5.917 -1.3559  2.1650 -0.2138
  100SAPS   C1310014   3.804   1.774   5.901  0.4076 -0.4271 -0.4152
  100SAPS  O13A10015   3.735   1.678   5.865  0.2287 -0.5544 -0.6494
  100SAPS  O13B10016   3.763   1.895   5.897 -0.0322 -0.0586 -0.2995
  100SAPS   C1110017   3.927   1.793   6.122 -0.2561  0.0129 -0.0391
  100SAPS  H11A10018   3.849   1.735   6.176  2.1156 -2.0382  1.4158
  100SAPS  H11B10019   3.895   1.900   6.121 -1.9134 -0.4451 -1.5974
  100SAPS     P10020   4.107   1.906   6.261  0.0167 -0.2703  0.8425
  100SAPS   O1310021   4.235   1.869   6.322 -0.6018 -0.3176  0.5655
  100SAPS   O1410022   4.116   2.016   6.163 -0.0333 -0.7295 -0.3396
  100SAPS   O1210023   4.051   1.771   6.191 -0.6912 -0.0921 -0.2641
  100SAPS   O1110024   3.995   1.925   6.370 -0.1643 -0.0818 -0.2374
  100SAPS    C110025   3.976   1.834   6.478  0.0256 -0.1508  0.0340
  100SAPS    HA10026   3.878   1.784   6.460  0.6719 -1.7672  0.8113
  100SAPS    HB10027   4.051   1.752   6.485  1.6136  1.3079  0.7392
  100SAPS    C210028   3.968   1.904   6.622 -0.0518  0.7647  0.7156
  100SAPS    HS10029   3.937   1.828   6.697  1.3150 -0.6422 -0.0857
  100SAPS   O2110030   3.874   2.012   6.628  0.5188 -0.2781  0.6906
  100SAPS   C2110031   3.749   1.976   6.660  0.1627 -0.5905 -0.0367
  100SAPS   O2210032   3.714   1.862   6.667  0.0491  0.3075  0.0491
  100SAPS   C2210033   3.676   2.100   6.707  0.3654  0.0878  0.0282
  100SAPS   H2R10034   3.672   2.173   6.623  2.0928  1.0075  0.6710
  100SAPS   H2S10035   3.573   2.068   6.730  0.6435 -1.4011 -0.7152
  100SAPS    C310036   4.109   1.956   6.660  0.1985 -0.9623  0.6413
  100SAPS    HX10037   4.128   2.039   6.589 -1.8730 -0.7327  0.2990
  100SAPS    HY10038   4.183   1.875   6.642 -0.6605 -2.0035  1.6806
  100SAPS   O3110039   4.123   1.998   6.799 -0.2943  0.0481 -0.1613
  100SAPS   C3110040   4.128   2.122   6.831  0.2723 -0.5799 -0.1043
  100SAPS   O3210041   4.107   2.217   6.757 -0.7831 -0.5782 -0.3730
  100SAPS   C3210042   4.187   2.135   6.972  0.4301 -0.4281 -0.4073
  100SAPS   H2X10043   4.295   2.110   6.974  0.6005  0.1912  2.5862
  100SAPS   H2Y10044   4.144   2.059   7.041  1.1578 -1.1233 -0.6918
  100SAPS   C2310045   3.748   2.174   6.824 -0.3871 -0.5076  0.4542
  100SAPS   H3R10046   3.679   2.250   6.868 -0.4335  0.0164 -0.5043
  100SAPS   H3S10047   3.837   2.226   6.784  2.5277 -4.0224  1.8127
  100SAPS   C2410048   3.782   2.089   6.951  0.1375 -0.0031 -0.2908
  100SAPS   H4R10049   3.848   2.138   7.026 -1.4937 -1.5269  2.3286
  100SAPS   H4S10050   3.851   2.009   6.918  0.3668  0.7341 -1.6367
  100SAPS   C2510051   3.662   2.014   7.007 -0.2547  0.4379  0.0618
  100SAPS   H5R10052   3.616   1.935   6.946 -1.9554  2.3934 -1.3196
  100SAPS   C2610053   3.588   2.055   7.112 -0.5027  0.3236  0.6194
  100SAPS   H6R10054   3.500   1.993   7.134 -0.5312  0.4587  0.8958
  100SAPS   C2710055   3.606   2.188   7.199 -0.0178  0.2135  0.1973
  100SAPS   H7R10056   3.660   2.259   7.133  0.7321  1.0082  1.6080
  100SAPS   H7S10057   3.681   2.171   7.280  1.5698 -0.4894 -1.3531
  100SAPS   C2810058   3.472   2.255   7.228  0.0656 -0.1265 -0.2208
  100SAPS   H8R10059   3.420   2.278   7.134  0.5596  0.7122 -0.3058
  100SAPS   C2910060   3.424   2.305   7.344 -0.6815  0.4665  0.1595
  100SAPS   H9R10061   3.321   2.346   7.341  0.0661  2.3981 -1.4103
  100SAPS  C21010062   3.467   2.280   7.489  0.3345 -0.7376 -0.2461
  100SAPS  H10R10063   3.377   2.296   7.551 -0.3429 -1.8022 -0.9136
  100SAPS  H10S10064   3.541   2.356   7.521 -1.6400  1.4861 -0.6988
  100SAPS  C21110065   3.508   2.137   7.535 -0.2351 -0.0408  0.3961
  100SAPS  H11R10066   3.494   2.059   7.459 -1.7512  0.0011  0.5916
  100SAPS  C21210067   3.573   2.112   7.652 -0.5258  0.3704  0.3273
  100SAPS  H12R10068   3.619   2.014   7.670  2.2910  1.1992 -1.7389
  100SAPS  C21310069   3.614   2.210   7.756  0.3028  0.0395  0.3388
  100SAPS  H13R10070   3.548   2.297   7.736 -3.3722 -1.4579  4.2704
  100SAPS  H13S10071   3.719   2.242   7.736  0.6350 -1.8436 -1.2199
  100SAPS  C21410072   3.592   2.160   7.896 -0.2216  0.7434 -0.3359
  100SAPS  H14R10073   3.508   2.215   7.940 -1.4685 -0.6085 -0.9709
  100SAPS  C21510074   3.671   2.072   7.970  0.3545 -0.1958  0.0043
  100SAPS  H15R10075   3.628   2.040   8.067  2.4812 -1.1268  0.6993
  100SAPS  C21610076   3.785   1.987   7.917 -0.3030 -0.5739 -0.0938
  100SAPS  H16R10077   3.798   1.995   7.807  1.0198 -0.9815  0.0246
  100SAPS  H16S10078   3.779   1.877   7.931 -0.1195 -0.5782 -0.0510
  100SAPS  C21710079   3.923   2.012   7.984 -0.0925  0.2491 -0.1533
  100SAPS  H17R10080   4.004   1.953   7.937 -0.4486 -0.9733  0.7092
  100SAPS  H17S10081   3.916   1.995   8.093 -1.6533  2.2748  0.1375
  100SAPS  C21810082   3.972   2.157   7.973 -0.3088 -0.0923 -0.3404
  100SAPS  H18R10083   3.887   2.218   8.010 -0.7986 -0.1367 -1.3699
  100SAPS  H18S10084   3.984   2.160   7.863 -0.5168  0.5130 -0.3474
  100SAPS  C21910085   4.103   2.200   8.046  0.5683 -0.4689 -0.4119
  100SAPS  H19R10086   4.181   2.140   7.995 -1.5622 -1.8124 -2.2773
  100SAPS  H19S10087   4.099   2.174   8.154 -0.5391 -0.5190 -0.4439
  100SAPS  C22010088   4.131   2.352   8.023 -0.0936  0.0854 -0.1269
  100SAPS  H20R10089   4.145   2.377   7.916  0.2698 -1.2293 -0.4074
  100SAPS  H20S10090   4.228   2.367   8.074  0.4243  0.1016 -1.0957
  100SAPS  H20T10091   4.049   2.383   8.092  1.4686 -0.5801  2.1356
  100SAPS   C3310092   4.161   2.278   7.033 -0.0632  0.6107  0.5787
  100SAPS   H3X10093   4.051   2.283   7.047 -0.5172 -2.5501 -0.8128
  100SAPS   H3Y10094   4.176   2.357   6.956 -1.4380  1.2324  0.9240
  100SAPS   C3410095   4.251   2.300   7.150 -0.3320  0.0427  0.0437
  100SAPS   H4X10096   4.355   2.320   7.118  0.2358 -1.5767  0.7500
  100SAPS   H4Y10097   4.244   2.205   7.209 -3.4634  0.0087 -0.2166
  100SAPS   C3510098   4.219   2.419   7.235 -0.8764 -0.1286  0.1715
  100SAPS   H5X10099   4.121   2.405   7.287 -0.6848  0.0006  0.5715
  100SAPS   H5Y10100   4.205   2.508   7.171  0.7141  0.3037  0.4017
  100SAPS   C3610101   4.330   2.449   7.342  0.0938 -0.0788  0.5132
  100SAPS   H6X10102   4.426   2.468   7.290  0.7199 -3.7513  0.0632
  100SAPS   H6Y10103   4.343   2.355   7.398 -0.5067 -0.2470  0.3830
  100SAPS   C3710104   4.301   2.567   7.436 -0.5565  0.2954  0.4178
  100SAPS   H7X10105   4.222   2.527   7.503  0.4984 -1.5689  0.6049
  100SAPS   H7Y10106   4.258   2.650   7.376  1.1343 -0.0603 -1.4071
  100SAPS   C3810107   4.421   2.611   7.522 -0.3110  0.2019  0.0844
  100SAPS   H8X10108   4.369   2.687   7.584 -0.2524  0.7260 -0.4944
  100SAPS   H8Y10109   4.498   2.658   7.458 -0.2670 -1.3734 -1.0735
  100SAPS   C3910110   4.478   2.495   7.601 -0.1600  0.4850 -0.1737
  100SAPS   H9X10111   4.554   2.429   7.553 -1.0960 -1.7314  1.2552
  100SAPS   H9Y10112   4.398   2.425   7.633  1.4639 -0.9325  0.8875
  100SAPS  C31010113   4.558   2.553   7.726 -0.3327  0.1606  0.4407
  100SAPS  H10X10114   4.476   2.595   7.788 -1.5157 -2.1288  0.5334
  100SAPS  H10Y10115   4.625   2.634   7.690 -1.0179  0.2574 -0.6762
  100SAPS  C31110116   4.631   2.445   7.808  0.2005  0.1394  0.0557
  100SAPS  H11X10117   4.672   2.497   7.897  0.8236 -0.9490  0.4219
  100SAPS  H11Y10118   4.714   2.396   7.752 -0.4675  0.5800 -1.3821
  100SAPS  C31210119   4.543   2.335   7.865  0.6609  0.0949 -0.4763
  100SAPS  H12X10120   4.463   2.306   7.793 -0.5850 -1.6104  1.4745
  100SAPS  H12Y10121   4.483   2.369   7.953 -0.3518  0.0545 -1.1287
  100SAPS  C31310122   4.623   2.215   7.920  0.7759  0.7605 -0.0002
  100SAPS  H13X10123   4.696   2.186   7.841  1.1975  0.5442  0.4591
  100SAPS  H13Y10124   4.547   2.135   7.928 -0.4580  1.9646  0.8459
  100SAPS  C31410125   4.676   2.245   8.065  0.4183  0.0016 -0.2196
  100SAPS  H14X10126   4.757   2.321   8.062 -1.6594  2.3414  0.1428
  100SAPS  H14Y10127   4.723   2.149   8.098 -1.6405 -0.4407  1.7084
  100SAPS  C31510128   4.576   2.286   8.171  0.4718  0.3346  0.3732
  100SAPS  H15X10129   4.505   2.203   8.190  0.3672 -0.2787 -2.2301
  100SAPS  H15Y10130   4.517   2.379   8.152  1.0298  0.3903 -1.2514
  100SAPS  C31610131   4.642   2.315   8.306 -0.3814 -0.0740  0.4716
  100SAPS  H16X10132   4.572   2.354   8.383 -3.4204 -0.4350 -1.9633
  100SAPS  H16Y10133   4.724   2.389   8.294  0.3008 -0.9133 -0.2343
  100SAPS  C31710134   4.703   2.183   8.370  0.1478  0.3469 -0.4466
  100SAPS  H17X10135   4.793   2.159   8.309 -0.5204 -2.0771 -0.6001
  100SAPS  H17Y10136   4.636   2.095   8.357  0.5779  0.2388 -2.1570
  100SAPS  C31810137   4.726   2.203   8.517 -0.0325 -0.3544 -0.1992
  100SAPS  H18X10138   4.634   2.190   8.578 -0.7367  0.0571 -1.1472
  100SAPS  H18Y10139   4.762   2.307   8.526  0.1156 -0.5452  2.0706
  100SAPS  H18Z10140   4.802   2.138   8.565 -0.2805 -0.2830  0.3011
  101OSM      N10141   2.102   2.636  10.875 -0.2975  0.2602  0.3066
  101OSM    C1510142   2.011   2.727  10.813  0.3504 -0.1999 -0.5471
  101OSM   H15A10143   2.033   2.826  10.851  2.0907 -0.8024  0.1259
  101OSM   H15B10144   1.909   2.711  10.845  0.7170  0.6006  1.1336
  101OSM   H15C10145   2.012   2.731  10.705 -0.4197 -0.9008 -0.5884
  101OSM    C1410146   2.095   2.669  11.023  0.5663  0.1010  0.1908
  101OSM   H14A10147   1.993   2.666  11.058  0.5168 -0.9168 -0.0060
  101OSM   H14B10148   2.132   2.771  11.032  0.2980  0.3449 -1.1530
  101OSM   H14C10149   2.161   2.602  11.076  1.5547 -1.1215 -2.3931
  101OSM    C1310150   2.062   2.491  10.861 -0.4775 -0.1971  0.1554
  101OSM   H13A10151   2.102   2.425  10.937  4.4758 -0.1564 -1.9903
  101OSM   H13B10152   2.087   2.455  10.762  0.1264  1.3609 -0.2935
  101OSM   H13C10153   1.955   2.492  10.871 -0.3948  0.7328  1.1245
  101OSM    C1210154   2.238   2.671  10.827 -0.8022  0.3766  0.3849
  101OSM   H12A10155   2.306   2.630  10.900  0.4419 -0.0814 -0.9858
  101OSM   H12B10156   2.258   2.777  10.833  1.1567 -0.0259  2.1737
  101OSM    C1110157   2.267   2.610  10.693 -0.3807 -0.4088 -0.5745
  101OSM   H11A10158   2.356   2.654  10.642 -1.4372 -0.4447 -2.5784
  101OSM   H11B10159   2.189   2.637  10.618 -0.0119 -0.2897 -0.9239
  101OSM      P10160   2.402   2.381  10.729 -0.5701 -0.1649 -0.3817
  101OSM    O1310161   2.470   2.444  10.845  0.0406  0.2556  0.0489
  101OSM    O1410162   2.354   2.243  10.749  0.6343  0.1650  0.3685
  101OSM    O1110163   2.501   2.389  10.605 -0.0004  0.7197  0.2856
  101OSM    O1210164   2.282   2.471  10.690 -0.2881 -0.1601 -0.5653
  101OSM    C1S10165   2.449   2.335  10.485 -0.2424 -0.2502  0.1743
  101OSM    H1S10166   2.346   2.369  10.461 -0.7520 -1.7194  0.2202
  101OSM    H1T10167   2.429   2.226  10.490 -2.8013  0.1613  0.1267
  101OSM     NF10168   2.473   2.349  10.240 -0.3120 -0.3065  0.7925
  101OSM    HNF10169   2.502   2.276  10.180 -1.6144  0.9833 -1.5446
  101OSM    C2S10170   2.542   2.368  10.365  0.0398 -0.2660 -0.6471
  101OSM    H2S10171   2.572   2.475  10.372 -1.5538  0.2279 -0.9653
  101OSM    C3S10172   2.681   2.296  10.381  0.5216 -0.6797 -0.3076
  101OSM    H3S10173   2.652   2.189  10.372  1.1122 -1.0030  1.3783
  101OSM     O310174   2.738   2.311  10.512 -0.2895  0.1004  0.5877
  101OSM    HO310175   2.672   2.355  10.566 -0.3226  0.7438  0.0368
  101OSM    C4S10176   2.770   2.331  10.278 -0.5365 -0.3104  0.1298
  101OSM    H4S10177   2.784   2.259  10.196  0.2155  0.4629 -0.4323
  101OSM    C5S10178   2.849   2.441  10.264 -0.0449  0.0205  0.4216
  101OSM    H5S10179   2.832   2.526  10.331 -2.4520 -1.2487  1.5919
  101OSM    C6S10180   2.942   2.463  10.149 -0.6132 -0.8655 -0.2080
  101OSM    H6S10181   3.046   2.433  10.173  0.4509  2.9613  0.5841
  101OSM    H6T10182   2.947   2.573  10.135  0.5067 -0.7687  0.7946
  101OSM    C7S10183   2.911   2.387  10.024 -0.5923  0.2495  0.1829
  101OSM    H7S10184   2.809   2.401   9.981 -0.5427 -3.0373 -1.3138
  101OSM    H7T10185   2.928   2.279  10.043  3.9993  1.0500  1.9321
  101OSM    C8S10186   3.008   2.418   9.898 -0.4903  0.4378 -0.5466
  101OSM    H8S10187   3.098   2.355   9.914 -0.0014  1.2842  0.1674
  101OSM    H8T10188   3.034   2.524   9.918  2.1215 -0.4777  1.4812
  101OSM    C9S10189   2.945   2.377   9.769  0.0965 -0.2414 -0.8002
  101OSM    H9S10190   2.859   2.436   9.732 -1.2490 -1.6353 -0.0116
  101OSM    H9T10191   2.896   2.279   9.789  0.9509 -0.5683 -0.2557
  101OSM   C10S10192   3.048   2.359   9.655 -0.2698 -0.2735 -0.1388
  101OSM   H10S10193   3.134   2.305   9.698 -1.8751  0.0839  3.9260
  101OSM   H10T10194   3.088   2.462   9.644  0.1270 -0.2613  1.3010
  101OSM   C11S10195   3.002   2.302   9.516  0.3533 -0.0165  0.2699
  101OSM   H11S10196   2.923   2.367   9.474  2.0122  1.9905  0.1380
  101OSM   H11T10197   2.960   2.201   9.537  0.8370 -0.3835 -0.4836
  101OSM   C12S10198   3.106   2.296   9.402 -0.2539  0.7049  0.0128
  101OSM   H12S10199   3.190   2.231   9.435  1.3489  2.3269 -0.7067
  101OSM   H12T10200   3.148   2.397   9.386 -2.0766  1.6812  1.1134
  101OSM   C13S10201   3.045   2.226   9.284  0.2481  0.2545  0.2850
  101OSM   H13S10202   2.959   2.289   9.253 -1.2415 -1.3014  1.0383
  101OSM   H13T10203   2.992   2.131   9.310  0.6315  0.1546  0.7135
  101OSM   C14S10204   3.136   2.195   9.173 -0.6356  0.4872 -0.4613
  101OSM   H14S10205   3.218   2.132   9.215  0.4707  2.0333 -0.2239
  101OSM   H14T10206   3.180   2.283   9.121 -0.2569  1.3544  1.2368
  101OSM   C15S10207   3.063   2.126   9.062  0.5429 -0.1679 -0.6847
  101OSM   H15S10208   2.984   2.200   9.036  0.8196  0.1960 -0.5033
  101OSM   H15T10209   3.016   2.030   9.090 -0.3103  0.1829 -0.9054
  101OSM   C16S10210   3.144   2.101   8.939 -0.7029 -0.3621  0.6526
  101OSM   H16S10211   3.192   2.199   8.920  0.1021 -0.6591  1.1270
  101OSM   H16T10212   3.080   2.081   8.850 -0.6912 -0.8242  0.7428
  101OSM   C17S10213   3.242   1.985   8.966 -0.2413 -0.4278  0.7630
  101OSM   H17S10214   3.177   1.898   8.990  0.5864 -1.3598 -0.2689
  101OSM   H17T10215   3.314   2.010   9.046  0.6259 -0.0236 -0.1297
  101OSM   C18S10216   3.317   1.953   8.841 -0.3652 -0.4062 -0.4192
  101OSM   H18S10217   3.242   1.933   8.761 -2.2263  0.4572  1.0294
  101OSM   H18T10218   3.396   1.880   8.868  0.6910  0.7141 -0.4244
  101OSM   H18U10219   3.380   2.038   8.806 -2.8144  0.6018 -2.8262
  101OSM    C1F10220   2.366   2.423  10.204 -0.1409  0.0745 -0.3716
  101OSM     OF10221   2.325   2.510  10.283  0.1837 -0.3799  0.6257
  101OSM    C2F10222   2.298   2.390  10.080  0.1488 -0.1819  0.1570
  101OSM    H2F10223   2.285   2.280  10.069 -2.0220  0.1488 -1.1264
  101OSM    H2G10224   2.364   2.414   9.994  1.4334 -4.6794 -0.3318
  101OSM    C3F10225   2.169   2.454  10.033  0.0625 -0.4009  0.6446
  101OSM    H3F10226   2.092   2.438  10.112  2.3786 -2.7495  2.6126
  101OSM    H3G10227   2.126   2.411   9.940  0.3761  2.9978 -1.2376
  101OSM    C4F10228   2.189   2.610  10.020 -0.3883 -0.5525  0.0743
  101OSM    H4F10229   2.217   2.652  10.119 -4.2114  0.8656  0.7250
  101OSM    H4G10230   2.092   2.661  10.001  0.5749  1.0463 -0.8528
  101OSM    C5F10231   2.285   2.655   9.904  0.0394  0.4216  0.1732
  101OSM    H5F10232   2.391   2.652   9.936 -0.2583 -2.7277  1.1793
  101OSM    H5G10233   2.268   2.763   9.882  1.7249  0.9092  1.1225
  101OSM    C6F10234   2.285   2.572   9.772  0.4955 -0.7100  0.4032
  101OSM    H6F10235   2.300   2.465   9.799  0.9807 -0.4908  1.0338
  101OSM    H6G10236   2.365   2.615   9.708  0.0801 -1.0249 -0.3334
  101OSM    C7F10237   2.149   2.584   9.700  0.0637  0.4241 -0.7935
  101OSM    H7F10238   2.097   2.682   9.704 -0.5678  0.0967 -0.9197
  101OSM    H7G10239   2.070   2.526   9.752  0.1890  1.1693  0.2692
  101OSM    C8F10240   2.163   2.533   9.553 -0.5073  0.4351 -0.5791
  101OSM    H8F10241   2.205   2.430   9.556 -0.1659  0.5869  0.9857
  101OSM    H8G10242   2.231   2.606   9.505  2.7648 -2.1132 -0.2061
  101OSM    C9F10243   2.025   2.515   9.492 -0.1852  0.1634 -0.3220
  101OSM    H9F10244   1.968   2.429   9.530  0.4420 -0.6112 -1.1100
  101OSM   C10F10245   1.975   2.585   9.392 -0.0934 -0.1575  0.0730
  101OSM   H10F10246   1.879   2.549   9.354  0.9388 -0.4133 -2.5137
  101OSM   C11F10247   2.056   2.694   9.327 -0.4726  0.0336 -0.4380
  101OSM   H11F10248   2.136   2.638   9.273 -0.6743 -1.8164  1.0939
  101OSM   H11G10249   2.109   2.760   9.399 -2.2239  1.8654 -0.7573
  101OSM   C12F10250   1.983   2.795   9.235 -0.3776  0.2256 -0.0901
  101OSM   H12F10251   2.059   2.871   9.206 -2.6424  3.2654  1.2942
  101OSM   H12G10252   1.909   2.848   9.300  1.1301 -1.5666  3.3586
  101OSM   C13F10253   1.915   2.721   9.120 -0.6758 -0.4448  0.5762
  101OSM   H13F10254   1.839   2.649   9.158 -1.9734  0.7094  0.2196
  101OSM   H13G10255   1.994   2.678   9.053  0.1421  2.0106 -0.1196
  101OSM   C14F10256   1.835   2.820   9.026  1.1146  0.0220 -0.6459
  101OSM   H14F10257   1.752   2.877   9.074 -0.8575 -1.5384 -2.0324
  101OSM   H14G10258   1.788   2.757   8.948  2.0732  0.2210 -1.3942
  101OSM   C15F10259   1.928   2.915   8.955  0.5606  0.1188  0.0591
  101OSM   H15F10260   1.990   2.854   8.886  0.5862  0.1317  0.0707
  101OSM   H15G10261   2.001   2.966   9.022 -1.8675  1.7526  1.6457
  101OSM   C16F10262   1.861   3.033   8.878 -0.1635 -0.1289 -0.3662
  101OSM   H16F10263   1.815   3.101   8.953  0.9752  0.7613 -0.4457
  101OSM   H16G10264   1.784   2.994   8.807 -0.7746  0.1812  0.1149
  101OSM   C17F10265   1.969   3.114   8.809 -0.5217  0.0344  0.7623
  101OSM   H17F10266   2.025   3.041   8.747  0.0734 -1.7143  3.2201
  101OSM   H17G10267   2.043   3.159   8.879  1.7598  0.3326 -1.6848
  101OSM   C18F10268   1.900   3.227   8.730  0.4849 -0.1266  0.1064
  101OSM   H18F10269   1.973   3.288   8.673 -2.0460  0.7033 -2.5026
  101OSM   H18G10270   1.840   3.290   8.798  0.9088  0.7244 -0.2945
  101OSM   H18H10271   1.835   3.172   8.658 -0.1069 -1.1343  1.3700
  102OSM      N10272   2.029   1.859  11.171 -0.1132 -0.2359  0.2286
  102OSM    C1510273   1.933   1.951  11.232  0.8989  0.0555 -0.4349
  102OSM   H15A10274   1.973   1.974  11.330 -0.4761 -2.2393  0.7281
  102OSM   H15B10275   1.837   1.904  11.243  2.1171 -2.7537 -0.8896
  102OSM   H15C10276   1.910   2.039  11.173 -1.3371 -0.4365 -0.3794
  102OSM    C1410277   2.166   1.916  11.152 -0.5316 -0.0781 -0.4595
  102OSM   H14A10278   2.228   1.839  11.110  2.1111  3.0458 -2.8425
  102OSM   H14B10279   2.206   1.950  11.246 -0.1157  0.2076 -0.7376
  102OSM   H14C10280   2.165   1.997  11.081 -0.2501 -0.0622 -0.4457
  102OSM    C1310281   2.041   1.743  11.262 -0.2116 -0.6203 -0.0188
  102OSM   H13A10282   2.123   1.683  11.228  1.4703  0.3316  2.0866
  102OSM   H13B10283   1.958   1.674  11.259  0.5953 -1.6607  0.9877
  102OSM   H13C10284   2.056   1.765  11.367 -0.2881 -1.5045  0.1817
  102OSM    C1210285   1.977   1.817  11.033  0.1384  0.0449  0.3690
  102OSM   H12A10286   1.883   1.771  11.061 -0.3017  0.9432  0.4092
  102OSM   H12B10287   2.031   1.734  10.990  0.1961  0.2456  0.0461
  102OSM    C1110288   1.976   1.923  10.923  0.5860 -0.1766  0.3499
  102OSM   H11A10289   1.926   2.014  10.964 -1.1654 -1.1510  0.4473
  102OSM   H11B10290   1.910   1.902  10.836  0.9684 -0.1982  0.0595
  102OSM      P10291   2.188   1.830  10.804  0.3800  0.1237 -0.0135
  102OSM    O1310292   2.310   1.883  10.736  0.0267 -0.1009 -0.2002
  102OSM    O1410293   2.209   1.713  10.886 -0.3640  0.3072  0.3952
  102OSM    O1110294   2.088   1.785  10.689  0.0052  0.6265 -0.0162
  102OSM    O1210295   2.108   1.946  10.874 -0.1168  0.6091 -0.4427
  102OSM    C1S10296   2.067   1.872  10.578 -0.2860  0.3114  0.2090
  102OSM    H1S10297   2.095   1.977  10.599  0.9356 -0.2413  1.4470
  102OSM    H1T10298   1.957   1.868  10.563 -0.2137 -1.5197 -0.0754
  102OSM     NF10299   2.078   1.918  10.336 -0.0795 -0.1099  0.1096
  102OSM    HNF10300   1.996   1.901  10.282  0.2630 -0.2258 -0.3787
  102OSM    C2S10301   2.130   1.831  10.439 -0.0962  0.0677 -0.3815
  102OSM    H2S10302   2.237   1.855  10.454 -0.5810  0.8200  2.4991
  102OSM    C3S10303   2.115   1.680  10.402 -0.6452 -0.4997  0.6560
  102OSM    H3S10304   2.006   1.659  10.404 -0.8320  0.2766 -0.4254
  102OSM     O310305   2.175   1.586  10.495  0.0889 -0.2141  0.1586
  102OSM    HO310306   2.194   1.647  10.566 -1.7413 -0.6703  1.1178
  102OSM    C4S10307   2.178   1.646  10.268 -0.2974  0.4843  0.4088
  102OSM    H4S10308   2.260   1.715  10.243 -0.2386 -0.7450 -3.6382
  102OSM    C5S10309   2.139   1.542  10.187  0.0728  1.0136 -0.1900
  102OSM    H5S10310   2.058   1.474  10.217 -0.5048 -0.2256 -4.1011
  102OSM    C6S10311   2.210   1.501  10.065 -0.5059 -0.1179 -0.5106
  102OSM    H6S10312   2.196   1.392  10.052 -2.5308  0.2747 -2.2452
  102OSM    H6T10313   2.316   1.533  10.070 -1.1960  2.3067  3.8169
  102OSM    C7S10314   2.145   1.556   9.922 -1.0372  0.5710 -0.4918
  102OSM    H7S10315   2.148   1.667   9.928 -0.8030  0.5000  1.6555
  102OSM    H7T10316   2.041   1.518   9.919 -0.6978 -0.2811 -1.5960
  102OSM    C8S10317   2.229   1.514   9.799 -0.4707 -0.3527 -0.0205
  102OSM    H8S10318   2.141   1.487   9.737 -1.6425 -1.6378  2.1110
  102OSM    H8T10319   2.285   1.420   9.815  0.8005  0.5759  1.3102
  102OSM    C9S10320   2.322   1.620   9.733  0.4263  0.4683  0.6748
  102OSM    H9S10321   2.400   1.643   9.809 -1.2964 -0.8274  2.9774
  102OSM    H9T10322   2.261   1.710   9.708  0.9289  0.4693 -0.6479
  102OSM   C10S10323   2.390   1.579   9.602  0.4300  0.1782  0.8960
  102OSM   H10S10324   2.437   1.478   9.613 -0.9590 -0.6335 -0.2517
  102OSM   H10T10325   2.468   1.651   9.571  0.0887 -0.8471 -2.8085
  102OSM   C11S10326   2.293   1.543   9.482 -0.2102  0.6858  0.2738
  102OSM   H11S10327   2.230   1.629   9.450 -1.7350 -0.7573 -0.8171
  102OSM   H11T10328   2.219   1.469   9.519  0.7618 -0.8117 -0.6720
  102OSM   C12S10329   2.369   1.494   9.354 -0.4869  0.2530  0.6289
  102OSM   H12S10330   2.424   1.399   9.374  1.6159  1.2123 -0.3408
  102OSM   H12T10331   2.447   1.565   9.319  0.1064 -0.8963 -0.4898
  102OSM   C13S10332   2.277   1.457   9.236  0.6647  0.0977 -0.0270
  102OSM   H13S10333   2.207   1.541   9.216 -0.3004 -0.0950  2.2046
  102OSM   H13T10334   2.216   1.370   9.270 -0.1908  0.6379 -0.1316
  102OSM   C14S10335   2.349   1.429   9.103 -0.5445 -0.4631  0.6658
  102OSM   H14S10336   2.420   1.344   9.111 -1.3436 -1.5754 -2.5515
  102OSM   H14T10337   2.399   1.519   9.060 -1.1099 -0.4396  0.0489
  102OSM   C15S10338   2.254   1.378   8.995  0.4539  0.7820  0.0902
  102OSM   H15S10339   2.204   1.283   9.022  0.8281  0.3906 -0.5840
  102OSM   H15T10340   2.313   1.347   8.907 -1.4188 -0.2180 -0.8652
  102OSM   C16S10341   2.141   1.477   8.953  0.1047  0.4137  0.4139
  102OSM   H16S10342   2.189   1.576   8.930  1.7513  0.5500  3.8678
  102OSM   H16T10343   2.076   1.494   9.041  1.4300 -0.2482  1.5468
  102OSM   C17S10344   2.069   1.423   8.823  0.0576  0.2013  0.2277
  102OSM   H17S10345   2.020   1.328   8.853 -1.1165  0.7799  0.2149
  102OSM   H17T10346   2.148   1.405   8.747  0.0050 -0.7977  0.4006
  102OSM   C18S10347   1.962   1.513   8.767 -0.2428  0.2483 -0.5382
  102OSM   H18S10348   1.906   1.463   8.685 -0.3690  0.7906 -0.7871
  102OSM   H18T10349   2.002   1.615   8.752  0.0493  0.1945 -0.1365
  102OSM   H18U10350   1.877   1.529   8.836  0.4898  0.2365  0.3916
  102OSM    C1F10351   2.124   2.040  10.315  0.3058 -0.2108 -0.0305
  102OSM     OF10352   2.215   2.089  10.379  0.0372  0.3801  0.0810
  102OSM    C2F10353   2.052   2.115  10.204  0.0151 -0.3977  0.0988
  102OSM    H2F10354   2.085   2.222  10.206 -0.0425 -0.3737 -0.1730
  102OSM    H2G10355   1.942   2.108  10.217 -0.0763 -1.1378 -0.9911
  102OSM    C3F10356   2.097   2.061  10.062 -0.7341  0.2210 -0.0514
  102OSM    H3F10357   2.077   1.952  10.065  2.0422 -0.3444  0.8292
  102OSM    H3G10358   2.206   2.065  10.043 -0.3869 -3.4962  0.4214
  102OSM    C4F10359   2.021   2.129   9.948 -0.5760  0.5645 -0.2323
  102OSM    H4F10360   2.031   2.239   9.960  0.5725  0.4340  0.1050
  102OSM    H4G10361   1.916   2.095   9.953 -0.0933 -1.2077 -1.2550
  102OSM    C5F10362   2.093   2.086   9.818 -0.3334 -0.1364  0.6044
  102OSM    H5F10363   2.090   1.975   9.814 -2.5426 -0.1092  0.3629
  102OSM    H5G10364   2.198   2.123   9.826 -0.4363  0.4242 -0.4761
  102OSM    C6F10365   2.028   2.132   9.687  0.4514  0.1955  0.1352
  102OSM    H6F10366   2.006   2.241   9.691  0.4490  0.1567  1.7524
  102OSM    H6G10367   1.927   2.086   9.682  0.8162 -0.6051 -0.1399
  102OSM    C7F10368   2.096   2.093   9.558  0.0666 -0.1816 -0.1925
  102OSM    H7F10369   2.129   1.989   9.577 -0.1000 -0.1480  0.2872
  102OSM    H7G10370   2.181   2.164   9.550 -1.4080  1.9680  1.8079
  102OSM    C8F10371   2.018   2.098   9.431  0.7141 -0.3063 -0.2962
  102OSM    H8F10372   1.960   2.192   9.425 -1.1136 -1.2434  1.4643
  102OSM    H8G10373   1.938   2.022   9.446 -0.4129  0.9099  0.1130
  102OSM    C9F10374   2.098   2.063   9.304  0.0334 -0.1682 -0.4082
  102OSM    H9F10375   2.130   1.960   9.287 -0.3596 -0.2350 -0.7677
  102OSM   C10F10376   2.127   2.156   9.209 -0.6164  0.1475 -0.5951
  102OSM   H10F10377   2.203   2.131   9.133  0.6095  0.4758  0.4950
  102OSM   C11F10378   2.101   2.305   9.201  0.8675 -0.1212  0.0402
  102OSM   H11F10379   2.196   2.357   9.174  0.8948 -0.5446 -0.6965
  102OSM   H11G10380   2.076   2.341   9.303  0.3560  4.8327 -1.5832
  102OSM   C12F10381   2.000   2.338   9.089  1.1351  0.0324 -0.8140
  102OSM   H12F10382   2.028   2.277   9.000  1.2716 -3.3010  1.3368
  102OSM   H12G10383   2.022   2.444   9.066 -0.7303  0.3361 -1.2773
  102OSM   C13F10384   1.853   2.320   9.124 -0.0180 -0.1925 -0.5967
  102OSM   H13F10385   1.819   2.392   9.201 -1.6381 -0.7881 -0.6968
  102OSM   H13G10386   1.853   2.218   9.169  1.9792  0.6453  1.4631
  102OSM   C14F10387   1.761   2.329   9.006  0.2593 -0.1018  0.0576
  102OSM   H14F10388   1.671   2.277   9.045  1.1644 -1.4110  0.4396
  102OSM   H14G10389   1.807   2.268   8.926  0.7687  0.8288 -0.3847
  102OSM   C15F10390   1.744   2.462   8.946 -0.0796 -0.4871 -0.3611
  102OSM   H15F10391   1.842   2.513   8.934 -0.5941  0.8943  0.9626
  102OSM   H15G10392   1.696   2.524   9.025  1.0939 -1.4230  1.1487
  102OSM   C16F10393   1.667   2.469   8.812  0.1871 -0.0756 -0.0448
  102OSM   H16F10394   1.561   2.486   8.837  0.2670 -0.5710  0.6598
  102OSM   H16G10395   1.669   2.368   8.766 -4.8108 -0.3728 -0.0642
  102OSM   C17F10396   1.709   2.586   8.718 -0.0094  0.4119 -0.5004
  102OSM   H17F10397   1.809   2.558   8.680  0.2773  0.4628  0.1910
  102OSM   H17G10398   1.726   2.678   8.777 -1.9558  0.6605 -0.2467
  102OSM   C18F10399   1.607   2.612   8.607  0.4976 -0.0496 -0.2725
  102OSM   H18F10400   1.657   2.665   8.523 -0.3893 -0.4101 -1.0474
  102OSM   H18G10401   1.546   2.695   8.649  1.3761  0.3419  0.2514
  102OSM   H18H10402   1.549   2.521   8.579 -0.0410  0.0965  0.3566
  103OSM      N10403   3.367   4.088  11.279 -0.5511 -0.1454  0.1841
  103OSM    C1510404   3.301   3.962  11.246  0.7554 -0.2634 -0.4251
  103OSM   H15A10405   3.243   3.962  11.156 -0.3970 -1.7065  0.2724
  103OSM   H15B10406   3.233   3.928  11.323  1.1694 -0.0681  0.0332
  103OSM   H15C10407   3.372   3.881  11.256  1.2039  0.0240 -1.2024
  103OSM    C1410408   3.266   4.200  11.299  0.5082 -0.4938 -0.3749
  103OSM   H14A10409   3.214   4.220  11.207  0.8044  1.9576 -0.0809
  103OSM   H14B10410   3.315   4.292  11.326 -0.6149 -0.6494  2.4994
  103OSM   H14C10411   3.203   4.179  11.384  1.2437 -0.4456  0.1897
  103OSM    C1310412   3.438   4.075  11.406 -0.4840 -0.4294 -0.3004
  103OSM   H13A10413   3.374   4.080  11.493 -0.3823  1.8477 -0.3056
  103OSM   H13B10414   3.514   4.150  11.417 -0.4054 -0.4937 -0.4022
  103OSM   H13C10415   3.485   3.977  11.404  1.5888  0.5321 -1.7453
  103OSM    C1210416   3.462   4.121  11.168  0.6131  0.1321  0.5262
  103OSM   H12A10417   3.534   4.040  11.168  0.6385  0.0811  3.0306
  103OSM   H12B10418   3.513   4.211  11.198  3.7087 -1.5667  0.7862
  103OSM    C1110419   3.411   4.152  11.024 -0.2158 -0.3617  0.4257
  103OSM   H11A10420   3.331   4.080  10.998 -1.2102  0.4291  1.1787
  103OSM   H11B10421   3.489   4.133  10.947 -2.0859 -0.6558 -1.4699
  103OSM      P10422   3.430   4.404  10.967  0.1615 -0.1692 -0.3759
  103OSM    O1310423   3.354   4.518  11.023  0.1456  0.4214  0.1132
  103OSM    O1410424   3.570   4.393  10.997 -0.0317  0.2775 -0.4106
  103OSM    O1110425   3.420   4.399  10.809  0.7390  0.2187 -0.9190
  103OSM    O1210426   3.350   4.278  11.018 -0.2034 -0.0917 -0.2266
  103OSM    C1S10427   3.293   4.372  10.742 -0.4132  0.2338 -0.2475
  103OSM    H1S10428   3.220   4.451  10.768  0.8938  2.0192 -1.7018
  103OSM    H1T10429   3.255   4.273  10.776 -1.7065  0.7123 -0.2629
  103OSM     NF10430   3.192   4.385  10.526 -0.9221 -0.3621 -0.1951
  103OSM    HNF10431   3.144   4.298  10.513  0.1566 -0.8144 -1.3056
  103OSM    C2S10432   3.318   4.376  10.594  0.1162  0.3329  0.3169
  103OSM    H2S10433   3.371   4.471  10.576 -1.1077  1.1247  0.7209
  103OSM    C3S10434   3.394   4.248  10.548 -0.0219 -0.0031  0.1536
  103OSM    H3S10435   3.321   4.165  10.551 -0.9039  0.6948 -1.0975
  103OSM     O310436   3.496   4.200  10.637 -0.3054 -0.3210  0.5616
  103OSM    HO310437   3.501   4.274  10.698  0.4354  0.6032 -0.5606
  103OSM    C4S10438   3.449   4.254  10.406  0.6384  0.5937 -0.1531
  103OSM    H4S10439   3.502   4.348  10.384 -0.5021  0.8360 -2.0710
  103OSM    C5S10440   3.431   4.156  10.317  0.4634  0.0125  0.0462
  103OSM    H5S10441   3.372   4.067  10.342 -1.8787  1.3688 -0.3566
  103OSM    C6S10442   3.494   4.141  10.179 -0.3425  0.4413  0.0819
  103OSM    H6S10443   3.418   4.178  10.107 -0.0030 -2.2328 -1.8049
  103OSM    H6T10444   3.506   4.033  10.159  0.4541  0.6562 -0.6483
  103OSM    C7S10445   3.626   4.218  10.159 -0.7408  0.5403  0.2443
  103OSM    H7S10446   3.694   4.209  10.246 -0.9417  3.3306  0.8021
  103OSM    H7T10447   3.610   4.328  10.147  1.6323  1.1885  2.2932
  103OSM    C8S10448   3.700   4.185  10.020  0.3544  0.1318 -0.0440
  103OSM    H8S10449   3.725   4.077  10.010 -1.3688 -0.2871 -0.1841
  103OSM    H8T10450   3.790   4.248  10.030  0.0019  0.6082  0.1833
  103OSM    C9S10451   3.608   4.226   9.904 -0.5118 -0.2653  0.0484
  103OSM    H9S10452   3.565   4.326   9.924  1.2254  1.0703 -2.3535
  103OSM    H9T10453   3.524   4.156   9.889 -1.2480  0.5868  0.1568
  103OSM   C10S10454   3.688   4.215   9.765  0.4273 -0.1839 -1.5195
  103OSM   H10S10455   3.721   4.110   9.752  0.0113 -0.4127 -0.7910
  103OSM   H10T10456   3.781   4.274   9.768  0.3800 -0.0597 -2.3551
  103OSM   C11S10457   3.589   4.249   9.648 -0.4869  0.3286  0.2244
  103OSM   H11S10458   3.544   4.348   9.671  0.9536  2.1017 -3.6287
  103OSM   H11T10459   3.518   4.164   9.640  0.4781 -0.4807  0.0295
  103OSM   C12S10460   3.661   4.262   9.516 -0.6641  0.2214 -0.1016
  103OSM   H12S10461   3.698   4.160   9.494  0.8614  0.1790  2.3096
  103OSM   H12T10462   3.753   4.324   9.522 -0.9949  0.7199 -0.0970
  103OSM   C13S10463   3.560   4.288   9.400 -0.3702 -0.0828  0.4219
  103OSM   H13S10464   3.502   4.382   9.410  3.5860  2.6714 -0.1694
  103OSM   H13T10465   3.491   4.201   9.396  0.9661 -1.1554  0.0047
  103OSM   C14S10466   3.646   4.303   9.279  0.3312 -0.4265 -0.1468
  103OSM   H14S10467   3.697   4.210   9.246  0.0660 -0.9116  0.7969
  103OSM   H14T10468   3.706   4.394   9.299 -0.1834  0.4647 -2.2777
  103OSM   C15S10469   3.557   4.347   9.158  1.3255 -0.2501  0.4109
  103OSM   H15S10470   3.497   4.435   9.189  0.6973 -0.6832  0.4471
  103OSM   H15T10471   3.477   4.279   9.123  0.4087  1.7679 -1.6648
  103OSM   C16S10472   3.628   4.372   9.022  0.0987  0.2811 -0.0792
  103OSM   H16S10473   3.645   4.278   8.965  1.1034  0.7834 -0.6401
  103OSM   H16T10474   3.728   4.416   9.041 -0.4315  1.1793  0.6667
  103OSM   C17S10475   3.545   4.467   8.934 -0.5525  0.2299  0.4159
  103OSM   H17S10476   3.542   4.569   8.977  0.5241  0.3652  0.1811
  103OSM   H17T10477   3.442   4.427   8.924  0.3521 -2.1355 -0.1376
  103OSM   C18S10478   3.607   4.474   8.796 -0.6536 -0.2322  0.5977
  103OSM   H18S10479   3.559   4.541   8.722  2.3286  1.0547 -0.3444
  103OSM   H18T10480   3.611   4.371   8.755  2.5899 -0.2853  0.7403
  103OSM   H18U10481   3.706   4.522   8.813 -1.0505  1.4801 -1.5342
  103OSM    C1F10482   3.130   4.506  10.526 -0.4462  0.5110 -0.2472
  103OSM     OF10483   3.166   4.598  10.594 -0.7158  0.2619 -0.0138
  103OSM    C2F10484   3.000   4.518  10.461  0.0670  0.0889  0.6023
  103OSM    H2F10485   2.944   4.607  10.497  1.5398  0.9547  0.8509
  103OSM    H2G10486   2.937   4.428  10.476  1.8343 -1.3346 -0.1727
  103OSM    C3F10487   3.013   4.530  10.305 -0.4178  0.5647  0.3581
  103OSM    H3F10488   3.057   4.435  10.268 -0.0290  1.0886 -0.5657
  103OSM    H3G10489   3.089   4.605  10.273 -0.9193  1.0694  0.3472
  103OSM    C4F10490   2.886   4.580  10.233  0.3241 -0.0657  0.4388
  103OSM    H4F10491   2.859   4.679  10.276  1.0003  1.3158 -2.1196
  103OSM    H4G10492   2.806   4.508  10.262  0.1260  0.0156  0.0936
  103OSM    C5F10493   2.892   4.591  10.083 -0.1966  0.4228  0.7131
  103OSM    H5F10494   2.793   4.583  10.035 -0.7220  1.3890  1.6077
  103OSM    H5G10495   2.956   4.510  10.041  1.4824  1.0950  1.8627
  103OSM    C6F10496   2.955   4.721  10.015  1.0822  0.4982 -0.7395
  103OSM    H6F10497   3.047   4.758  10.065  0.8738  5.3335 -3.3419
  103OSM    H6G10498   2.873   4.793  10.031  2.3150  1.3167  2.8711
  103OSM    C7F10499   2.997   4.698   9.868  0.8081  0.2536 -0.0670
  103OSM    H7F10500   2.911   4.650   9.818  0.7223  0.3868 -0.0468
  103OSM    H7G10501   3.072   4.616   9.874  0.8509  0.1962 -1.1937
  103OSM    C8F10502   3.064   4.829   9.813  0.1093  0.7072  1.2173
  103OSM    H8F10503   3.140   4.870   9.882  3.3138 -1.3253 -0.8590
  103OSM    H8G10504   2.983   4.905   9.808 -0.3516  0.1986  0.8628
  103OSM    C9F10505   3.124   4.801   9.674 -0.2479 -0.0928 -1.7186
  103OSM    H9F10506   3.220   4.749   9.688 -0.5477 -0.2459  0.0072
  103OSM   C10F10507   3.068   4.817   9.554 -0.3273 -0.9329 -1.2274
  103OSM   H10F10508   3.127   4.799   9.463  1.2251  0.5774 -0.5802
  103OSM   C11F10509   2.930   4.874   9.543 -0.7420  0.3764  0.7691
  103OSM   H11F10510   2.884   4.894   9.641 -0.7165 -0.6396  0.9951
  103OSM   H11G10511   2.867   4.795   9.497 -0.7761  1.0661 -0.4277
  103OSM   C12F10512   2.927   4.990   9.446 -0.0334 -0.1553 -0.1020
  103OSM   H12F10513   2.818   5.003   9.427 -0.3551  1.2301  2.3498
  103OSM   H12G10514   2.975   4.973   9.347 -0.5640  1.3187 -0.6437
  103OSM   C13F10515   2.980   5.126   9.497  0.0464 -0.5841 -0.0682
  103OSM   H13F10516   2.961   5.142   9.605 -0.8624 -0.1484 -0.2858
  103OSM   H13G10517   3.089   5.120   9.476  0.2144 -1.2979  0.9473
  103OSM   C14F10518   2.916   5.249   9.427  0.0058  0.7533 -0.3505
  103OSM   H14F10519   2.973   5.338   9.462  1.6329 -0.0122 -0.9584
  103OSM   H14G10520   2.810   5.272   9.452 -0.5504  0.1527 -2.0292
  103OSM   C15F10521   2.926   5.250   9.274  0.3109  0.3928 -0.0273
  103OSM   H15F10522   2.850   5.180   9.233  0.7868 -0.6329  0.7814
  103OSM   H15G10523   3.029   5.213   9.253 -0.3443 -1.1072 -0.7736
  103OSM   C16F10524   2.899   5.382   9.210  0.0387 -0.4086 -0.5180
  103OSM   H16F10525   2.951   5.449   9.281 -0.2969 -1.1431  0.4428
  103OSM   H16G10526   2.788   5.383   9.209 -0.1208 -3.3928  1.5414
  103OSM   C17F10527   2.972   5.397   9.074  0.1264 -0.9885  0.4226
  103OSM   H17F10528   2.949   5.314   9.004  0.3372  0.3438 -1.3035
  103OSM   H17G10529   3.083   5.398   9.087  0.1115  0.6873  0.6367
  103OSM   C18F10530   2.939   5.529   9.002  0.7114 -0.0857  0.0458
  103OSM   H18F10531   3.013   5.550   8.922 -0.4101 -0.4993 -1.1238
  103OSM   H18G10532   2.943   5.613   9.075 -2.1458  0.5227 -0.3924
  103OSM   H18H10533   2.835   5.540   8.965  0.2941 -0.0631  1.1894
  104OSM      N10534   0.909   4.067  10.973  0.0729  0.4135  0.0141
  104OSM    C1510535   0.777   4.041  11.036  0.8613  0.1095  0.0570
  104OSM   H15A10536   0.782   4.022  11.142  0.6652 -3.5532 -0.4744
  104OSM   H15B10537   0.725   3.956  10.993  0.1979  0.4852  0.0939
  104OSM   H15C10538   0.715   4.129  11.030 -0.2639 -0.5451  1.5403
  104OSM    C1410539   0.971   4.199  11.027 -0.3443  0.0213  0.3069
  104OSM   H14A10540   1.063   4.230  10.979 -0.0290 -0.5775  0.5223
  104OSM   H14B10541   0.975   4.190  11.135 -2.5529  0.6028  0.4998
  104OSM   H14C10542   0.899   4.280  11.015 -1.7225 -1.1466  0.4087
  104OSM    C1310543   1.006   3.958  11.014  0.2255 -0.9781  0.0358
  104OSM   H13A10544   0.980   3.862  10.972 -2.1592 -0.1008 -0.7050
  104OSM   H13B10545   1.010   3.946  11.121  1.5881 -1.7092 -0.0809
  104OSM   H13C10546   1.106   3.982  10.980 -0.1644  1.7123  0.5105
  104OSM    C1210547   0.884   4.086  10.827  0.0843  0.0698 -0.2756
  104OSM   H12A10548   0.976   4.128  10.790 -0.2226  0.7122 -0.3181
  104OSM   H12B10549   0.805   4.158  10.810 -1.8633 -1.6130  1.0319
  104OSM    C1110550   0.848   3.962  10.742  0.5881 -0.0257  0.3493
  104OSM   H11A10551   0.923   3.881  10.734 -0.7803 -1.1899 -2.2853
  104OSM   H11B10552   0.833   3.984  10.634  0.3252 -0.9537  0.1800
  104OSM      P10553   0.672   3.776  10.702 -0.1145 -0.0023 -0.0553
  104OSM    O1310554   0.782   3.679  10.700  0.3556  0.2129  0.2197
  104OSM    O1410555   0.545   3.729  10.760 -0.0024  0.0930  0.2512
  104OSM    O1110556   0.646   3.839  10.559  0.3656  0.4198  0.1624
  104OSM    O1210557   0.723   3.902  10.788 -0.6890  0.5149 -0.3036
  104OSM    C1S10558   0.560   3.950  10.541 -0.1195 -0.3660  0.1258
  104OSM    H1S10559   0.612   4.034  10.590 -0.5051 -0.6017  0.9608
  104OSM    H1T10560   0.461   3.936  10.590  1.2941 -1.2691  2.9144
  104OSM     NF10561   0.446   4.080  10.359  0.2695 -0.1212  0.0949
  104OSM    HNF10562   0.358   4.049  10.323  1.0116 -0.5114 -1.4581
  104OSM    C2S10563   0.546   3.977  10.387 -0.0688  0.3900  0.5259
  104OSM    H2S10564   0.646   4.010  10.352 -0.4237  2.0346  0.9513
  104OSM    C3S10565   0.496   3.849  10.309 -0.7107 -0.2938 -0.0067
  104OSM    H3S10566   0.415   3.813  10.376  0.5934 -0.9724  1.2924
  104OSM     O310567   0.588   3.743  10.324  0.4912 -0.6651 -0.0302
  104OSM    HO310568   0.630   3.774  10.405  0.7557  1.3027 -0.8729
  104OSM    C4S10569   0.451   3.873  10.170 -0.1428  0.0318  0.5808
  104OSM    H4S10570   0.352   3.921  10.161 -0.7127 -1.3971 -1.2935
  104OSM    C5S10571   0.533   3.881  10.059  0.3737  0.7016  0.8489
  104OSM    H5S10572   0.642   3.869  10.070  0.5304 -1.3985 -1.8738
  104OSM    C6S10573   0.498   3.913   9.911 -0.5330 -0.2990 -0.2964
  104OSM    H6S10574   0.493   4.022   9.888 -1.4263 -0.2134  0.2495
  104OSM    H6T10575   0.395   3.874   9.896  0.2295 -2.2168 -0.7730
  104OSM    C7S10576   0.595   3.855   9.800 -0.2183  0.1133  0.2764
  104OSM    H7S10577   0.600   3.745   9.815  0.2313  0.4725  3.2787
  104OSM    H7T10578   0.703   3.881   9.809  0.4049 -0.9261 -2.8869
  104OSM    C8S10579   0.539   3.883   9.654 -0.9022 -0.3279 -0.1301
  104OSM    H8S10580   0.570   3.985   9.623 -1.2089 -0.1962 -0.0051
  104OSM    H8T10581   0.428   3.880   9.665 -0.7404 -0.4568  1.6328
  104OSM    C9S10582   0.591   3.779   9.558 -0.8331  0.0896  0.1051
  104OSM    H9S10583   0.554   3.680   9.592  1.3172 -1.9763 -3.0331
  104OSM    H9T10584   0.702   3.777   9.551 -0.6713  1.3343  1.8252
  104OSM   C10S10585   0.535   3.816   9.411 -0.2179 -0.2381 -0.5994
  104OSM   H10S10586   0.513   3.925   9.411  1.7050  0.2097  0.8525
  104OSM   H10T10587   0.439   3.763   9.392 -0.8930  0.3017  1.1694
  104OSM   C11S10588   0.634   3.774   9.306 -0.1418 -0.0097 -0.6173
  104OSM   H11S10589   0.653   3.665   9.304 -0.3461 -0.1027  0.8515
  104OSM   H11T10590   0.731   3.825   9.327 -0.1868 -0.4445  0.7929
  104OSM   C12S10591   0.592   3.829   9.174  0.0644  0.4168  0.2937
  104OSM   H12S10592   0.573   3.935   9.199  0.6205 -0.2855  4.4046
  104OSM   H12T10593   0.506   3.768   9.137  2.0672 -2.1718 -0.4015
  104OSM   C13S10594   0.706   3.801   9.070 -0.2253 -0.0259 -0.9964
  104OSM   H13S10595   0.752   3.701   9.083 -1.4463 -0.1996  3.8699
  104OSM   H13T10596   0.789   3.866   9.103 -1.8751  1.3738  0.6782
  104OSM   C14S10597   0.666   3.821   8.925  0.1440 -0.2406 -0.1498
  104OSM   H14S10598   0.558   3.810   8.903  0.3606  0.5396 -1.7317
  104OSM   H14T10599   0.717   3.738   8.871 -0.1162 -0.8723  0.5620
  104OSM   C15S10600   0.729   3.961   8.892  0.3309  0.3439  0.1678
  104OSM   H15S10601   0.836   3.953   8.920  1.0743  2.3828 -1.7805
  104OSM   H15T10602   0.689   4.034   8.966  2.2752  1.0326  0.5813
  104OSM   C16S10603   0.705   3.997   8.746 -1.3224  0.4498  0.3240
  104OSM   H16S10604   0.597   3.999   8.719 -1.7199  0.2856  1.8111
  104OSM   H16T10605   0.736   3.918   8.674 -0.1788  3.1891 -2.4084
  104OSM   C17S10606   0.781   4.127   8.710  0.2292  0.0705 -0.1870
  104OSM   H17S10607   0.886   4.117   8.747 -0.5307 -2.0453  1.6462
  104OSM   H17T10608   0.730   4.216   8.755 -0.7744  0.1148 -1.3694
  104OSM   C18S10609   0.772   4.162   8.555  0.0027  0.0663  0.2802
  104OSM   H18S10610   0.673   4.194   8.517 -2.1952 -2.4064  3.4394
  104OSM   H18T10611   0.807   4.080   8.488 -1.7020 -0.5273  0.0808
  104OSM   H18U10612   0.840   4.249   8.538 -0.0514  0.0264 -0.1611
  104OSM    C1F10613   0.484   4.210  10.384  0.7170 -0.0346 -0.7515
  104OSM     OF10614   0.569   4.248  10.461  0.2921  0.0034 -1.1973
  104OSM    C2F10615   0.398   4.313  10.314  0.3878 -0.4300  0.3591
  104OSM    H2F10616   0.382   4.400  10.381 -0.3906 -0.1824 -0.1383
  104OSM    H2G10617   0.305   4.258  10.289  1.0116 -1.1429 -0.4516
  104OSM    C3F10618   0.468   4.350  10.179 -0.4817 -0.3529 -0.1681
  104OSM    H3F10619   0.492   4.258  10.121  0.4533 -0.6083  0.6091
  104OSM    H3G10620   0.567   4.398  10.192 -0.3159 -0.6757 -0.2495
  104OSM    C4F10621   0.374   4.433  10.090  0.3086 -0.7090  0.3626
  104OSM    H4F10622   0.332   4.523  10.140  0.6519  0.3298 -1.1517
  104OSM    H4G10623   0.287   4.371  10.062 -1.0725 -0.4854  3.6585
  104OSM    C5F10624   0.451   4.487   9.966 -0.5538  0.3250  0.0248
  104OSM    H5F10625   0.516   4.565  10.011 -1.9336  0.4145  1.9939
  104OSM    H5G10626   0.373   4.543   9.911  1.6003  3.0389 -0.4569
  104OSM    C6F10627   0.520   4.373   9.896 -0.3109  0.0707 -0.6488
  104OSM    H6F10628   0.446   4.291   9.903 -2.0734  1.2821 -3.2900
  104OSM    H6G10629   0.614   4.355   9.952  1.6718  3.7043 -2.3964
  104OSM    C7F10630   0.548   4.410   9.749  0.5281  0.0056  0.3826
  104OSM    H7F10631   0.624   4.337   9.714 -0.4787  0.2153 -2.4314
  104OSM    H7G10632   0.587   4.514   9.744 -0.7858  0.5209  0.4231
  104OSM    C8F10633   0.422   4.401   9.658  0.1219 -0.0741  1.1175
  104OSM    H8F10634   0.344   4.468   9.700  0.0095  0.3438  0.2486
  104OSM    H8G10635   0.386   4.295   9.656  0.4530 -0.1725 -1.1623
  104OSM    C9F10636   0.462   4.447   9.520 -0.2278  0.1897  0.7021
  104OSM    H9F10637   0.487   4.553   9.508 -0.9701  0.2046 -1.0032
  104OSM   C10F10638   0.478   4.369   9.410  0.3982 -0.1868 -0.2144
  104OSM   H10F10639   0.496   4.416   9.312  0.0346  0.7364  0.1468
  104OSM   C11F10640   0.448   4.218   9.401 -0.4571  0.4572 -0.0193
  104OSM   H11F10641   0.462   4.176   9.503 -1.7738  1.0876  0.4501
  104OSM   H11G10642   0.502   4.165   9.320  0.1667  1.3526 -0.2036
  104OSM   C12F10643   0.304   4.189   9.356  0.3585 -0.5257  0.0630
  104OSM   H12F10644   0.249   4.227   9.445  3.4897 -1.1665  2.4932
  104OSM   H12G10645   0.281   4.081   9.352 -0.0962 -0.3988 -0.7778
  104OSM   C13F10646   0.249   4.256   9.229 -0.5075 -0.2482 -0.0355
  104OSM   H13F10647   0.236   4.361   9.261  1.1205 -1.1241  4.2769
  104OSM   H13G10648   0.149   4.213   9.206 -0.0823 -1.6462  0.6036
  104OSM   C14F10649   0.338   4.242   9.108 -0.3689 -0.1265  0.0054
  104OSM   H14F10650   0.388   4.144   9.116  1.4674  0.6323 -1.4091
  104OSM   H14G10651   0.423   4.311   9.124 -2.0604  1.8728  0.8733
  104OSM   C15F10652   0.275   4.266   8.965 -0.9771  0.1925 -0.5724
  104OSM   H15F10653   0.224   4.364   8.969 -1.2111  0.0515  2.9052
  104OSM   H15G10654   0.197   4.192   8.939 -0.1380 -0.0841 -2.4775
  104OSM   C16F10655   0.392   4.261   8.865  0.4649 -0.2076 -0.7049
  104OSM   H16F10656   0.441   4.161   8.864  0.9475 -0.0494  1.6586
  104OSM   H16G10657   0.477   4.327   8.893  1.7232 -1.6026 -1.0383
  104OSM   C17F10658   0.340   4.289   8.722 -0.4835  0.2113 -0.0108
  104OSM   H17F10659   0.337   4.400   8.712 -1.4591  0.0409 -1.9208
  104OSM   H17G10660   0.240   4.243   8.728  0.9368 -2.9786  1.9329
  104OSM   C18F10661   0.439   4.226   8.625 -0.5467 -0.2083  0.6508
  104OSM   H18F10662   0.398   4.208   8.523  0.4284 -0.3864  0.2842
  104OSM   H18G10663   0.466   4.123   8.659 -1.7060 -1.9886 -3.2275
  104OSM   H18H10664   0.530   4.288   8.611  0.0542 -1.1428  0.3314
  105OSM      N10665   0.215   3.418  11.176  0.1212 -0.1688 -0.9976
  105OSM    C1510666   0.079   3.389  11.229  0.3213 -0.1582 -0.6488
  105OSM   H15A10667   0.053   3.464  11.302  2.5370 -0.1947  0.2345
  105OSM   H15B10668   0.077   3.290  11.273  1.1206  0.4886  0.9138
  105OSM   H15C10669  -0.000   3.390  11.155 -0.6998  2.1314  0.3927
  105OSM    C1410670   0.302   3.407  11.294 -0.1824 -0.1068 -0.4959
  105OSM   H14A10671   0.290   3.310  11.339  1.1766 -0.6465 -1.2676
  105OSM   H14B10672   0.302   3.492  11.362  0.0152  0.0605 -0.7043
  105OSM   H14C10673   0.405   3.404  11.264  1.4441 -2.4310  4.2795
  105OSM    C1310674   0.261   3.314  11.089  1.0258  0.7191  0.2579
  105OSM   H13A10675   0.208   3.312  10.996  0.1872  1.3841  0.7078
  105OSM   H13B10676   0.254   3.216  11.134  0.6724 -0.2503 -1.8189
  105OSM   H13C10677   0.365   3.319  11.059  0.7781  0.3817 -0.6632
  105OSM    C1210678   0.223   3.559  11.111 -0.0391  0.4138 -0.6181
  105OSM   H12A10679   0.328   3.578  11.093  1.0059 -1.8538  2.3095
  105OSM   H12B10680   0.194   3.626  11.189 -1.1872 -0.8981  0.1346
  105OSM    C1110681   0.133   3.584  10.982  0.2610 -0.0344  0.0164
  105OSM   H11A10682   0.133   3.694  10.965  1.5237  0.3211  2.0150
  105OSM   H11B10683   0.029   3.555  11.008 -0.0629  0.4326 -0.7245
  105OSM      P10684   0.075   3.478  10.742 -0.0415 -0.2538  0.1124
  105OSM    O1310685   0.101   3.339  10.695 -0.4497  0.3796  0.8720
  105OSM    O1410686  -0.063   3.517  10.776  0.4497  0.5835 -0.0634
  105OSM    O1110687   0.121   3.582  10.624  0.1923  0.1157  0.1255
  105OSM    O1210688   0.177   3.508  10.866  0.0150 -0.3081  0.2219
  105OSM    C1S10689   0.256   3.595  10.590 -0.9128 -0.1250 -0.2583
  105OSM    H1S10690   0.333   3.548  10.655  1.0011 -0.8087 -2.8710
  105OSM    H1T10691   0.287   3.701  10.590  0.6862 -0.5321  0.8863
  105OSM     NF10692   0.434   3.515  10.436 -0.3161  0.4437  1.4453
  105OSM    HNF10693   0.487   3.583  10.387 -1.7187 -0.6782 -1.9525
  105OSM    C2S10694   0.284   3.526  10.451  0.5830 -0.4051  0.3275
  105OSM    H2S10695   0.239   3.424  10.446 -1.5450  0.4501  0.8329
  105OSM    C3S10696   0.202   3.606  10.343 -0.4760 -0.0661 -0.4534
  105OSM    H3S10697   0.227   3.714  10.355 -0.1488 -0.4085  2.7404
  105OSM     O310698   0.059   3.610  10.344 -0.2211  0.1563 -0.4733
  105OSM    HO310699   0.029   3.587  10.432 -2.7748  1.2839 -0.9435
  105OSM    C4S10700   0.254   3.564  10.210 -0.0190  0.3248 -0.4037
  105OSM    H4S10701   0.330   3.626  10.160  1.1868 -2.2940 -2.0617
  105OSM    C5S10702   0.233   3.444  10.151 -0.1365 -0.2471 -0.5869
  105OSM    H5S10703   0.158   3.372  10.187 -0.1922 -0.2979 -0.8019
  105OSM    C6S10704   0.300   3.421  10.021  0.0817 -0.5209 -0.7412
  105OSM    H6S10705   0.291   3.316   9.987  0.9056 -0.3819 -1.4078
  105OSM    H6T10706   0.409   3.444  10.019  0.4040 -1.8989 -0.1278
  105OSM    C7S10707   0.236   3.518   9.909 -0.3445  0.3790 -0.0344
  105OSM    H7S10708   0.255   3.626   9.923  0.4699  0.3476 -0.8443
  105OSM    H7T10709   0.125   3.512   9.908 -0.3272  0.0699 -0.1035
  105OSM    C8S10710   0.284   3.472   9.775  0.2591 -0.4356 -0.6235
  105OSM    H8S10711   0.219   3.383   9.761 -0.0125 -0.4502  0.6248
  105OSM    H8T10712   0.391   3.442   9.768 -0.3737 -2.7843 -1.3270
  105OSM    C9S10713   0.230   3.572   9.669 -0.2072  0.2904  0.4745
  105OSM    H9S10714   0.275   3.672   9.689 -2.1432  1.3280 -0.1157
  105OSM    H9T10715   0.122   3.594   9.684 -0.3337 -0.4664  0.7177
  105OSM   C10S10716   0.253   3.531   9.528 -0.0624  0.2552  0.7320
  105OSM   H10S10717   0.358   3.500   9.505 -0.5493 -0.9505  0.0577
  105OSM   H10T10718   0.231   3.622   9.468 -1.2756 -0.9564 -0.7676
  105OSM   C11S10719   0.167   3.420   9.469  0.3139  0.5723  0.6930
  105OSM   H11S10720   0.061   3.419   9.501  0.5233 -2.7317  1.6568
  105OSM   H11T10721   0.209   3.323   9.503 -0.3605 -0.5588 -1.5143
  105OSM   C12S10722   0.168   3.404   9.320 -0.3356 -0.0258  0.7798
  105OSM   H12S10723   0.117   3.309   9.291 -1.2217 -0.4547  3.4836
  105OSM   H12T10724   0.275   3.395   9.292 -0.8855 -2.2035 -0.9286
  105OSM   C13S10725   0.109   3.520   9.240  0.0775  0.8107 -0.1330
  105OSM   H13S10726   0.168   3.614   9.250 -0.1292  1.2341 -2.2850
  105OSM   H13T10727   0.005   3.532   9.279 -0.8594 -0.3448 -2.1521
  105OSM   C14S10728   0.089   3.492   9.097  0.7267  0.4387  1.0768
  105OSM   H14S10729   0.038   3.394   9.086 -1.0450  1.6120 -3.2765
  105OSM   H14T10730   0.190   3.468   9.055 -0.2511  0.9354 -1.8307
  105OSM   C15S10731  -0.000   3.588   9.004 -0.3108  0.1556 -0.4988
  105OSM   H15S10732  -0.089   3.604   9.069 -1.4088 -0.5061 -1.7925
  105OSM   H15T10733  -0.034   3.534   8.913  0.1308 -0.4340 -0.3215
  105OSM   C16S10734   0.062   3.722   8.967 -0.2128 -0.0232 -0.5777
  105OSM   H16S10735   0.095   3.757   9.067  0.0624 -2.5492  0.2859
  105OSM   H16T10736  -0.021   3.785   8.928 -1.5688 -0.5785  1.2589
  105OSM   C17S10737   0.181   3.737   8.871  0.0326  0.6997 -0.0543
  105OSM   H17S10738   0.261   3.669   8.908 -0.4279  0.0211 -0.2902
  105OSM   H17T10739   0.237   3.833   8.873  1.0395  0.2464 -2.4755
  105OSM   C18S10740   0.138   3.694   8.729 -0.1658  0.0444 -0.0764
  105OSM   H18S10741   0.040   3.735   8.696 -0.3575 -2.4411 -2.9823
  105OSM   H18T10742   0.126   3.584   8.723 -1.3974  0.2254 -1.5494
  105OSM   H18U10743   0.208   3.719   8.648 -0.7303  0.6876 -0.3760
  105OSM    C1F10744   0.503   3.422  10.499  0.5499  0.2048  0.0607
  105OSM     OF10745   0.447   3.346  10.580  0.1926  0.6740  0.3630
  105OSM    C2F10746   0.648   3.416  10.478  0.9137  0.5531  0.1476
  105OSM    H2F10747   0.688   3.385  10.577 -1.7618  1.6686  1.6659
  105OSM    H2G10748   0.689   3.517  10.458 -1.6510  1.7094  0.3921
  105OSM    C3F10749   0.691   3.310  10.377 -0.3646 -0.5189  0.0618
  105OSM    H3F10750   0.640   3.212  10.393 -2.5180  0.5219 -0.1384
  105OSM    H3G10751   0.798   3.296  10.403 -0.7708 -0.3383  1.9706
  105OSM    C4F10752   0.675   3.337  10.226  0.5507 -0.4941  0.4484
  105OSM    H4F10753   0.570   3.360  10.202  0.8208  0.0025 -0.2768
  105OSM    H4G10754   0.711   3.245  10.175  0.2084 -0.4236  0.0854
  105OSM    C5F10755   0.759   3.461  10.186 -0.0825  0.6352 -0.3160
  105OSM    H5F10756   0.868   3.445  10.202  0.1873  0.8669 -1.8401
  105OSM    H5G10757   0.732   3.550  10.247 -0.5396 -0.9677  1.9641
  105OSM    C6F10758   0.753   3.489  10.040  0.0723  0.6157  0.0527
  105OSM    H6F10759   0.650   3.515  10.009 -1.8691 -2.4939  3.0844
  105OSM    H6G10760   0.796   3.407   9.979 -2.0843  1.7663 -3.2374
  105OSM    C7F10761   0.841   3.611  10.001 -0.3524  0.4248  0.2860
  105OSM    H7F10762   0.836   3.700  10.068 -2.3355  3.2907 -3.3005
  105OSM    H7G10763   0.803   3.648   9.903 -0.1852 -2.1966 -0.8418
  105OSM    C8F10764   0.986   3.581   9.977 -1.0572 -0.1008 -0.5750
  105OSM    H8F10765   0.995   3.501   9.900  0.0022  0.6311 -1.2308
  105OSM    H8G10766   1.031   3.525  10.062 -0.5542 -0.8454 -1.3064
  105OSM    C9F10767   1.075   3.693   9.935  0.3476 -0.0725 -0.0715
  105OSM    H9F10768   1.098   3.761  10.018 -1.8009  2.6292 -1.5189
  105OSM   C10F10769   1.135   3.715   9.818  0.6719  0.6187 -0.1375
  105OSM   H10F10770   1.203   3.800   9.804 -0.4671  1.6564  0.4007
  105OSM   C11F10771   1.114   3.636   9.695  0.1342  0.2159  0.3822
  105OSM   H11F10772   1.128   3.527   9.715 -0.3457  0.1652  0.4471
  105OSM   H11G10773   1.190   3.675   9.624 -1.1872  0.7967 -0.7491
  105OSM   C12F10774   0.973   3.645   9.633 -0.1524 -0.0807 -0.0356
  105OSM   H12F10775   0.945   3.750   9.611  0.3515  0.5864  2.2182
  105OSM   H12G10776   0.889   3.611   9.698 -0.9596 -0.6126 -1.3226
  105OSM   C13F10777   0.953   3.560   9.506  0.0194  0.3268  0.2653
  105OSM   H13F10778   0.853   3.587   9.464  0.9892  0.5645 -2.0516
  105OSM   H13G10779   0.953   3.452   9.530  0.6158  0.1473 -0.5076
  105OSM   C14F10780   1.047   3.585   9.388  0.3784 -0.4088 -0.2649
  105OSM   H14F10781   1.018   3.526   9.299  1.1874  1.9846 -2.2446
  105OSM   H14G10782   1.150   3.554   9.417  0.5223  1.1608  1.0996
  105OSM   C15F10783   1.037   3.736   9.338  0.1119  0.0279 -0.4842
  105OSM   H15F10784   1.024   3.813   9.418  0.8303  0.5884 -0.8956
  105OSM   H15G10785   0.938   3.727   9.289  0.5497 -3.6059 -0.9245
  105OSM   C16F10786   1.144   3.772   9.229 -0.5692  0.0150  0.0579
  105OSM   H16F10787   1.245   3.778   9.276 -1.6595 -0.1233  2.6177
  105OSM   H16G10788   1.128   3.876   9.195  1.7091 -0.0321 -1.3680
  105OSM   C17F10789   1.151   3.676   9.110  0.0397 -0.5869 -0.0784
  105OSM   H17F10790   1.157   3.571   9.145  1.3680 -0.9149 -1.2053
  105OSM   H17G10791   1.246   3.692   9.055 -0.5690 -0.5859 -1.1419
  105OSM   C18F10792   1.033   3.666   9.018 -0.2039  0.3840 -0.7770
  105OSM   H18F10793   0.941   3.656   9.079 -0.0034 -0.6610 -0.6159
  105OSM   H18G10794   1.048   3.575   8.956  1.6847  1.9757 -2.8108
  105OSM   H18H10795   1.025   3.752   8.948  0.8091  1.6166  0.5686
  106OSM      N10796   1.436   1.954  10.898  0.3008 -0.5555 -0.0657
  106OSM    C1510797   1.391   2.098  10.877  1.0658  0.3940  0.3908
  106OSM   H15A10798   1.289   2.096  10.910  1.5995 -2.5062  2.3371
  106OSM   H15B10799   1.401   2.121  10.772  1.7766 -1.0122  0.1137
  106OSM   H15C10800   1.455   2.164  10.933 -0.3964  2.1475  0.0619
  106OSM    C1410801   1.418   1.906  11.040 -0.3473 -0.1222  0.0763
  106OSM   H14A10802   1.483   1.962  11.105 -0.8458 -2.2126  2.5149
  106OSM   H14B10803   1.444   1.801  11.034 -2.4826 -0.6187 -2.3887
  106OSM   H14C10804   1.322   1.918  11.088 -0.5581  0.2399 -0.4194
  106OSM    C1310805   1.351   1.872  10.805 -0.1424  0.0213  0.2134
  106OSM   H13A10806   1.378   1.890  10.702  0.4204  0.3340  0.4130
  106OSM   H13B10807   1.246   1.884  10.827 -0.1750 -0.2880  0.2249
  106OSM   H13C10808   1.379   1.768  10.815 -2.4574 -0.6406  0.3420
  106OSM    C1210809   1.584   1.943  10.862  0.7457 -0.1729 -1.1960
  106OSM   H12A10810   1.617   1.850  10.906  0.9922  0.3845 -0.1696
  106OSM   H12B10811   1.629   2.022  10.920 -0.1157 -1.0307  0.7380
  106OSM    C1110812   1.635   1.951  10.717 -0.5106  0.8857  1.1040
  106OSM   H11A10813   1.746   1.948  10.714 -0.4959 -1.2486  2.0762
  106OSM   H11B10814   1.600   2.046  10.670  1.2214  0.8061 -0.4327
  106OSM      P10815   1.625   1.691  10.677  0.1931  0.0850  0.2287
  106OSM    O1310816   1.747   1.683  10.759 -0.4976  0.2239  0.2168
  106OSM    O1410817   1.502   1.622  10.722 -0.3107 -0.0207 -0.1534
  106OSM    O1110818   1.662   1.623  10.541  0.2877  0.1182 -0.5780
  106OSM    O1210819   1.591   1.846  10.640 -0.0317 -0.4016  0.4414
  106OSM    C1S10820   1.664   1.691  10.409  0.6703 -0.1200 -0.5361
  106OSM    H1S10821   1.724   1.784  10.420  1.3399 -0.4382 -1.4286
  106OSM    H1T10822   1.562   1.716  10.372  0.5101 -0.0174 -0.0283
  106OSM     NF10823   1.682   1.666  10.173 -0.8134 -0.7278  0.2580
  106OSM    HNF10824   1.622   1.617  10.110  0.0318 -0.0720 -1.1015
  106OSM    C2S10825   1.715   1.597  10.303 -0.2767  0.7979  0.5303
  106OSM    H2S10826   1.826   1.596  10.301 -0.2857 -0.0964  0.2382
  106OSM    C3S10827   1.667   1.450  10.321  0.0622 -1.0593 -0.1903
  106OSM    H3S10828   1.556   1.451  10.323  0.0636 -0.3714  1.0066
  106OSM     O310829   1.700   1.392  10.446 -0.1677  0.4425 -0.1024
  106OSM    HO310830   1.706   1.470  10.502  0.6215 -0.0422  0.5111
  106OSM    C4S10831   1.721   1.385  10.200 -0.5234 -0.0405 -0.2807
  106OSM    H4S10832   1.649   1.372  10.118 -0.7529 -2.6569  0.2488
  106OSM    C5S10833   1.846   1.341  10.185  0.0843  0.8685 -0.2433
  106OSM    H5S10834   1.927   1.343  10.259  0.2055  1.1370 -0.3812
  106OSM    C6S10835   1.885   1.260  10.065 -0.1495 -0.6217  0.1986
  106OSM    H6S10836   1.871   1.152  10.085 -2.4342 -0.8834 -2.3617
  106OSM    H6T10837   1.995   1.272  10.057 -0.1243 -1.1714 -0.3370
  106OSM    C7S10838   1.828   1.307   9.925 -0.0530 -0.1248  0.4831
  106OSM    H7S10839   1.824   1.418   9.927  0.6858 -0.1038  1.3736
  106OSM    H7T10840   1.727   1.270   9.897 -0.1095  0.7963 -0.6332
  106OSM    C8S10841   1.915   1.260   9.815 -0.5686 -0.3319 -0.3917
  106OSM    H8S10842   1.899   1.150   9.817 -3.0899 -0.0375  2.7543
  106OSM    H8T10843   2.024   1.282   9.823 -0.5081 -1.2551  1.9097
  106OSM    C9S10844   1.849   1.307   9.678 -0.3052  0.7321 -1.3779
  106OSM    H9S10845   1.853   1.418   9.683  3.3813  0.6471  1.9566
  106OSM    H9T10846   1.741   1.285   9.695  0.5379 -2.4479  0.5928
  106OSM   C10S10847   1.911   1.260   9.551 -0.4784 -0.6653 -0.3712
  106OSM   H10S10848   1.947   1.157   9.571 -1.0773 -0.6231  1.0861
  106OSM   H10T10849   1.999   1.324   9.525 -0.0734 -1.0945 -0.0864
  106OSM   C11S10850   1.811   1.239   9.443 -0.3512 -0.4364  0.1503
  106OSM   H11S10851   1.760   1.337   9.433  1.8767  0.9689  1.5786
  106OSM   H11T10852   1.733   1.165   9.471  0.4869 -0.8443  1.5792
  106OSM   C12S10853   1.879   1.218   9.304 -0.1806 -0.0679  0.3169
  106OSM   H12S10854   1.962   1.146   9.321  0.0980  0.5055  1.4684
  106OSM   H12T10855   1.928   1.316   9.285  0.2078 -0.7649 -2.7253
  106OSM   C13S10856   1.792   1.195   9.184 -0.0082 -0.0841  0.6931
  106OSM   H13S10857   1.703   1.262   9.178  0.3185  0.3663  0.7974
  106OSM   H13T10858   1.758   1.090   9.178  1.3514 -0.4479 -1.7868
  106OSM   C14S10859   1.864   1.218   9.045  1.3763 -0.2077 -0.1578
  106OSM   H14S10860   1.942   1.146   9.009  1.1410 -0.7375  0.3895
  106OSM   H14T10861   1.915   1.317   9.045  0.6783  0.2002 -2.1352
  106OSM   C15S10862   1.755   1.219   8.933  0.1735  0.4815 -0.0012
  106OSM   H15S10863   1.798   1.265   8.841  3.1990 -0.9289  0.5747
  106OSM   H15T10864   1.667   1.284   8.955 -0.3641  0.9154 -2.9569
  106OSM   C16S10865   1.704   1.081   8.904 -0.0298  0.5969 -0.0824
  106OSM   H16S10866   1.670   1.025   8.993  2.1097  0.3504  0.6373
  106OSM   H16T10867   1.784   1.019   8.858 -0.3865  0.5112 -0.5901
  106OSM   C17S10868   1.581   1.090   8.818 -0.3982  0.1475  0.0057
  106OSM   H17S10869   1.509   1.158   8.867  0.4461  0.9494  0.1472
  106OSM   H17T10870   1.531   0.990   8.817 -0.0319 -0.0972 -2.9835
  106OSM   C18S10871   1.596   1.129   8.674 -0.4397 -0.3828 -0.1240
  106OSM   H18S10872   1.649   1.226   8.665 -0.0197 -0.7358 -1.7631
  106OSM   H18T10873   1.498   1.150   8.625  0.0823  0.1696 -0.9597
  106OSM   H18U10874   1.658   1.057   8.616 -0.5306  1.1304 -2.2381
  106OSM    C1F10875   1.729   1.782  10.129  0.0635  0.0232  0.2666
  106OSM     OF10876   1.780   1.866  10.199  0.4994  0.6654  0.2157
  106OSM    C2F10877   1.705   1.806   9.981  0.2764 -0.1662  0.0886
  106OSM    H2F10878   1.650   1.900   9.958  0.0159  0.3684  2.6200
  106OSM    H2G10879   1.639   1.723   9.948  0.1597 -0.8879  1.9754
  106OSM    C3F10880   1.828   1.808   9.884 -0.4135 -0.4611  0.8071
  106OSM    H3F10881   1.906   1.737   9.921  0.3656 -0.0316  0.0512
  106OSM    H3G10882   1.877   1.907   9.870 -1.0450 -0.0640  1.4077
  106OSM    C4F10883   1.784   1.742   9.748 -0.3334 -0.0533 -0.2401
  106OSM    H4F10884   1.706   1.807   9.704 -0.5379  0.3896  0.7631
  106OSM    H4G10885   1.754   1.635   9.752 -0.3358 -0.0145  1.5805
  106OSM    C5F10886   1.903   1.719   9.647 -0.1079 -0.4791  0.9533
  106OSM    H5F10887   1.970   1.640   9.688  1.0452 -0.1718 -0.2644
  106OSM    H5G10888   1.958   1.815   9.638  0.3194 -0.5410  2.4649
  106OSM    C6F10889   1.870   1.655   9.510 -0.4340 -1.0909  0.1793
  106OSM    H6F10890   1.792   1.576   9.518 -0.7691 -0.6060  2.3215
  106OSM    H6G10891   1.959   1.595   9.480 -1.4268 -1.8129 -1.4771
  106OSM    C7F10892   1.840   1.764   9.406  0.3074  0.3262 -0.9355
  106OSM    H7F10893   1.936   1.813   9.378  0.4793  0.8706  0.4959
  106OSM    H7G10894   1.777   1.835   9.463 -1.0922 -3.0345  2.0844
  106OSM    C8F10895   1.768   1.713   9.284  0.3593  0.1809  0.6111
  106OSM    H8F10896   1.692   1.793   9.269 -0.1715 -0.0135  2.0518
  106OSM    H8G10897   1.700   1.629   9.312 -2.6662  2.3733  0.3137
  106OSM    C9F10898   1.850   1.690   9.165 -0.0937 -0.3364 -0.8925
  106OSM    H9F10899   1.890   1.587   9.157  1.0093  0.1167 -1.5120
  106OSM   C10F10900   1.859   1.762   9.058  0.0443  0.2518  0.3595
  106OSM   H10F10901   1.929   1.726   8.981  0.9684  0.3684  1.1341
  106OSM   C11F10902   1.794   1.898   9.039 -1.0684  0.9099 -0.0896
  106OSM   H11F10903   1.857   1.983   9.073 -0.5953  0.9579 -1.0465
  106OSM   H11G10904   1.697   1.896   9.094 -1.0556 -3.5654  0.0990
  106OSM   C12F10905   1.775   1.906   8.886 -0.0502  0.5202 -0.0985
  106OSM   H12F10906   1.694   1.982   8.880 -0.4978  0.3264  2.3343
  106OSM   H12G10907   1.729   1.815   8.841  1.2786  0.4986 -1.4914
  106OSM   C13F10908   1.894   1.955   8.804 -0.4124  0.3063 -0.4647
  106OSM   H13F10909   1.988   1.899   8.823 -0.8189 -0.3384 -0.3217
  106OSM   H13G10910   1.918   2.051   8.854  2.1903 -0.8537  0.7356
  106OSM   C14F10911   1.870   1.974   8.652 -0.1769 -0.1771 -0.7413
  106OSM   H14F10912   1.856   1.870   8.615  0.9813 -0.0021 -1.7476
  106OSM   H14G10913   1.964   2.019   8.614  0.2709  0.9840  1.5791
  106OSM   C15F10914   1.746   2.061   8.613 -0.0363  0.5839 -0.0359
  106OSM   H15F10915   1.736   2.138   8.693  0.2767  0.6067 -0.0156
  106OSM   H15G10916   1.655   1.998   8.614  1.4462 -1.7896  3.5044
  106OSM   C16F10917   1.769   2.128   8.470  0.0095  0.1003  0.2509
  106OSM   H16F10918   1.831   2.048   8.424  1.6902  0.4179  1.8272
  106OSM   H16G10919   1.823   2.225   8.472  0.9699 -0.2941 -2.1347
  106OSM   C17F10920   1.634   2.149   8.398 -0.5067 -0.3688 -0.0551
  106OSM   H17F10921   1.581   2.053   8.385 -1.4537  0.0134  0.8698
  106OSM   H17G10922   1.643   2.188   8.295 -2.1164 -1.1481 -0.5191
  106OSM   C18F10923   1.542   2.241   8.476  0.3993 -0.1323  0.0140
  106OSM   H18F10924   1.450   2.267   8.421 -0.0433  2.5151  1.8464
  106OSM   H18G10925   1.587   2.342   8.481 -0.8960  0.4748 -0.2012
  106OSM   H18H10926   1.510   2.199   8.574 -1.7990  1.3925  0.0067
  107OSM      N10927   1.837   6.467  10.973 -0.2893 -0.1538 -0.0557
  107OSM    C1510928   1.922   6.420  10.861  0.1385  0.4559  0.5863
  107OSM   H15A10929   1.987   6.498  10.824 -4.1715  3.7578 -0.9053
  107OSM   H15B10930   1.856   6.400  10.777 -0.9711  1.7305  1.1114
  107OSM   H15C10931   1.975   6.330  10.886  0.2793  0.7569  1.3963
  107OSM    C1410932   1.776   6.592  10.929  0.4661 -0.9507  0.0649
  107OSM   H14A10933   1.714   6.582  10.841  0.1085  2.7329 -0.2693
  107OSM   H14B10934   1.847   6.668  10.899 -2.6094  1.6357 -1.3264
  107OSM   H14C10935   1.725   6.639  11.012 -0.1204 -0.3185 -0.6398
  107OSM    C1310936   1.737   6.371  11.010 -0.0746  0.8005 -0.5271
  107OSM   H13A10937   1.677   6.350  10.923 -2.5730 -3.6357  1.8936
  107OSM   H13B10938   1.666   6.381  11.090  1.3154 -0.6972  0.9858
  107OSM   H13C10939   1.795   6.287  11.048 -2.3738 -0.6078  0.0548
  107OSM    C1210940   1.928   6.495  11.095  0.1379 -0.0343 -0.3414
  107OSM   H12A10941   1.866   6.532  11.175  0.3333  0.3368 -0.3578
  107OSM   H12B10942   1.989   6.577  11.058 -1.3957  0.3835 -2.1488
  107OSM    C1110943   2.027   6.387  11.145  0.0639 -0.2082 -0.6317
  107OSM   H11A10944   1.970   6.306  11.196 -0.6094 -0.1235 -1.2349
  107OSM   H11B10945   2.080   6.433  11.231 -0.3986 -0.1902 -0.3542
  107OSM      P10946   2.269   6.363  11.053 -0.0566  0.1420 -0.0141
  107OSM    O1310947   2.297   6.482  11.139  0.5690 -0.4765 -0.3253
  107OSM    O1410948   2.332   6.229  11.092  0.4393 -0.1931  0.3682
  107OSM    O1110949   2.318   6.390  10.905 -0.4407  0.3095  0.4545
  107OSM    O1210950   2.115   6.341  11.048  0.1949  0.1460 -0.3522
  107OSM    C1S10951   2.280   6.296  10.810  0.2757 -0.0194  0.6156
  107OSM    H1S10952   2.169   6.293  10.807  0.2534 -0.0314  1.2975
  107OSM    H1T10953   2.318   6.198  10.848  0.0113 -0.3752 -0.0131
  107OSM     NF10954   2.259   6.246  10.576 -0.1892  0.5431 -0.4572
  107OSM    HNF10955   2.278   6.148  10.578 -0.2108  0.5341  2.1223
  107OSM    C2S10956   2.337   6.321  10.675  0.0249 -0.4757 -0.1575
  107OSM    H2S10957   2.333   6.428  10.646 -0.1779 -0.7154 -1.0361
  107OSM    C3S10958   2.483   6.274  10.677 -0.1916  0.7945 -0.2520
  107OSM    H3S10959   2.486   6.167  10.706 -0.0965  0.9182  0.1977
  107OSM     O310960   2.560   6.326  10.783 -0.7174  0.1864 -0.0968
  107OSM    HO310961   2.496   6.345  10.851 -0.8749 -3.4114  0.9235
  107OSM    C4S10962   2.547   6.301  10.546 -0.3648  0.0129  0.7225
  107OSM    H4S10963   2.540   6.214  10.479 -0.0507  0.8715 -0.4382
  107OSM    C5S10964   2.608   6.405  10.498 -0.7971  0.6345 -0.4691
  107OSM    H5S10965   2.599   6.497  10.557  0.0985  0.6140 -0.2979
  107OSM    C6S10966   2.665   6.405  10.355 -0.6547 -0.6980  0.0433
  107OSM    H6S10967   2.741   6.486  10.352 -2.6722  1.2986  0.1975
  107OSM    H6T10968   2.594   6.434  10.276  1.0951  1.4103 -0.8604
  107OSM    C7S10969   2.736   6.279  10.288 -0.3375  0.1614 -0.6736
  107OSM    H7S10970   2.663   6.196  10.291 -0.6871  0.4671 -0.6290
  107OSM    H7T10971   2.824   6.261  10.353 -1.5144 -1.5766  0.5363
  107OSM    C8S10972   2.772   6.304  10.144 -0.5996 -0.0440  0.1819
  107OSM    H8S10973   2.852   6.381  10.134 -2.9869  2.5254 -0.4245
  107OSM    H8T10974   2.689   6.343  10.081 -0.2642 -1.6333 -1.3117
  107OSM    C9S10975   2.841   6.186  10.081 -1.0876 -0.1818 -0.5460
  107OSM    H9S10976   2.784   6.091  10.093  0.2140 -0.8659  0.5316
  107OSM    H9T10977   2.941   6.169  10.128 -1.3106  0.9994  0.3804
  107OSM   C10S10978   2.880   6.217   9.933  0.0948 -0.2109 -0.2688
  107OSM   H10S10979   2.943   6.309   9.935  2.1034 -1.4389  4.0929
  107OSM   H10T10980   2.777   6.237   9.894 -0.1709  0.0097  0.5300
  107OSM   C11S10981   2.956   6.101   9.868  0.1231  0.2054  0.3967
  107OSM   H11S10982   2.902   6.009   9.897  1.5017 -0.8253 -0.1939
  107OSM   H11T10983   3.063   6.106   9.900  0.3415  3.1036 -0.5177
  107OSM   C12S10984   2.945   6.100   9.715  0.2163  0.3767  0.0153
  107OSM   H12S10985   2.982   6.192   9.664  1.1674 -0.2035 -0.3751
  107OSM   H12T10986   2.835   6.099   9.699  0.0800 -3.1529  0.4178
  107OSM   C13S10987   3.016   5.979   9.644  0.2556  0.0279 -0.4972
  107OSM   H13S10988   2.965   5.881   9.658  3.5138 -2.2782 -3.0982
  107OSM   H13T10989   3.117   5.978   9.691  0.1700  1.2825 -0.2383
  107OSM   C14S10990   3.019   5.990   9.489 -0.4330 -0.2075 -0.6438
  107OSM   H14S10991   3.092   6.067   9.455  1.0887 -0.5695  1.6039
  107OSM   H14T10992   2.918   6.028   9.464 -0.5923  0.8267  1.3420
  107OSM   C15S10993   3.048   5.851   9.427  0.2447  0.1996  0.3044
  107OSM   H15S10994   2.985   5.762   9.451  0.2620 -0.1186 -0.7851
  107OSM   H15T10995   3.151   5.824   9.458  0.0192 -0.9813  0.0776
  107OSM   C16S10996   3.042   5.864   9.273 -0.5975  1.0067 -0.0873
  107OSM   H16S10997   3.080   5.773   9.222 -2.2690  1.7134 -2.7950
  107OSM   H16T10998   3.102   5.957   9.257  0.8289 -0.1107 -1.6149
  107OSM   C17S10999   2.911   5.890   9.200  0.0358  0.1227  0.1746
  107OSM   H17S11000   2.851   5.968   9.252 -1.6046  0.7042 -2.4009
  107OSM   H17T11001   2.843   5.802   9.193 -1.1208  1.1276 -3.0685
  107OSM   C18S11002   2.944   5.936   9.052  0.2803 -0.2404 -0.8066
  107OSM   H18S11003   2.997   5.849   9.006  1.0622 -0.1639 -0.0851
  107OSM   H18T11004   3.004   6.028   9.044 -1.0023  0.7193  0.1672
  107OSM   H18U11005   2.848   5.958   9.000  0.8157  2.4571 -0.7959
  107OSM    C1F11006   2.148   6.293  10.528  0.4355  0.3651  0.2359
  107OSM     OF11007   2.091   6.387  10.584 -0.5514  1.1954  0.4964
  107OSM    C2F11008   2.075   6.206  10.423  0.1822  0.5864 -0.1919
  107OSM    H2F11009   1.974   6.250  10.408  0.0927  0.3389 -0.3157
  107OSM    H2G11010   2.077   6.100  10.456  0.6944 -0.3773 -3.0546
  107OSM    C3F11011   2.146   6.205  10.290 -0.0606  0.3487 -0.1965
  107OSM    H3F11012   2.190   6.303  10.260  1.9625 -0.5458 -0.3671
  107OSM    H3G11013   2.080   6.160  10.213  0.8264  2.1449 -2.1190
  107OSM    C4F11014   2.259   6.094  10.282 -0.4598 -0.2096 -0.0566
  107OSM    H4F11015   2.205   6.000  10.308 -0.2329 -0.1512  0.6505
  107OSM    H4G11016   2.341   6.096  10.356  0.2528 -0.2169 -0.8284
  107OSM    C5F11017   2.323   6.087  10.142  0.3181  0.1073  0.3689
  107OSM    H5F11018   2.380   6.178  10.113 -2.0140  1.4578 -0.2568
  107OSM    H5G11019   2.247   6.082  10.060  0.2548 -1.8890  0.5099
  107OSM    C6F11020   2.416   5.966  10.114  0.1667 -0.2836  0.5762
  107OSM    H6F11021   2.344   5.882  10.126 -0.2407  0.1437  1.1832
  107OSM    H6G11022   2.487   5.960  10.199  0.0370 -0.5499  0.6700
  107OSM    C7F11023   2.468   5.976   9.967  0.0888  0.1439 -0.1363
  107OSM    H7F11024   2.524   6.072   9.966  0.3441  0.0212  1.0316
  107OSM    H7G11025   2.389   5.987   9.889  2.5046 -0.5875 -2.8886
  107OSM    C8F11026   2.561   5.861   9.926  0.0719  0.3278  1.0157
  107OSM    H8F11027   2.503   5.767   9.927 -0.8755  0.6487 -3.4099
  107OSM    H8G11028   2.639   5.851  10.005 -0.3201  1.4364  1.5609
  107OSM    C9F11029   2.620   5.884   9.793 -0.0386 -0.9413 -0.0626
  107OSM    H9F11030   2.695   5.964   9.797 -0.4274 -0.6437  1.5567
  107OSM   C10F11031   2.586   5.827   9.673  0.1752  0.8240 -0.0718
  107OSM   H10F11032   2.628   5.863   9.578 -1.3674  0.1903 -1.0299
  107OSM   C11F11033   2.491   5.717   9.648 -0.1782  0.2773 -0.7025
  107OSM   H11F11034   2.418   5.748   9.571  1.4123 -2.8689 -3.7837
  107OSM   H11G11035   2.432   5.696   9.739 -0.7770  0.3629 -1.0670
  107OSM   C12F11036   2.554   5.585   9.609 -1.2016  0.1399 -0.2503
  107OSM   H12F11037   2.586   5.542   9.706 -0.4323  1.0554 -0.0870
  107OSM   H12G11038   2.646   5.597   9.548 -0.4234 -2.4686  0.2710
  107OSM   C13F11039   2.463   5.489   9.529 -0.1934 -0.0146  0.0976
  107OSM   H13F11040   2.529   5.399   9.525  1.2871  0.9618  1.3368
  107OSM   H13G11041   2.445   5.519   9.424  0.4817 -1.1848 -0.3803
  107OSM   C14F11042   2.337   5.443   9.611 -0.6460 -0.5164  0.5484
  107OSM   H14F11043   2.268   5.525   9.636 -0.4872 -0.0285 -0.5389
  107OSM   H14G11044   2.378   5.407   9.707 -1.3413 -0.4786  0.8619
  107OSM   C15F11045   2.248   5.323   9.555 -0.1462 -0.1393 -0.0363
  107OSM   H15F11046   2.175   5.295   9.635 -0.2423 -3.2871 -1.0893
  107OSM   H15G11047   2.312   5.233   9.546  2.2289  1.6844 -4.4013
  107OSM   C16F11048   2.158   5.378   9.440 -0.6018  0.4618  0.1647
  107OSM   H16F11049   2.232   5.432   9.376  1.5342  0.0925  2.1848
  107OSM   H16G11050   2.081   5.450   9.475 -1.1428  0.7404 -1.5120
  107OSM   C17F11051   2.091   5.269   9.352  0.5660  0.3971  0.2399
  107OSM   H17F11052   2.034   5.192   9.409  1.2882 -1.0321 -0.9030
  107OSM   H17G11053   2.167   5.211   9.296  1.1326  0.3541  1.0489
  107OSM   C18F11054   1.984   5.335   9.262  0.4524  0.2202 -0.0930
  107OSM   H18F11055   1.954   5.268   9.178 -2.3658 -0.0375  1.0280
  107OSM   H18G11056   2.024   5.433   9.229 -0.1270  0.9296  1.2876
  107OSM   H18H11057   1.894   5.348   9.325  0.8306 -2.7338  1.2337
  108OSM      N11058   6.153   2.978  10.992  0.0454  0.8722 -0.2023
  108OSM    C1511059   6.139   2.836  10.930 -0.5044 -0.6246  1.0512
  108OSM   H15A11060   6.156   2.833  10.824 -2.3020 -0.7650  0.7418
  108OSM   H15B11061   6.044   2.787  10.944 -1.9017  1.4760 -0.5011
  108OSM   H15C11062   6.210   2.764  10.969 -2.2172 -3.1446 -0.2145
  108OSM    C1411063   6.118   2.973  11.139  0.3639 -0.2998  0.4468
  108OSM   H14A11064   6.183   2.915  11.202  2.0531  0.8598 -0.1526
  108OSM   H14B11065   6.017   2.938  11.155 -0.6844  2.7251  1.1432
  108OSM   H14C11066   6.111   3.071  11.184  0.3604 -0.5515  1.0056
  108OSM    C1311067   6.299   3.012  10.982  0.3368  0.4264  0.2245
  108OSM   H13A11068   6.356   2.956  11.054  0.3644 -0.6492 -0.6113
  108OSM   H13B11069   6.326   3.116  10.998  1.2947 -0.2286  3.8950
  108OSM   H13C11070   6.331   2.989  10.881  0.1708  1.0432  0.0243
  108OSM    C1211071   6.057   3.073  10.926 -0.2729  0.0288 -0.0113
  108OSM   H12A11072   5.962   3.028  10.949  0.4237 -1.4719  0.0901
  108OSM   H12B11073   6.067   3.076  10.819 -0.8112  1.1434 -0.0428
  108OSM    C1111074   6.047   3.218  10.975  0.3389  0.5260  0.0206
  108OSM   H11A11075   5.976   3.212  11.060 -1.7528  0.1221 -1.6841
  108OSM   H11B11076   5.985   3.280  10.907 -0.2412  1.0352  0.9958
  108OSM      P11077   6.255   3.340  10.883 -0.0278  0.0605 -0.2790
  108OSM    O1311078   6.204   3.478  10.868  0.4889 -0.6380  0.2489
  108OSM    O1411079   6.399   3.318  10.907 -0.1469  0.4521 -0.0609
  108OSM    O1111080   6.211   3.256  10.758  0.2775 -0.2944  0.0126
  108OSM    O1211081   6.171   3.283  11.001  0.3974  0.1918 -0.5850
  108OSM    C1S11082   6.138   3.317  10.656  0.0747 -1.2058  0.7863
  108OSM    H1S11083   6.160   3.425  10.643  1.1376 -1.5641 -0.6633
  108OSM    H1T11084   6.029   3.305  10.674 -0.3770 -0.3828 -1.1905
  108OSM     NF11085   6.066   3.334  10.431 -0.3477 -0.2696 -0.1071
  108OSM    HNF11086   5.969   3.337  10.453 -0.4816 -1.3420 -0.4866
  108OSM    C2S11087   6.149   3.246  10.517 -0.0942  0.1824 -0.7318
  108OSM    H2S11088   6.255   3.247  10.484  0.5961  1.1664  1.3687
  108OSM    C3S11089   6.102   3.097  10.525 -0.3066 -0.5481 -1.1405
  108OSM    H3S11090   6.002   3.099  10.574  1.0934  1.3536  1.9847
  108OSM     O311091   6.179   3.023  10.615 -0.2548 -0.6640 -0.5895
  108OSM    HO311092   6.216   3.090  10.673 -1.4342 -0.9797  0.5728
  108OSM    C4S11093   6.089   3.029  10.388  0.2089 -0.4267 -0.3514
  108OSM    H4S11094   6.004   3.067  10.330  0.3352  0.7987  0.2353
  108OSM    C5S11095   6.170   2.938  10.334  0.1645  0.5692  0.9293
  108OSM    H5S11096   6.264   2.904  10.379 -0.1428 -1.1263  0.3922
  108OSM    C6S11097   6.139   2.884  10.193  0.5595 -0.3579 -0.3394
  108OSM    H6S11098   6.032   2.892  10.162  0.9253  2.3544 -1.1209
  108OSM    H6T11099   6.160   2.776  10.174 -1.6557 -0.6803 -1.2403
  108OSM    C7S11100   6.230   2.956  10.087 -0.0618  0.5004  0.6831
  108OSM    H7S11101   6.331   2.941  10.130  0.6905  1.5026 -0.6767
  108OSM    H7T11102   6.199   3.061  10.067 -1.4355 -0.2620 -1.5749
  108OSM    C8S11103   6.213   2.889   9.951  0.4592  0.0634 -0.1730
  108OSM    H8S11104   6.137   2.950   9.899  3.3957  1.9673 -2.5417
  108OSM    H8T11105   6.178   2.783   9.953 -2.4147  0.9144 -1.2075
  108OSM    C9S11106   6.341   2.918   9.873 -0.9866 -0.5021  0.3797
  108OSM    H9S11107   6.420   2.861   9.927  0.8636 -0.1707 -1.8099
  108OSM    H9T11108   6.369   3.025   9.875 -2.9053  0.1289 -2.1165
  108OSM   C10S11109   6.352   2.863   9.731  0.2932  0.2704  0.0682
  108OSM   H10S11110   6.267   2.895   9.667  1.0217 -0.3747 -1.2618
  108OSM   H10T11111   6.342   2.754   9.751  1.0812  0.2605  0.4383
  108OSM   C11S11112   6.485   2.891   9.658  0.9512  0.0272 -0.4365
  108OSM   H11S11113   6.563   2.831   9.709  0.2195 -1.0415 -0.5321
  108OSM   H11T11114   6.505   2.999   9.673 -1.0255  0.2284  1.1705
  108OSM   C12S11115   6.483   2.871   9.509 -0.6878  0.5003  0.5299
  108OSM   H12S11116   6.394   2.925   9.471 -2.6203 -1.8136  1.4796
  108OSM   H12T11117   6.462   2.765   9.483  1.4649  0.0789  0.3260
  108OSM   C13S11118   6.603   2.924   9.440 -0.2141 -0.0814 -0.0137
  108OSM   H13S11119   6.699   2.872   9.455 -1.2813 -2.5228 -1.0353
  108OSM   H13T11120   6.609   3.033   9.463  0.6180  0.2162 -1.4627
  108OSM   C14S11121   6.573   2.920   9.285 -0.3412 -0.3150 -0.0071
  108OSM   H14S11122   6.475   2.968   9.266 -0.4241  0.2321  1.6667
  108OSM   H14T11123   6.577   2.816   9.246  0.0125  0.0605 -0.9861
  108OSM   C15S11124   6.678   2.996   9.203 -0.2371  0.2135  0.2295
  108OSM   H15S11125   6.703   3.096   9.243  3.6328 -0.6203  0.3861
  108OSM   H15T11126   6.624   3.022   9.110  1.4312  2.2886 -0.2403
  108OSM   C16S11127   6.804   2.911   9.171 -0.4139 -0.9395  0.1637
  108OSM   H16S11128   6.771   2.812   9.133 -0.3069 -0.9204  0.0180
  108OSM   H16T11129   6.867   2.883   9.258  0.6631  1.3164  0.1884
  108OSM   C17S11130   6.896   2.954   9.056 -0.6845  0.0977 -0.1858
  108OSM   H17S11131   6.831   2.991   8.973 -1.3024  0.0334  0.2645
  108OSM   H17T11132   6.953   2.867   9.019  1.3723  1.8146 -1.2641
  108OSM   C18S11133   7.001   3.062   9.089 -0.0759 -0.2884 -0.3468
  108OSM   H18S11134   6.956   3.156   9.127 -0.0165  0.7403 -2.7028
  108OSM   H18T11135   7.056   3.082   8.995 -0.6106  1.6440 -0.2903
  108OSM   H18U11136   7.072   3.014   9.160  0.4061  0.0307 -0.6151
  108OSM    C1F11137   6.125   3.439  10.378 -0.0404 -0.5239  0.6851
  108OSM     OF11138   6.246   3.455  10.368  0.1014 -0.0088 -0.5579
  108OSM    C2F11139   6.044   3.555  10.353  1.1254 -0.1833  0.1197
  108OSM    H2F11140   6.079   3.634  10.422 -1.5820 -0.4793  1.9963
  108OSM    H2G11141   5.936   3.542  10.376  0.8040 -0.2328 -1.3257
  108OSM    C3F11142   6.045   3.605  10.210  0.2850  0.3139  0.1547
  108OSM    H3F11143   6.148   3.615  10.169 -0.7627  2.2756 -2.2900
  108OSM    H3G11144   6.000   3.707  10.204 -1.1375 -0.2835  0.3718
  108OSM    C4F11145   5.967   3.510  10.110 -0.3605 -0.0941 -0.2960
  108OSM    H4F11146   5.860   3.507  10.140 -0.1240 -0.5908  0.5223
  108OSM    H4G11147   6.011   3.408  10.118 -0.6028 -0.3556 -1.8557
  108OSM    C5F11148   5.977   3.558   9.964  0.6664 -0.1367  0.0095
  108OSM    H5F11149   6.085   3.571   9.942  0.5489  1.9217  0.4888
  108OSM    H5G11150   5.934   3.660   9.952  0.2129 -0.0963  1.7232
  108OSM    C6F11151   5.918   3.468   9.864  0.2828  0.8081  0.4278
  108OSM    H6F11152   5.808   3.478   9.875 -0.2034 -2.0116 -0.8044
  108OSM    H6G11153   5.947   3.361   9.859  0.4412  0.7991  1.3859
  108OSM    C7F11154   5.947   3.514   9.712  0.1094 -0.5733  0.3408
  108OSM    H7F11155   6.055   3.516   9.687  0.2763  1.4055  1.0330
  108OSM    H7G11156   5.917   3.619   9.689  1.2160  0.2388  2.3803
  108OSM    C8F11157   5.881   3.413   9.610  0.7474 -0.3787  0.5044
  108OSM    H8F11158   5.774   3.419   9.639 -0.0478  0.7906 -2.2878
  108OSM    H8G11159   5.927   3.314   9.631  0.0093 -0.6895  0.6876
  108OSM    C9F11160   5.894   3.457   9.465  0.9157 -0.4097  0.6184
  108OSM    H9F11161   5.990   3.507   9.448 -0.3672  2.0328  0.0560
  108OSM   C10F11162   5.815   3.429   9.363 -0.5085 -0.1232  0.8874
  108OSM   H10F11163   5.846   3.480   9.270  1.1360  0.8064  1.8872
  108OSM   C11F11164   5.689   3.340   9.355  0.4971  0.4420 -0.4390
  108OSM   H11F11165   5.622   3.405   9.296  1.4154  1.9693  0.1248
  108OSM   H11G11166   5.642   3.319   9.454  1.9632  0.5292  0.3062
  108OSM   C12F11167   5.693   3.209   9.273 -0.2155  0.2381  0.3096
  108OSM   H12F11168   5.726   3.234   9.170  0.4111 -2.4858 -0.2303
  108OSM   H12G11169   5.589   3.171   9.266 -0.8750  2.0256 -0.0142
  108OSM   C13F11170   5.774   3.095   9.323 -0.4177 -0.6620 -0.4368
  108OSM   H13F11171   5.867   3.143   9.359 -1.3576 -1.2407  3.1228
  108OSM   H13G11172   5.804   3.024   9.243  0.2329  0.5782 -1.3244
  108OSM   C14F11173   5.720   3.043   9.459 -0.5261 -1.1090  0.3625
  108OSM   H14F11174   5.647   2.965   9.429  0.3617 -1.5883 -0.6067
  108OSM   H14G11175   5.680   3.129   9.516  0.1913 -0.5306  0.0064
  108OSM   C15F11176   5.820   2.975   9.554 -0.1448 -0.3155 -0.6367
  108OSM   H15F11177   5.822   3.032   9.649 -4.6547 -1.8517  0.6781
  108OSM   H15G11178   5.923   2.976   9.513  0.1342 -1.8988 -0.0686
  108OSM   C16F11179   5.787   2.827   9.555  0.6280 -0.3235  0.2971
  108OSM   H16F11180   5.810   2.805   9.449 -0.7526 -0.5712  0.0260
  108OSM   H16G11181   5.683   2.817   9.592  0.8473 -1.6852  0.5901
  108OSM   C17F11182   5.878   2.736   9.651  0.2292 -0.7074 -0.4479
  108OSM   H17F11183   5.816   2.645   9.666 -3.3330  1.4814 -0.7772
  108OSM   H17G11184   5.877   2.771   9.756 -0.0396 -2.2210  0.0762
  108OSM   C18F11185   6.021   2.730   9.603  0.5100 -0.3173  0.6032
  108OSM   H18F11186   6.084   2.665   9.668  0.3281  0.4983  1.6201
  108OSM   H18G11187   6.066   2.830   9.616  1.3241 -0.5529 -0.3493
  108OSM   H18H11188   6.034   2.694   9.498 -1.5224  0.8860 -0.1247
  109OSM      N11189   0.155   4.703  10.949 -0.5285 -0.4482  0.1598
  109OSM    C1511190   0.183   4.571  10.889  0.1057  0.2883 -0.4033
  109OSM   H15A11191   0.237   4.583  10.797  0.2959 -4.1804 -1.0615
  109OSM   H15B11192   0.093   4.521  10.855  1.2623 -1.8182 -0.4939
  109OSM   H15C11193   0.247   4.509  10.949  2.7691  2.6755 -0.5852
  109OSM    C1411194   0.068   4.677  11.070 -0.1242 -0.0673 -0.3041
  109OSM   H14A11195  -0.033   4.669  11.032 -0.5526  0.6704  0.6411
  109OSM   H14B11196   0.060   4.755  11.144 -1.6299 -0.5666  0.0961
  109OSM   H14C11197   0.094   4.587  11.124  0.0396 -0.7128 -1.4263
  109OSM    C1311198   0.284   4.764  11.004 -0.2874  0.3269  0.9288
  109OSM   H13A11199   0.323   4.692  11.074  0.7984  0.4580  0.4755
  109OSM   H13B11200   0.263   4.859  11.049  1.1798  1.3902 -0.5187
  109OSM   H13C11201   0.358   4.770  10.926 -0.8864 -2.9857 -0.0918
  109OSM    C1211202   0.091   4.804  10.856 -0.4040  0.2550 -0.4464
  109OSM   H12A11203   0.162   4.828  10.778  1.3487  0.1076  1.0387
  109OSM   H12B11204   0.066   4.892  10.914  0.2594  0.5883 -0.6553
  109OSM    C1111205  -0.045   4.760  10.787 -0.6261 -0.2785  0.0684
  109OSM   H11A11206  -0.082   4.846  10.727 -0.8998 -2.8474 -3.8253
  109OSM   H11B11207  -0.127   4.731  10.856 -0.7795 -1.6451 -0.6423
  109OSM      P11208  -0.135   4.585  10.614  0.1522  0.2248  0.0445
  109OSM    O1311209  -0.089   4.495  10.506  0.3958  0.5014  0.0523
  109OSM    O1411210  -0.221   4.529  10.722  0.4671  0.3656  0.9023
  109OSM    O1111211  -0.210   4.708  10.555 -0.2769 -0.0504  0.4559
  109OSM    O1211212  -0.008   4.649  10.693 -0.2218  0.1853 -0.5197
  109OSM    C1S11213  -0.147   4.802  10.465 -0.1634  0.5209 -0.8117
  109OSM    H1S11214  -0.042   4.822  10.493  0.1601 -0.4648 -1.2786
  109OSM    H1T11215  -0.200   4.899  10.471  2.7964  2.3603 -2.2923
  109OSM     NF11216  -0.054   4.841  10.254 -0.1068  0.0212  0.2009
  109OSM    HNF11217  -0.078   4.932  10.219  3.7251  1.4032  0.6274
  109OSM    C2S11218  -0.150   4.759  10.319  0.1723  0.4039  0.5959
  109OSM    H2S11219  -0.120   4.653  10.309 -0.0472  0.1925  1.9506
  109OSM    C3S11220  -0.293   4.776  10.267  1.2523  0.4861  0.1323
  109OSM    H3S11221  -0.320   4.883  10.257  2.8373  0.6810 -2.9675
  109OSM     O311222  -0.400   4.716  10.341  0.0561  0.2273 -0.3845
  109OSM    HO311223  -0.356   4.679  10.418 -0.5097 -1.0570 -0.6595
  109OSM    C4S11224  -0.305   4.720  10.126  0.2164  0.7358 -0.8098
  109OSM    H4S11225  -0.283   4.613  10.115 -1.2927  0.3989 -0.6778
  109OSM    C5S11226  -0.338   4.795  10.019  0.3248 -0.5290  0.7057
  109OSM    H5S11227  -0.315   4.903  10.021  1.0690 -0.6906  1.6717
  109OSM    C6S11228  -0.344   4.735   9.879 -0.2334 -0.8364  0.5357
  109OSM    H6S11229  -0.355   4.824   9.812 -0.9106 -1.1842  0.1715
  109OSM    H6T11230  -0.437   4.675   9.866 -0.9323 -0.0411  1.6964
  109OSM    C7S11231  -0.220   4.659   9.828 -0.7483  0.1948 -0.7705
  109OSM    H7S11232  -0.213   4.567   9.890  1.2356 -0.0159 -1.2403
  109OSM    H7T11233  -0.127   4.718   9.843 -1.3312  1.2453 -1.1756
  109OSM    C8S11234  -0.230   4.614   9.679 -0.4523 -0.0989 -0.1320
  109OSM    H8S11235  -0.307   4.534   9.677 -0.6963  0.1444 -0.6116
  109OSM    H8T11236  -0.136   4.572   9.637 -1.6120 -0.8523 -2.1115
  109OSM    C9S11237  -0.295   4.717   9.593  0.3655 -0.4943  0.0612
  109OSM    H9S11238  -0.260   4.819   9.619  0.4343 -0.2305 -1.0188
  109OSM    H9T11239  -0.405   4.714   9.611  0.3610  2.0334  0.8741
  109OSM   C10S11240  -0.260   4.697   9.441 -1.5754  0.0452 -0.9223
  109OSM   H10S11241  -0.305   4.600   9.410 -0.7158  0.0626 -2.3431
  109OSM   H10T11242  -0.151   4.704   9.420 -1.3028 -3.7761 -1.5113
  109OSM   C11S11243  -0.330   4.803   9.364  0.3487  0.3757 -0.1804
  109OSM   H11S11244  -0.285   4.898   9.400 -0.0273  0.8201 -0.8568
  109OSM   H11T11245  -0.436   4.812   9.395  1.4548  1.3405  3.9840
  109OSM   C12S11246  -0.314   4.785   9.210  0.0642  0.1671  0.3925
  109OSM   H12S11247  -0.211   4.811   9.176 -1.2502  1.6385 -2.9414
  109OSM   H12T11248  -0.381   4.857   9.159  0.1239 -0.2917 -0.3517
  109OSM   C13S11249  -0.349   4.643   9.170 -0.4640 -0.4508 -0.0457
  109OSM   H13S11250  -0.451   4.620   9.207 -1.2244  2.7696  0.1517
  109OSM   H13T11251  -0.274   4.581   9.224 -0.9075 -1.1996 -0.2758
  109OSM   C14S11252  -0.346   4.616   9.019 -0.5115 -0.1650 -0.0993
  109OSM   H14S11253  -0.252   4.656   8.974  0.5733 -0.4576  1.8230
  109OSM   H14T11254  -0.437   4.659   8.972 -0.0141 -1.2162 -2.1588
  109OSM   C15S11255  -0.344   4.471   8.972 -0.2820 -0.4849  0.8755
  109OSM   H15S11256  -0.441   4.426   9.001 -2.0089  1.5656 -1.3038
  109OSM   H15T11257  -0.255   4.425   9.020  0.2048 -1.1432 -0.6198
  109OSM   C16S11258  -0.331   4.449   8.821  0.0146  0.3667  0.3391
  109OSM   H16S11259  -0.339   4.340   8.801 -0.8812  0.6096 -0.6775
  109OSM   H16T11260  -0.232   4.483   8.784 -1.4443  1.5242 -2.8737
  109OSM   C17S11261  -0.439   4.537   8.739 -0.6156  0.5605  0.7374
  109OSM   H17S11262  -0.417   4.643   8.766 -2.5288  1.1715  0.0081
  109OSM   H17T11263  -0.534   4.506   8.788 -2.3447  1.5132 -1.8487
  109OSM   C18S11264  -0.438   4.507   8.589  0.2535 -0.4963  0.0221
  109OSM   H18S11265  -0.520   4.567   8.544 -0.6121 -2.7636 -1.6328
  109OSM   H18T11266  -0.453   4.401   8.559 -1.7738  0.2757 -2.0384
  109OSM   H18U11267  -0.343   4.546   8.547  0.8073 -0.2489  1.4785
  109OSM    C1F11268   0.081   4.814  10.252  0.2345  0.8173 -0.2135
  109OSM     OF11269   0.126   4.710  10.301  0.1399 -0.6887 -0.4734
  109OSM    C2F11270   0.165   4.908  10.190 -1.5438 -0.3876  0.1815
  109OSM    H2F11271   0.223   4.961  10.268  1.4484 -1.3840 -1.2099
  109OSM    H2G11272   0.101   4.979  10.133 -1.8531  0.9333  2.0818
  109OSM    C3F11273   0.279   4.838  10.110 -0.1716  0.4861 -0.2943
  109OSM    H3F11274   0.334   4.764  10.172 -0.2977  1.1175  0.5920
  109OSM    H3G11275   0.353   4.916  10.081 -0.9148  1.0707 -0.6686
  109OSM    C4F11276   0.223   4.776   9.984  0.1741 -0.0042 -0.1849
  109OSM    H4F11277   0.164   4.685  10.007  2.8707 -1.9698 -0.4927
  109OSM    H4G11278   0.308   4.747   9.918  1.9039  0.6923  1.6402
  109OSM    C5F11279   0.136   4.883   9.904  0.2291 -0.0703 -0.0020
  109OSM    H5F11280   0.179   4.985   9.906  1.1521 -0.4244 -0.9231
  109OSM    H5G11281   0.039   4.891   9.957  1.8509 -1.2004  3.4153
  109OSM    C6F11282   0.103   4.840   9.754  0.1085  0.4086 -0.2571
  109OSM    H6F11283   0.006   4.890   9.734  0.2479  0.1303 -1.7435
  109OSM    H6G11284   0.089   4.731   9.737  0.9945  0.4337 -1.2596
  109OSM    C7F11285   0.202   4.893   9.649 -0.2787  0.0332  0.2721
  109OSM    H7F11286   0.303   4.854   9.674  0.0091 -0.8611 -2.0477
  109OSM    H7G11287   0.181   5.000   9.666 -1.9087 -0.4461  1.5418
  109OSM    C8F11288   0.174   4.869   9.499  0.6027 -0.2675 -0.0816
  109OSM    H8F11289   0.247   4.930   9.441 -0.0889  2.9023  2.1257
  109OSM    H8G11290   0.071   4.899   9.470  1.3217  2.1857 -0.2750
  109OSM    C9F11291   0.192   4.724   9.468  0.7752 -0.2195 -0.0347
  109OSM    H9F11292   0.192   4.666   9.562  0.2390  1.3244  0.9651
  109OSM   C10F11293   0.202   4.671   9.351 -0.4996 -0.2435 -0.1678
  109OSM   H10F11294   0.198   4.562   9.343 -1.2387 -0.1011 -2.5109
  109OSM   C11F11295   0.207   4.748   9.219 -0.3078  0.2648 -0.6894
  109OSM   H11F11296   0.307   4.735   9.173  0.6221  0.0083  1.3266
  109OSM   H11G11297   0.191   4.857   9.235  1.9210  0.3089  1.8887
  109OSM   C12F11298   0.101   4.698   9.117 -0.2127  0.1267  0.5263
  109OSM   H12F11299  -0.005   4.689   9.149  0.0992  1.4072  1.9744
  109OSM   H12G11300   0.123   4.599   9.071 -0.3820  0.9262 -1.3752
  109OSM   C13F11301   0.110   4.806   9.000  0.1996 -0.4439  0.5884
  109OSM   H13F11302   0.214   4.820   8.962  0.7664 -1.5005  1.7061
  109OSM   H13G11303   0.077   4.898   9.053  0.6891 -0.1902  0.4611
  109OSM   C14F11304   0.034   4.772   8.872 -0.3671  0.0180 -0.1886
  109OSM   H14F11305   0.040   4.852   8.795 -3.4932 -0.8519 -1.4691
  109OSM   H14G11306  -0.073   4.774   8.901 -0.2493 -1.2206  0.4051
  109OSM   C15F11307   0.071   4.642   8.800  0.2361  0.8686  0.6714
  109OSM   H15F11308   0.016   4.560   8.850 -1.2149  1.4970  0.1568
  109OSM   H15G11309   0.181   4.631   8.785 -0.0276 -0.2268 -0.6705
  109OSM   C16F11310   0.015   4.636   8.659 -0.3017  0.1288  0.7473
  109OSM   H16F11311   0.040   4.727   8.599 -0.5965 -0.4557 -0.2966
  109OSM   H16G11312  -0.095   4.653   8.659 -0.1182  1.5027 -0.4015
  109OSM   C17F11313   0.038   4.505   8.577  0.3645 -0.4128  0.3371
  109OSM   H17F11314  -0.006   4.422   8.635  0.4822 -1.3127 -0.8376
  109OSM   H17G11315   0.147   4.485   8.565  0.3107 -1.3314  1.2916
  109OSM   C18F11316  -0.023   4.512   8.437  0.1323  0.9083  0.2339
  109OSM   H18F11317   0.020   4.446   8.359 -4.0690  1.2908 -2.7366
  109OSM   H18G11318  -0.014   4.610   8.386  1.0131  0.9036  0.3748
  109OSM   H18H11319  -0.131   4.483   8.441  0.2270  0.6196  2.7342
  110OSM      N11320   1.781   4.231  11.082 -0.1140 -0.1639 -0.1221
  110OSM    C1511321   1.927   4.250  11.063  0.3991 -0.6757  0.3071
  110OSM   H15A11322   1.941   4.330  10.992 -1.3845 -0.1556  0.4761
  110OSM   H15B11323   1.974   4.156  11.040 -0.4433 -1.0863  0.1972
  110OSM   H15C11324   1.976   4.291  11.150 -1.9905 -0.9250  1.8841
  110OSM    C1411325   1.748   4.108  11.156  0.0785 -0.9426 -0.5682
  110OSM   H14A11326   1.809   4.022  11.133 -1.1136 -1.5770 -1.4802
  110OSM   H14B11327   1.646   4.073  11.145 -0.3565 -0.5443  1.7388
  110OSM   H14C11328   1.756   4.126  11.262  1.5029 -0.1598 -0.7879
  110OSM    C1311329   1.717   4.351  11.148 -0.8152 -0.0091 -0.1790
  110OSM   H13A11330   1.612   4.326  11.159 -0.2451 -3.0473 -0.8168
  110OSM   H13B11331   1.728   4.434  11.080 -0.8478 -0.3255 -0.5764
  110OSM   H13C11332   1.767   4.378  11.240  0.0227 -2.3403  0.1202
  110OSM    C1211333   1.721   4.221  10.941 -0.1631 -0.0743  0.3116
  110OSM   H12A11334   1.712   4.320  10.899 -0.4536 -0.7229 -1.2127
  110OSM   H12B11335   1.616   4.201  10.954 -0.0899 -0.6109  0.1092
  110OSM    C1111336   1.783   4.134  10.836 -0.1941 -0.8865  0.6954
  110OSM   H11A11337   1.884   4.165  10.804 -0.8522 -0.0753 -0.6653
  110OSM   H11B11338   1.743   4.163  10.736  3.3979  0.7334 -0.4262
  110OSM      P11339   1.640   3.923  10.843 -0.0650 -0.1709  0.1108
  110OSM    O1311340   1.661   3.775  10.880 -0.2118 -0.4285  0.3258
  110OSM    O1411341   1.540   4.000  10.918  0.3653 -0.3517  0.1260
  110OSM    O1111342   1.598   3.929  10.688 -0.2524 -0.4982 -0.2615
  110OSM    O1211343   1.777   3.992  10.860  0.0385 -0.5508  0.4517
  110OSM    C1S11344   1.450   3.919  10.653 -1.1030 -0.2922 -0.3065
  110OSM    H1S11345   1.402   4.018  10.669  1.3567  0.8697  0.4789
  110OSM    H1T11346   1.398   3.845  10.717  0.5854 -1.2552  0.0014
  110OSM     NF11347   1.287   3.877  10.462 -0.2718 -0.4984  0.7558
  110OSM    HNF11348   1.240   3.794  10.435  1.6432 -0.9283 -1.6708
  110OSM    C2S11349   1.429   3.877  10.505  0.2369 -0.3855 -0.3002
  110OSM    H2S11350   1.495   3.945  10.448  2.5069 -0.9713  1.4905
  110OSM    C3S11351   1.489   3.740  10.475 -0.3344  0.0936 -0.0466
  110OSM    H3S11352   1.417   3.665  10.516  0.9793 -0.9594  0.4409
  110OSM     O311353   1.613   3.708  10.542  0.0262 -0.1827 -0.5397
  110OSM    HO311354   1.610   3.770  10.615  1.3414  1.0738 -1.4930
  110OSM    C4S11355   1.496   3.700  10.325 -0.0853  0.6400 -0.1416
  110OSM    H4S11356   1.401   3.666  10.280 -0.1635 -0.4067  0.7681
  110OSM    C5S11357   1.610   3.702  10.250 -0.6977  0.2937 -0.3263
  110OSM    H5S11358   1.705   3.732  10.297  0.2236 -0.0790 -1.8968
  110OSM    C6S11359   1.613   3.682  10.101  0.2770  0.7327 -0.2792
  110OSM    H6S11360   1.719   3.662  10.075  0.4022  1.1665 -0.1135
  110OSM    H6T11361   1.576   3.764  10.035  0.4047  0.6063 -0.5042
  110OSM    C7S11362   1.541   3.549  10.065  0.0405  0.0508 -0.5838
  110OSM    H7S11363   1.433   3.573  10.055  0.1270  0.7114 -0.0363
  110OSM    H7T11364   1.550   3.467  10.139  0.9760 -0.6261 -1.4286
  110OSM    C8S11365   1.574   3.484   9.927  0.3192 -0.7942  0.7959
  110OSM    H8S11366   1.492   3.410   9.916 -0.1171 -0.2631  0.4108
  110OSM    H8T11367   1.674   3.435   9.919 -0.2400 -2.1783  1.8797
  110OSM    C9S11368   1.553   3.586   9.808 -0.2435  0.6437 -0.4599
  110OSM    H9S11369   1.639   3.653   9.825  3.1192 -3.8138  2.6304
  110OSM    H9T11370   1.450   3.622   9.827  0.6628  2.6503  0.9104
  110OSM   C10S11371   1.556   3.505   9.674  0.5285  0.1572  0.2062
  110OSM   H10S11372   1.477   3.427   9.686  0.7234 -0.1733 -0.5747
  110OSM   H10T11373   1.657   3.458   9.671  0.5567  0.2101  0.3455
  110OSM   C11S11374   1.534   3.588   9.539 -0.2230 -0.0219 -0.7671
  110OSM   H11S11375   1.628   3.631   9.499 -0.6590  1.0377 -0.6863
  110OSM   H11T11376   1.476   3.679   9.566  0.9892  0.0795  1.8360
  110OSM   C12S11377   1.466   3.506   9.420 -0.3159  0.5434  0.3991
  110OSM   H12S11378   1.426   3.579   9.346 -3.5554 -2.6998 -1.4023
  110OSM   H12T11379   1.378   3.442   9.440  1.0478 -1.4765  0.2051
  110OSM   C13S11380   1.561   3.405   9.354 -0.4340 -0.2419 -0.3376
  110OSM   H13S11381   1.586   3.332   9.434 -0.4426  1.3085  1.1310
  110OSM   H13T11382   1.656   3.459   9.337  0.0007 -1.0334 -0.4696
  110OSM   C14S11383   1.518   3.341   9.222  0.1153 -0.6439  0.1341
  110OSM   H14S11384   1.415   3.299   9.230 -0.4872  0.3127 -1.8054
  110OSM   H14T11385   1.588   3.261   9.191  1.7486  0.6632  0.2855
  110OSM   C15S11386   1.509   3.450   9.110  0.3644 -0.4530 -0.2728
  110OSM   H15S11387   1.599   3.515   9.114 -1.0253  1.6862 -1.3059
  110OSM   H15T11388   1.420   3.515   9.126  2.0799  1.6791  1.3994
  110OSM   C16S11389   1.497   3.388   8.970 -0.8236 -0.3086  0.4530
  110OSM   H16S11390   1.505   3.277   8.979 -0.2750 -0.1827  1.8771
  110OSM   H16T11391   1.578   3.428   8.905 -0.8121 -1.7246 -0.4473
  110OSM   C17S11392   1.359   3.411   8.914 -0.5279  0.1446 -0.3883
  110OSM   H17S11393   1.324   3.516   8.925  0.3430  0.5127 -1.0413
  110OSM   H17T11394   1.288   3.343   8.965  0.3958 -0.1894  0.4707
  110OSM   C18S11395   1.362   3.396   8.760  0.2131  0.4124  0.0220
  110OSM   H18S11396   1.433   3.470   8.715 -0.0630  0.6784  0.0198
  110OSM   H18T11397   1.261   3.414   8.717  0.5846  0.0231 -1.0526
  110OSM   H18U11398   1.382   3.289   8.735 -1.4062  0.6319 -2.5539
  110OSM    C1F11399   1.213   3.992  10.458  0.9723  0.1205 -0.6704
  110OSM     OF11400   1.264   4.098  10.490  0.2082 -0.4579  0.0205
  110OSM    C2F11401   1.063   3.983  10.436  0.3825  0.3037  0.0794
  110OSM    H2F11402   1.018   4.014  10.533  1.8132 -2.4522  1.7540
  110OSM    H2G11403   1.034   3.877  10.418 -1.5846  0.8754 -0.3306
  110OSM    C3F11404   1.029   4.063  10.306 -0.3505  0.6061 -0.0903
  110OSM    H3F11405   1.096   4.031  10.223 -1.5193  1.0652 -1.2393
  110OSM    H3G11406   1.059   4.166  10.332 -0.5679  0.4284  0.8784
  110OSM    C4F11407   0.881   4.050  10.268  0.1051  0.7025 -0.0989
  110OSM    H4F11408   0.823   4.069  10.360 -0.3346  0.2610 -0.2775
  110OSM    H4G11409   0.848   3.949  10.236 -1.9261  1.7474 -1.5031
  110OSM    C5F11410   0.839   4.155  10.158  0.3462  0.1198 -0.2787
  110OSM    H5F11411   0.862   4.259  10.192 -0.1393  0.0742  0.2131
  110OSM    H5G11412   0.733   4.153  10.124  0.0022 -1.1310  0.7843
  110OSM    C6F11413   0.930   4.142  10.027 -0.3110 -0.1258  0.0403
  110OSM    H6F11414   0.921   4.037   9.992 -2.8880 -0.0782  0.3048
  110OSM    H6G11415   1.037   4.151  10.055 -0.9092 -0.8796  2.9089
  110OSM    C7F11416   0.886   4.234   9.908  0.3040  0.0891 -0.2991
  110OSM    H7F11417   0.903   4.340   9.937 -0.7254  0.2465 -0.2369
  110OSM    H7G11418   0.782   4.215   9.873  0.0910  0.4190  0.1454
  110OSM    C8F11419   0.972   4.202   9.779  0.2643 -0.5037  0.0319
  110OSM    H8F11420   1.078   4.222   9.806  0.0270  0.8779 -0.0254
  110OSM    H8G11421   0.946   4.282   9.707  0.4108  1.0011  1.5759
  110OSM    C9F11422   0.953   4.065   9.713  0.7308  0.6070  0.0332
  110OSM    H9F11423   1.003   3.989   9.774  0.6304 -0.3005 -0.9854
  110OSM   C10F11424   0.887   4.036   9.598  0.1490 -0.7932 -0.6447
  110OSM   H10F11425   0.896   3.934   9.557 -3.4674 -2.4797  2.1835
  110OSM   C11F11426   0.809   4.140   9.513  0.5310 -0.0011 -0.8645
  110OSM   H11F11427   0.774   4.233   9.563  0.7689  1.0868 -2.6344
  110OSM   H11G11428   0.718   4.088   9.476  0.7095 -0.2774 -0.9118
  110OSM   C12F11429   0.893   4.185   9.394 -0.1729 -0.1996 -0.0327
  110OSM   H12F11430   0.999   4.215   9.409  0.8213 -2.5222 -1.7311
  110OSM   H12G11431   0.840   4.268   9.344  2.0780  0.3095 -1.7395
  110OSM   C13F11432   0.916   4.076   9.295  0.5326  0.0134  0.2639
  110OSM   H13F11433   0.831   4.006   9.308  1.3358 -0.5552  3.0485
  110OSM   H13G11434   1.003   4.012   9.322  0.2531 -1.7263 -2.5258
  110OSM   C14F11435   0.931   4.108   9.147  0.5497  0.3783  0.5563
  110OSM   H14F11436   0.828   4.141   9.125  0.6969  1.4508  1.3867
  110OSM   H14G11437   0.954   4.018   9.087 -0.1074  0.6584 -0.1288
  110OSM   C15F11438   1.042   4.207   9.115 -0.0424 -0.3747  0.5314
  110OSM   H15F11439   1.134   4.167   9.164  1.1852  0.5593 -0.9414
  110OSM   H15G11440   1.017   4.307   9.156 -1.8410 -1.6846  2.8712
  110OSM   C16F11441   1.073   4.212   8.973 -0.3872 -0.2439 -0.5213
  110OSM   H16F11442   0.974   4.242   8.933 -2.4273 -3.1264  1.8749
  110OSM   H16G11443   1.109   4.117   8.929  1.3037 -0.2349  0.7433
  110OSM   C17F11444   1.177   4.316   8.937 -0.2626 -0.0777  0.5597
  110OSM   H17F11445   1.270   4.277   8.985 -1.1223 -0.4956  1.9371
  110OSM   H17G11446   1.166   4.409   8.997  1.9737  1.1673 -0.8172
  110OSM   C18F11447   1.196   4.351   8.790 -0.2290  0.2882  0.5555
  110OSM   H18F11448   1.256   4.285   8.724 -0.2074  0.2416  0.6204
  110OSM   H18G11449   1.250   4.448   8.786 -1.0225  0.7525  0.8613
  110OSM   H18H11450   1.099   4.373   8.741  1.6272 -0.7243 -4.0192
  111OSM      N11451   2.056   0.525  11.124 -0.3876 -0.1238  0.4184
  111OSM    C1511452   2.208   0.518  11.151  0.3707 -0.5242 -0.4682
  111OSM   H15A11453   2.226   0.470  11.246  0.7143 -0.2491 -0.3919
  111OSM   H15B11454   2.250   0.617  11.163  0.0138 -0.3672 -0.5358
  111OSM   H15C11455   2.261   0.462  11.076 -2.3827 -1.7383 -1.6024
  111OSM    C1411456   2.005   0.383  11.126 -0.1620 -0.0626 -0.2197
  111OSM   H14A11457   1.900   0.373  11.105 -0.4895 -3.0029  2.0947
  111OSM   H14B11458   2.040   0.347  11.222  1.7670 -1.3085 -1.3333
  111OSM   H14C11459   2.067   0.337  11.051  2.3765 -0.2895  1.8421
  111OSM    C1311460   1.991   0.587  11.236  0.5155  0.1468  0.2308
  111OSM   H13A11461   1.883   0.592  11.228  0.5051 -0.2791  0.0755
  111OSM   H13B11462   2.021   0.690  11.249 -1.6253  1.2217 -2.2564
  111OSM   H13C11463   2.002   0.532  11.328  0.8911  1.5559  1.0603
  111OSM    C1211464   2.034   0.596  10.992  0.2076  0.4039  0.5101
  111OSM   H12A11465   2.094   0.686  10.995  0.7767  0.0272  0.5877
  111OSM   H12B11466   1.929   0.618  10.977  0.0190 -0.3556  0.6953
  111OSM    C1111467   2.096   0.528  10.861 -0.6179 -0.1455 -0.6127
  111OSM   H11A11468   2.048   0.584  10.778 -1.1758 -1.4356 -1.1834
  111OSM   H11B11469   2.067   0.422  10.849 -0.7859 -0.3672  1.4154
  111OSM      P11470   2.325   0.659  10.828  0.8148  0.2891  0.3496
  111OSM    O1311471   2.283   0.774  10.912 -0.2093  0.3098 -0.0008
  111OSM    O1411472   2.465   0.614  10.837 -0.1689  0.4243  0.0097
  111OSM    O1111473   2.287   0.678  10.675  0.0073 -0.3449  0.0322
  111OSM    O1211474   2.239   0.535  10.876 -0.1508  0.2956 -0.4812
  111OSM    C1S11475   2.272   0.570  10.581 -0.0937 -0.3757  0.5543
  111OSM    H1S11476   2.240   0.481  10.640 -1.6933  1.1237  2.0604
  111OSM    H1T11477   2.368   0.555  10.527 -0.8163  1.6068 -1.4387
  111OSM     NF11478   2.168   0.483  10.378  0.1453  1.1261 -0.9558
  111OSM    HNF11479   2.240   0.464  10.311 -0.4601 -1.3333 -1.0011
  111OSM    C2S11480   2.182   0.598  10.463  0.3107 -0.2609 -0.1808
  111OSM    H2S11481   2.087   0.634  10.509  0.5335  1.1552 -0.7735
  111OSM    C3S11482   2.222   0.721  10.383  0.2354 -0.5478 -0.1761
  111OSM    H3S11483   2.330   0.706  10.360 -0.1381 -1.5706 -1.4241
  111OSM     O311484   2.231   0.839  10.467  0.4517  0.4497  0.0056
  111OSM    HO311485   2.257   0.802  10.552 -1.4859  0.5940  0.7056
  111OSM    C4S11486   2.140   0.738  10.262  0.3772 -0.5245 -0.2689
  111OSM    H4S11487   2.190   0.692  10.175 -1.0706 -0.4703 -1.1715
  111OSM    C5S11488   2.025   0.804  10.262  0.4578 -0.0727 -0.1055
  111OSM    H5S11489   1.983   0.840  10.357 -1.3410 -1.6882 -0.2124
  111OSM    C6S11490   1.927   0.811  10.141 -0.5765  0.3125 -0.0781
  111OSM    H6S11491   1.957   0.902  10.084 -2.7857 -0.1016 -2.0697
  111OSM    H6T11492   1.822   0.831  10.173 -0.6940  0.5381 -0.5989
  111OSM    C7S11493   1.952   0.704  10.028  0.1298 -0.6950 -0.0603
  111OSM    H7S11494   1.858   0.719   9.971 -0.4187 -1.2469  0.6748
  111OSM    H7T11495   1.955   0.603  10.075 -0.0565  0.0539  1.6536
  111OSM    C8S11496   2.071   0.725   9.932  0.6213 -0.6595 -1.0037
  111OSM    H8S11497   2.168   0.702   9.982  0.5391 -0.6563 -0.8413
  111OSM    H8T11498   2.065   0.822   9.878  1.4523  0.1365  0.2685
  111OSM    C9S11499   2.062   0.620   9.812  0.0600  0.1113 -0.1368
  111OSM    H9S11500   1.965   0.609   9.760  0.4797 -4.2376 -0.3625
  111OSM    H9T11501   2.083   0.520   9.856  1.6551  0.4368 -0.1237
  111OSM   C10S11502   2.158   0.657   9.697 -0.1387  0.3851  0.0329
  111OSM   H10S11503   2.251   0.699   9.742  1.0806  0.9301 -2.8003
  111OSM   H10T11504   2.126   0.748   9.641  0.0516  0.4932  0.0963
  111OSM   C11S11505   2.214   0.546   9.613 -0.7871 -0.1818 -0.1732
  111OSM   H11S11506   2.241   0.461   9.680 -1.3257  0.5256  0.9768
  111OSM   H11T11507   2.308   0.581   9.565 -0.5188 -0.6366  0.0138
  111OSM   C12S11508   2.114   0.495   9.503  0.6150 -0.6792 -0.3770
  111OSM   H12S11509   2.061   0.586   9.467  0.1910 -0.3351  1.0502
  111OSM   H12T11510   2.025   0.444   9.545  0.2979  0.8976  0.9835
  111OSM   C13S11511   2.179   0.409   9.398 -0.0153  0.4187  0.4188
  111OSM   H13S11512   2.218   0.323   9.456  0.0810  0.4957  0.4696
  111OSM   H13T11513   2.251   0.478   9.348 -1.8868  0.8022 -1.9262
  111OSM   C14S11514   2.077   0.347   9.290  0.0417  0.0752 -0.3905
  111OSM   H14S11515   2.035   0.431   9.230 -0.3458 -0.4720 -0.8908
  111OSM   H14T11516   2.002   0.281   9.339 -0.6889  1.2217  0.0818
  111OSM   C15S11517   2.136   0.256   9.180  0.5320  0.0485 -0.2006
  111OSM   H15S11518   2.052   0.214   9.121  0.4937 -1.8079  1.0881
  111OSM   H15T11519   2.168   0.169   9.241 -0.0529  0.1539  0.2723
  111OSM   C16S11520   2.246   0.307   9.088 -0.4283 -0.5685  0.1467
  111OSM   H16S11521   2.313   0.225   9.053 -2.3107 -1.5331 -1.3827
  111OSM   H16T11522   2.300   0.389   9.139  0.6203 -0.6837 -0.7433
  111OSM   C17S11523   2.197   0.381   8.958  0.0955 -0.0322  0.1500
  111OSM   H17S11524   2.120   0.456   8.986  0.6971  0.0144  1.7675
  111OSM   H17T11525   2.138   0.309   8.898 -0.0203 -0.1243  0.3744
  111OSM   C18S11526   2.307   0.448   8.884  0.1806  0.2936 -0.0408
  111OSM   H18S11527   2.355   0.521   8.954  0.8018 -2.5426  2.7615
  111OSM   H18T11528   2.270   0.502   8.795  1.9984  0.7193 -0.5848
  111OSM   H18U11529   2.376   0.373   8.839 -0.9281  0.1541 -1.5328
  111OSM    C1F11530   2.092   0.390  10.427  0.0254  0.5880  0.0776
  111OSM     OF11531   2.019   0.412  10.531 -0.8260 -0.0255  0.2539
  111OSM    C2F11532   2.097   0.250  10.357 -0.0811 -0.2707 -0.2843
  111OSM    H2F11533   2.039   0.167  10.402 -0.2266 -1.0627 -1.8632
  111OSM    H2G11534   2.202   0.215  10.359 -0.1750 -0.6409 -1.3511
  111OSM    C3F11535   2.049   0.257  10.217 -0.0213  0.7921 -0.1508
  111OSM    H3F11536   2.077   0.353  10.168  0.3058  0.2862 -0.9667
  111OSM    H3G11537   1.938   0.248  10.212  0.0736 -0.3400 -0.3122
  111OSM    C4F11538   2.105   0.136  10.138 -0.0778 -0.1106  1.1530
  111OSM    H4F11539   2.065   0.043  10.186  0.3428 -0.3476  1.0498
  111OSM    H4G11540   2.215   0.147  10.149 -0.1284 -0.2533  1.8605
  111OSM    C5F11541   2.069   0.145   9.990 -0.3147  0.0256 -0.2395
  111OSM    H5F11542   2.109   0.052   9.944  1.4647  0.6132  0.0410
  111OSM    H5G11543   2.118   0.232   9.940  1.1139 -1.1982 -1.0533
  111OSM    C6F11544   1.922   0.155   9.968  0.1385 -0.5035  0.3105
  111OSM    H6F11545   1.900   0.264   9.978  1.7226 -0.1759  0.5318
  111OSM    H6G11546   1.863   0.090  10.035  1.0021  0.0770  1.6815
  111OSM    C7F11547   1.881   0.114   9.825  0.6904 -0.2919 -0.3759
  111OSM    H7F11548   1.777   0.147   9.803  0.8534 -0.5954 -1.7004
  111OSM    H7G11549   1.884   0.003   9.818  0.3244 -0.2552 -1.2595
  111OSM    C8F11550   1.976   0.178   9.720 -0.3757  0.6177 -0.2101
  111OSM    H8F11551   2.084   0.158   9.733 -0.4746  0.1479 -0.1008
  111OSM    H8G11552   1.968   0.287   9.738  1.4405  0.3760  2.6959
  111OSM    C9F11553   1.934   0.146   9.578 -0.3933 -0.3598  0.0512
  111OSM    H9F11554   1.837   0.190   9.553 -0.2546  1.1259  1.9006
  111OSM   C10F11555   2.000   0.067   9.494 -0.7732 -0.3405 -0.3182
  111OSM   H10F11556   1.962   0.033   9.397  2.2695 -0.4385 -1.5807
  111OSM   C11F11557   2.131  -0.008   9.525  0.5479  1.3234  0.4855
  111OSM   H11F11558   2.111  -0.103   9.578  2.2112 -0.8500 -2.4575
  111OSM   H11G11559   2.205   0.044   9.590  0.8825  0.9489  0.4095
  111OSM   C12F11560   2.211  -0.050   9.402 -0.0621 -0.2147 -0.3959
  111OSM   H12F11561   2.270   0.039   9.371 -0.4717  0.0951 -0.2997
  111OSM   H12G11562   2.153  -0.092   9.317 -0.7810 -1.3700  0.6311
  111OSM   C13F11563   2.319  -0.160   9.436 -1.0181  0.0789  0.0232
  111OSM   H13F11564   2.255  -0.242   9.474  0.2076 -1.2085 -0.5827
  111OSM   H13G11565   2.375  -0.116   9.521 -1.4246 -1.6578  1.2465
  111OSM   C14F11566   2.404  -0.203   9.320 -0.0011  0.2555  0.2696
  111OSM   H14F11567   2.463  -0.291   9.355 -0.1578  0.9175  2.2968
  111OSM   H14G11568   2.479  -0.126   9.291 -1.8706  1.3049 -2.1699
  111OSM   C15F11569   2.327  -0.244   9.190  0.4095  0.2478 -0.8454
  111OSM   H15F11570   2.276  -0.153   9.151  1.0944  1.3271  0.6608
  111OSM   H15G11571   2.242  -0.313   9.211 -0.7609  1.3863 -1.6899
  111OSM   C16F11572   2.423  -0.295   9.073  0.5594 -0.1553  0.4874
  111OSM   H16F11573   2.481  -0.385   9.101  1.0576  0.3240  1.0473
  111OSM   H16G11574   2.488  -0.212   9.038  0.2517  1.2063  2.9002
  111OSM   C17F11575   2.325  -0.357   8.969 -0.0346  0.4306 -0.2342
  111OSM   H17F11576   2.241  -0.292   8.938  0.1598  0.4015 -0.8292
  111OSM   H17G11577   2.297  -0.452   9.019 -1.3569  1.8075  1.8067
  111OSM   C18F11578   2.394  -0.383   8.836 -0.6317  0.3722  0.8131
  111OSM   H18F11579   2.468  -0.465   8.847 -0.7121 -0.1274 -1.7426
  111OSM   H18G11580   2.447  -0.295   8.795 -0.4033 -0.4254 -0.6851
  111OSM   H18H11581   2.317  -0.418   8.764 -1.3141 -1.5131  2.3613
  112OSM      N11582   3.057   4.831  10.884  0.0850 -0.2780 -0.1870
  112OSM    C1511583   3.026   4.861  11.021 -0.7593  0.0141  0.5455
  112OSM   H15A11584   2.989   4.963  11.016  0.7027  0.6144  1.1925
  112OSM   H15B11585   3.118   4.859  11.078 -0.6742 -0.1668  0.3998
  112OSM   H15C11586   2.956   4.786  11.054 -0.0302 -0.7553  0.3688
  112OSM    C1411587   3.126   4.949  10.830 -0.5345  0.1520 -0.2525
  112OSM   H14A11588   3.225   4.964  10.870  0.2947  0.8196 -2.3792
  112OSM   H14B11589   3.082   5.044  10.854  0.4731  0.6032 -0.1693
  112OSM   H14C11590   3.136   4.947  10.722  0.6177  0.0214 -0.1525
  112OSM    C1311591   3.155   4.715  10.872  0.4122 -1.0417  0.2451
  112OSM   H13A11592   3.247   4.728  10.928  2.3742  0.8931 -3.1057
  112OSM   H13B11593   3.181   4.694  10.769  1.0953  1.8541 -0.2481
  112OSM   H13C11594   3.107   4.629  10.916 -0.7417 -0.4089  0.2563
  112OSM    C1211595   2.933   4.805  10.807  0.3329  1.2282 -0.7300
  112OSM   H12A11596   2.954   4.817  10.701  2.6051 -0.3514 -0.5218
  112OSM   H12B11597   2.855   4.876  10.830 -1.6717 -0.6167 -1.4681
  112OSM    C1111598   2.861   4.670  10.833  0.3361 -0.4110 -0.0388
  112OSM   H11A11599   2.944   4.596  10.824  1.2036  0.5596 -0.2129
  112OSM   H11B11600   2.786   4.641  10.757 -0.8734 -3.4619  2.1059
  112OSM      P11601   2.658   4.739  10.998 -0.0446  0.2995 -0.2432
  112OSM    O1311602   2.608   4.671  11.121 -0.0847  0.6048  0.1231
  112OSM    O1411603   2.686   4.884  11.014  0.1531 -0.0758  0.1152
  112OSM    O1111604   2.562   4.711  10.875  0.8027 -0.1719 -0.9264
  112OSM    O1211605   2.795   4.675  10.960 -0.0449  0.1535 -0.1745
  112OSM    C1S11606   2.536   4.811  10.776  0.1347  0.5797  0.4025
  112OSM    H1S11607   2.622   4.873  10.743  0.3832  0.0598  0.0537
  112OSM    H1T11608   2.465   4.888  10.810 -1.9798 -1.3587  0.6017
  112OSM     NF11609   2.455   4.846  10.547 -0.3462  0.0749  0.4875
  112OSM    HNF11610   2.364   4.881  10.525  0.0675 -1.0207 -3.8346
  112OSM    C2S11611   2.476   4.750  10.647  0.5631  0.3661  0.1517
  112OSM    H2S11612   2.536   4.663  10.611 -0.4939 -0.3780  0.1561
  112OSM    C3S11613   2.332   4.692  10.673 -0.2210 -0.2956 -0.0300
  112OSM    H3S11614   2.264   4.780  10.664  0.5696  0.2697 -0.7256
  112OSM     O311615   2.318   4.635  10.804 -0.3889 -0.2736  0.0447
  112OSM    HO311616   2.401   4.657  10.846 -0.1558  1.3546 -1.2034
  112OSM    C4S11617   2.281   4.603  10.556 -0.5042 -0.4605  0.8405
  112OSM    H4S11618   2.256   4.656  10.463 -0.7526  1.0265  1.7194
  112OSM    C5S11619   2.280   4.469  10.558 -0.3155 -0.0540  0.4250
  112OSM    H5S11620   2.316   4.408  10.642 -0.9637  0.7334  1.2954
  112OSM    C6S11621   2.242   4.380  10.440 -0.6868  0.5519  0.6972
  112OSM    H6S11622   2.131   4.381  10.433 -0.6584 -1.4413 -0.7934
  112OSM    H6T11623   2.263   4.273  10.459 -1.7682  0.6709  2.8479
  112OSM    C7S11624   2.298   4.436  10.309  0.3051 -0.9542  0.4302
  112OSM    H7S11625   2.408   4.452  10.313  0.2448  0.1656 -1.2336
  112OSM    H7T11626   2.250   4.531  10.279 -2.1559 -1.7663  1.5643
  112OSM    C8S11627   2.264   4.344  10.194 -0.7374  0.1903 -0.3467
  112OSM    H8S11628   2.164   4.298  10.210 -1.1327  1.1735  0.1103
  112OSM    H8T11629   2.336   4.260  10.207  0.5385  1.4455  1.1887
  112OSM    C9S11630   2.279   4.394  10.052 -0.1921  0.1793 -0.1470
  112OSM    H9S11631   2.383   4.426  10.029  0.2040 -0.5007  0.6504
  112OSM    H9T11632   2.203   4.475  10.049  0.0356  0.8045  4.5631
  112OSM   C10S11633   2.239   4.298   9.935 -0.1461  0.0625  0.2155
  112OSM   H10S11634   2.136   4.257   9.938  0.7142 -2.2546 -0.3287
  112OSM   H10T11635   2.305   4.209   9.945  1.8817  1.5976  1.3620
  112OSM   C11S11636   2.268   4.372   9.803  0.4802  0.0949  1.0219
  112OSM   H11S11637   2.360   4.434   9.813  1.4439 -0.9173 -1.1372
  112OSM   H11T11638   2.177   4.427   9.771  1.3078  0.8496 -0.1006
  112OSM   C12S11639   2.299   4.281   9.679 -0.4813 -0.3047 -0.9475
  112OSM   H12S11640   2.206   4.220   9.676  0.9576 -2.8345  1.4620
  112OSM   H12T11641   2.389   4.219   9.695 -1.3163 -1.0412  1.3248
  112OSM   C13S11642   2.309   4.361   9.555  0.0588  0.6474  0.0390
  112OSM   H13S11643   2.404   4.419   9.552 -0.8118  2.3525  2.5216
  112OSM   H13T11644   2.219   4.426   9.547 -2.2866 -2.2429  1.0890
  112OSM   C14S11645   2.299   4.263   9.437 -0.7669  0.4072 -0.2629
  112OSM   H14S11646   2.222   4.185   9.454 -1.3687  0.4205 -2.6124
  112OSM   H14T11647   2.396   4.215   9.413 -0.5627  1.6907 -2.2443
  112OSM   C15S11648   2.277   4.347   9.311  0.2469  0.0713  1.0011
  112OSM   H15S11649   2.373   4.400   9.291  0.5005 -1.3537 -2.3114
  112OSM   H15T11650   2.192   4.415   9.333 -1.6162 -0.7578 -2.6948
  112OSM   C16S11651   2.235   4.276   9.179 -0.3411  0.5372 -1.0585
  112OSM   H16S11652   2.148   4.210   9.198  0.9284 -1.5068 -2.0476
  112OSM   H16T11653   2.315   4.206   9.148 -3.4152 -3.4928 -0.7494
  112OSM   C17S11654   2.197   4.376   9.072 -0.4452 -0.4761  0.1699
  112OSM   H17S11655   2.272   4.456   9.091 -2.5110  1.4805  0.5021
  112OSM   H17T11656   2.104   4.435   9.082  0.4395  1.0774 -0.3821
  112OSM   C18S11657   2.209   4.317   8.936 -1.0932  0.4633 -0.4597
  112OSM   H18S11658   2.318   4.319   8.916 -1.4321  1.9930 -2.5696
  112OSM   H18T11659   2.155   4.378   8.860 -0.6668 -0.2952 -1.3928
  112OSM   H18U11660   2.185   4.209   8.939  0.0739  0.2176  1.4241
  112OSM    C1F11661   2.563   4.901  10.481  0.0417 -0.4600  0.7820
  112OSM     OF11662   2.675   4.876  10.514 -0.5070 -0.5758  0.1130
  112OSM    C2F11663   2.536   4.989  10.358  0.1386 -0.2289 -0.0508
  112OSM    H2F11664   2.570   5.092  10.378  2.9665 -0.8145 -1.3997
  112OSM    H2G11665   2.427   4.979  10.340  0.1198 -0.2779  0.0844
  112OSM    C3F11666   2.606   4.926  10.234  0.2264  0.0245  0.2595
  112OSM    H3F11667   2.715   4.917  10.253  0.3269 -0.3312 -0.4484
  112OSM    H3G11668   2.601   5.009  10.161  0.8393  0.0277  0.2165
  112OSM    C4F11669   2.540   4.802  10.174 -0.6095  0.0450 -0.1982
  112OSM    H4F11670   2.433   4.805  10.202 -0.2624 -2.0483  1.6005
  112OSM    H4G11671   2.589   4.714  10.220  1.7612  1.5428  0.3066
  112OSM    C5F11672   2.562   4.796  10.022 -0.2956 -0.5750 -0.6430
  112OSM    H5F11673   2.670   4.806  10.000 -0.4405  1.1406 -0.7203
  112OSM    H5G11674   2.513   4.881   9.970 -0.0446  0.2676  0.4593
  112OSM    C6F11675   2.523   4.665   9.963 -0.6484  0.1809 -0.1770
  112OSM    H6F11676   2.414   4.648   9.945 -0.5438 -1.2219  0.3660
  112OSM    H6G11677   2.558   4.586  10.033 -0.7715 -0.0276 -0.3482
  112OSM    C7F11678   2.589   4.630   9.827 -0.0933  0.6248 -0.1913
  112OSM    H7F11679   2.607   4.521   9.825  1.4269  0.8636 -0.8157
  112OSM    H7G11680   2.688   4.679   9.816 -0.0372 -0.0699 -4.5622
  112OSM    C8F11681   2.505   4.675   9.713  0.3730  0.4146  0.1484
  112OSM    H8F11682   2.507   4.785   9.728  0.5667  0.4575 -0.1792
  112OSM    H8G11683   2.399   4.644   9.712  0.3494  0.3581 -2.5337
  112OSM    C9F11684   2.570   4.642   9.581 -0.8889 -0.0624 -0.2933
  112OSM    H9F11685   2.591   4.537   9.558  1.1849 -0.1381  1.6586
  112OSM   C10F11686   2.590   4.729   9.477 -0.5329  0.0576  0.9549
  112OSM   H10F11687   2.637   4.699   9.382 -1.2054  0.1689  0.5824
  112OSM   C11F11688   2.548   4.869   9.487 -0.1488  0.1641 -0.4451
  112OSM   H11F11689   2.631   4.919   9.540  1.0927 -1.7024 -0.5466
  112OSM   H11G11690   2.455   4.869   9.549 -0.1892  0.6224 -0.5024
  112OSM   C12F11691   2.524   4.944   9.359 -0.8919 -0.1187 -0.6668
  112OSM   H12F11692   2.423   4.933   9.315 -2.3436  0.3055  2.3543
  112OSM   H12G11693   2.593   4.911   9.277 -1.5821 -0.6117 -1.0577
  112OSM   C13F11694   2.540   5.097   9.373 -0.5494  0.6878  0.5974
  112OSM   H13F11695   2.639   5.118   9.418  0.8413 -1.0928 -1.4262
  112OSM   H13G11696   2.455   5.144   9.427 -0.6005 -0.3491  1.4505
  112OSM   C14F11697   2.541   5.170   9.241  0.3661 -0.6072  0.9279
  112OSM   H14F11698   2.614   5.118   9.176  1.2989  1.1768  0.4923
  112OSM   H14G11699   2.577   5.271   9.267 -2.0669  0.1536  1.6405
  112OSM   C15F11700   2.407   5.181   9.173 -0.7269  0.2947 -0.7366
  112OSM   H15F11701   2.344   5.240   9.243 -1.5830 -0.5111 -0.8134
  112OSM   H15G11702   2.368   5.078   9.158 -0.3523  0.3595 -2.4552
  112OSM   C16F11703   2.412   5.252   9.039 -0.5595  0.0955 -0.2811
  112OSM   H16F11704   2.455   5.187   8.959 -1.5069  2.0078 -2.4546
  112OSM   H16G11705   2.473   5.344   9.044 -1.9617  1.1399 -1.5330
  112OSM   C17F11706   2.262   5.293   9.011  0.5060  0.0552 -0.3832
  112OSM   H17F11707   2.211   5.338   9.099  0.2526 -1.0316  0.0497
  112OSM   H17G11708   2.209   5.202   8.976  1.7173 -0.9310  0.2540
  112OSM   C18F11709   2.262   5.385   8.891 -0.2838  0.5549  0.4678
  112OSM   H18F11710   2.156   5.403   8.863 -0.3902 -0.8013 -0.0704
  112OSM   H18G11711   2.313   5.334   8.806 -2.1267  0.2233 -0.4723
  112OSM   H18H11712   2.315   5.481   8.910 -0.6114  0.7520  0.3936
  113OSM      N11713   6.421   1.496  11.409 -0.1720 -0.2221  0.6244
  113OSM    C1511714   6.365   1.387  11.505  0.2652 -0.0419  0.4512
  113OSM   H15A11715   6.427   1.376  11.592  1.3725 -0.7461 -0.3863
  113OSM   H15B11716   6.360   1.290  11.457  0.0740 -1.4098  3.0484
  113OSM   H15C11717   6.266   1.410  11.541 -0.2130 -0.6242 -0.4469
  113OSM    C1411718   6.423   1.626  11.482 -0.5634  0.3935 -0.3595
  113OSM   H14A11719   6.325   1.670  11.484 -0.2457  1.0863  1.5706
  113OSM   H14B11720   6.486   1.704  11.440 -2.3361  1.1596 -1.6901
  113OSM   H14C11721   6.450   1.610  11.585 -1.2424  0.5721 -0.1514
  113OSM    C1311722   6.561   1.463  11.374 -0.0656 -0.6839  0.4194
  113OSM   H13A11723   6.577   1.359  11.347  1.1707 -0.3029 -0.4400
  113OSM   H13B11724   6.631   1.485  11.453 -0.7201 -2.0641  1.4302
  113OSM   H13C11725   6.594   1.516  11.285 -0.2373 -1.9998 -0.4610
  113OSM    C1211726   6.336   1.512  11.285 -0.1172  0.6920  0.4764
  113OSM   H12A11727   6.238   1.521  11.330  0.2911 -2.1871  2.1695
  113OSM   H12B11728   6.348   1.420  11.230  2.0816  0.2993  1.4956
  113OSM    C1111729   6.384   1.632  11.185 -0.2776  0.5344  0.1541
  113OSM   H11A11730   6.383   1.728  11.241  0.0887  0.3674  0.4471
  113OSM   H11B11731   6.301   1.658  11.115  0.3156  1.7330 -0.1455
  113OSM      P11732   6.515   1.504  11.009 -0.3049  0.0144 -0.4646
  113OSM    O1311733   6.647   1.525  10.940  0.7248 -0.4375 -0.4271
  113OSM    O1411734   6.490   1.371  11.062  0.1058 -0.2358  0.4514
  113OSM    O1111735   6.400   1.547  10.905  0.1682  0.9023  0.1898
  113OSM    O1211736   6.514   1.604  11.133 -0.2413 -0.0602  0.2497
  113OSM    C1S11737   6.432   1.573  10.768 -0.6012  0.2230 -0.4981
  113OSM    H1S11738   6.475   1.482  10.720  0.7588 -1.0511  2.8025
  113OSM    H1T11739   6.514   1.648  10.768  1.3755 -1.8077 -1.5772
  113OSM     NF11740   6.347   1.646  10.555  0.1633 -0.2620 -0.3071
  113OSM    HNF11741   6.389   1.732  10.527  0.7422 -0.2002  0.7015
  113OSM    C2S11742   6.313   1.631  10.694 -0.5561 -0.3479 -0.9504
  113OSM    H2S11743   6.240   1.548  10.698 -0.4987 -0.3633  0.2130
  113OSM    C3S11744   6.269   1.764  10.761 -0.1539  0.1505  0.5898
  113OSM    H3S11745   6.359   1.828  10.779  1.4896 -1.6983 -0.6466
  113OSM     O311746   6.211   1.736  10.889 -0.4045 -0.1341 -0.0218
  113OSM    HO311747   6.251   1.653  10.915  0.9792  0.6473  0.5007
  113OSM    C4S11748   6.165   1.823  10.674 -0.0976 -0.5921  0.0111
  113OSM    H4S11749   6.079   1.756  10.659 -0.5947 -0.0196  0.2812
  113OSM    C5S11750   6.161   1.951  10.628 -0.2989  0.0986  0.3170
  113OSM    H5S11751   6.238   2.025  10.654  0.4563 -0.5518 -0.0438
  113OSM    C6S11752   6.054   2.004  10.535  0.4349  0.0689 -0.5470
  113OSM    H6S11753   5.991   2.074  10.596  0.0064 -1.8352  1.3167
  113OSM    H6T11754   5.990   1.920  10.502  1.1550 -1.2301  1.1973
  113OSM    C7S11755   6.110   2.086  10.418  0.5768  0.0590  0.4211
  113OSM    H7S11756   6.176   2.169  10.450 -0.0267  0.2254  1.2545
  113OSM    H7T11757   6.021   2.132  10.370  0.2387 -0.3681  0.6373
  113OSM    C8S11758   6.177   1.995  10.311  0.1899 -0.7289  0.5771
  113OSM    H8S11759   6.104   1.912  10.296  0.3480 -1.0273  1.3969
  113OSM    H8T11760   6.270   1.957  10.359  1.1875  0.3103 -0.4873
  113OSM    C9S11761   6.210   2.062  10.176 -0.3976 -0.0267  0.5100
  113OSM    H9S11762   6.275   2.147  10.207  0.7649 -0.8657  0.4211
  113OSM    H9T11763   6.112   2.093  10.132 -0.9467 -0.2308  1.5603
  113OSM   C10S11764   6.298   1.980  10.082  0.2927 -0.3494  0.6078
  113OSM   H10S11765   6.251   1.879  10.077 -2.5421  0.9416 -2.0195
  113OSM   H10T11766   6.400   1.969  10.124  0.2996 -2.4931  0.1318
  113OSM   C11S11767   6.299   2.035   9.943 -0.1191 -0.1221  0.1037
  113OSM   H11S11768   6.349   2.133   9.957 -1.8000  0.6765  0.7306
  113OSM   H11T11769   6.195   2.042   9.903  0.0810  2.6141 -0.1055
  113OSM   C12S11770   6.371   1.936   9.847 -0.9210 -0.2914 -0.1275
  113OSM   H12S11771   6.298   1.853   9.839 -1.3437 -0.1126  1.5772
  113OSM   H12T11772   6.463   1.889   9.886 -0.1132  1.2377 -0.0976
  113OSM   C13S11773   6.377   1.989   9.695 -0.0197  0.3824 -0.1964
  113OSM   H13S11774   6.434   2.084   9.689 -1.7140  1.4735  0.1458
  113OSM   H13T11775   6.269   2.010   9.680 -0.0973  1.0904  1.1705
  113OSM   C14S11776   6.417   1.889   9.585  0.8392 -0.0022  0.0168
  113OSM   H14S11777   6.360   1.796   9.607  1.8024 -0.5485  0.2435
  113OSM   H14T11778   6.523   1.861   9.598  0.7462  0.1552  1.2877
  113OSM   C15S11779   6.406   1.948   9.449 -0.4983  0.3410  0.1468
  113OSM   H15S11780   6.491   2.019   9.439  2.3394 -2.8005 -0.0451
  113OSM   H15T11781   6.310   2.002   9.449 -2.4188 -2.7953  0.4266
  113OSM   C16S11782   6.407   1.835   9.346  0.0252  0.0473 -0.8993
  113OSM   H16S11783   6.319   1.772   9.370 -0.5406  1.8075  2.1806
  113OSM   H16T11784   6.498   1.777   9.373  0.6768  1.9957  1.5504
  113OSM   C17S11785   6.419   1.899   9.205 -0.1128 -0.7346 -0.6002
  113OSM   H17S11786   6.516   1.954   9.211 -1.3523  1.4610  1.1831
  113OSM   H17T11787   6.337   1.973   9.193  1.6928  1.5883  0.3725
  113OSM   C18S11788   6.417   1.793   9.101 -0.3727 -0.2508 -0.2407
  113OSM   H18S11789   6.497   1.718   9.121 -0.6749 -1.2459 -2.5086
  113OSM   H18T11790   6.443   1.833   9.001 -0.9474 -2.0558 -1.1455
  113OSM   H18U11791   6.321   1.738   9.095 -0.9905  0.8197 -0.5554
  113OSM    C1F11792   6.373   1.550  10.476 -0.0145  1.0576  0.4297
  113OSM     OF11793   6.348   1.428  10.499 -0.2448  0.2124  0.4621
  113OSM    C2F11794   6.465   1.586  10.365 -0.2069 -0.5042 -0.3108
  113OSM    H2F11795   6.565   1.547  10.394 -0.4255 -0.2958  0.7367
  113OSM    H2G11796   6.492   1.693  10.359 -0.7418 -0.2064  1.8436
  113OSM    C3F11797   6.427   1.528  10.229 -0.2366 -0.4766  0.0910
  113OSM    H3F11798   6.320   1.552  10.212 -0.4787 -1.1383  0.6037
  113OSM    H3G11799   6.441   1.418  10.227 -0.0904 -0.4456 -0.7262
  113OSM    C4F11800   6.508   1.591  10.116 -0.2744  0.3465 -0.3632
  113OSM    H4F11801   6.614   1.564  10.137 -0.2538  1.7165  1.5327
  113OSM    H4G11802   6.507   1.701  10.128  0.0402  0.4110 -0.8900
  113OSM    C5F11803   6.456   1.554   9.979  0.2758  1.1570 -0.0941
  113OSM    H5F11804   6.350   1.585   9.970 -0.3791 -1.2320 -1.1844
  113OSM    H5G11805   6.445   1.444   9.974  0.7298  1.0128  1.5055
  113OSM    C6F11806   6.565   1.581   9.868 -0.2245  0.0360  1.2259
  113OSM    H6F11807   6.655   1.520   9.888  0.1997  0.1557 -0.1528
  113OSM    H6G11808   6.606   1.684   9.876  1.8395 -0.5662 -0.6531
  113OSM    C7F11809   6.515   1.557   9.731  0.3163  0.1174  0.7967
  113OSM    H7F11810   6.430   1.626   9.713 -1.3438 -1.7809  0.9344
  113OSM    H7G11811   6.465   1.458   9.738  0.1897  0.0625 -0.5518
  113OSM    C8F11812   6.618   1.572   9.612  0.8637 -0.0472  0.1071
  113OSM    H8F11813   6.668   1.670   9.599  0.3198  0.0560 -1.4257
  113OSM    H8G11814   6.564   1.562   9.516 -0.5242  2.1923  0.6043
  113OSM    C9F11815   6.726   1.472   9.621 -0.1646 -0.0889 -0.7018
  113OSM    H9F11816   6.727   1.427   9.721  1.3738  1.7760  0.1944
  113OSM   C10F11817   6.827   1.472   9.539 -0.3415 -0.3672  0.0343
  113OSM   H10F11818   6.910   1.403   9.555  0.3888  0.7080  1.0720
  113OSM   C11F11819   6.840   1.559   9.414 -0.0097  0.4804  0.1076
  113OSM   H11F11820   6.944   1.555   9.375 -0.0705 -0.5224  0.0172
  113OSM   H11G11821   6.823   1.666   9.440  1.0050  0.6176  0.2297
  113OSM   C12F11822   6.752   1.517   9.290  0.1158 -0.8881  0.3545
  113OSM   H12F11823   6.744   1.610   9.229 -1.4099 -1.1945  0.0479
  113OSM   H12G11824   6.653   1.482   9.326 -0.3387 -0.6570 -0.6418
  113OSM   C13F11825   6.802   1.398   9.209  0.1195 -0.5210 -0.7541
  113OSM   H13F11826   6.831   1.306   9.264  0.4116 -1.1077 -1.8706
  113OSM   H13G11827   6.899   1.434   9.169  0.2025  1.3521  0.9389
  113OSM   C14F11828   6.721   1.362   9.092 -0.4825 -0.5270 -0.6911
  113OSM   H14F11829   6.695   1.460   9.048  0.5536  0.4351  0.7440
  113OSM   H14G11830   6.631   1.311   9.133 -0.3468  0.3463  0.7716
  113OSM   C15F11831   6.800   1.275   8.990 -0.2049  0.1241 -0.2462
  113OSM   H15F11832   6.839   1.181   9.036 -1.6105 -0.8703 -1.0055
  113OSM   H15G11833   6.873   1.347   8.948 -3.0635  2.9207 -0.8053
  113OSM   C16F11834   6.712   1.232   8.873 -0.1280  0.3509 -0.1112
  113OSM   H16F11835   6.777   1.196   8.791 -1.4874 -0.7025 -0.7567
  113OSM   H16G11836   6.649   1.318   8.841  1.2414  0.9748 -1.2181
  113OSM   C17F11837   6.630   1.110   8.910  0.0653 -0.1041 -0.0389
  113OSM   H17F11838   6.558   1.147   8.986 -0.9531  1.1034 -1.5416
  113OSM   H17G11839   6.702   1.041   8.959 -1.2693 -0.6085  1.2988
  113OSM   C18F11840   6.557   1.042   8.789 -0.7292 -0.6798  0.2428
  113OSM   H18F11841   6.627   1.028   8.704 -1.3290  0.6003 -0.4896
  113OSM   H18G11842   6.481   1.109   8.742 -0.0418  0.1125  0.2313
  113OSM   H18H11843   6.513   0.944   8.817 -1.8074  0.0372  1.1500
  114OSM      N11844   0.992   4.640  11.119 -0.4553 -0.4072  0.3680
  114OSM    C1511845   0.862   4.708  11.075  0.1564 -0.4174 -0.3349
  114OSM   H15A11846   0.876   4.782  10.997  0.2588  0.7556  0.7490
  114OSM   H15B11847   0.827   4.774  11.154 -0.5848 -0.5414 -0.5542
  114OSM   H15C11848   0.779   4.644  11.050 -2.5757  0.8296  4.2073
  114OSM    C1411849   1.091   4.746  11.161  1.1915 -0.1462  0.2156
  114OSM   H14A11850   1.189   4.701  11.155  0.0834 -2.6088 -1.4092
  114OSM   H14B11851   1.075   4.789  11.258  1.7534  1.2955 -0.2960
  114OSM   H14C11852   1.099   4.829  11.092 -1.5014  1.8033  2.0466
  114OSM    C1311853   0.961   4.554  11.233 -0.0687 -0.2923  0.1267
  114OSM   H13A11854   0.873   4.495  11.212 -0.3336 -0.0441  0.5489
  114OSM   H13B11855   0.929   4.618  11.313 -1.7768 -0.3982 -0.4482
  114OSM   H13C11856   1.040   4.487  11.265  0.5937  1.1171  1.5520
  114OSM    C1211857   1.052   4.573  10.994  0.1517 -0.2505 -0.2617
  114OSM   H12A11858   1.070   4.642  10.912 -2.0382  0.6283 -0.0767
  114OSM   H12B11859   0.980   4.510  10.945  0.0675 -0.0580 -0.3885
  114OSM    C1111860   1.181   4.494  11.023  0.7244 -0.3825  0.8190
  114OSM   H11A11861   1.200   4.429  10.935 -0.0202  1.1640 -0.5461
  114OSM   H11B11862   1.163   4.425  11.108 -0.3098 -0.2323  0.7385
  114OSM      P11863   1.436   4.540  11.028 -0.0623  0.1516 -0.0278
  114OSM    O1311864   1.524   4.631  11.105  0.0610  0.9447  0.1409
  114OSM    O1411865   1.450   4.395  11.052  0.2927 -0.0291  0.6753
  114OSM    O1111866   1.462   4.562  10.876 -0.1580 -0.3601  0.6144
  114OSM    O1211867   1.284   4.581  11.050  0.1911  0.6127  0.3932
  114OSM    C1S11868   1.380   4.513  10.770 -0.3953  0.1101 -0.2599
  114OSM    H1S11869   1.282   4.563  10.752  1.3632  3.6037 -1.0975
  114OSM    H1T11870   1.365   4.404  10.778 -1.5407  0.2383 -0.5317
  114OSM     NF11871   1.371   4.479  10.520  0.1777  0.2449 -0.1455
  114OSM    HNF11872   1.390   4.390  10.480  0.4510  0.0681  0.3707
  114OSM    C2S11873   1.457   4.519  10.631 -0.0607 -0.1779 -0.4522
  114OSM    H2S11874   1.475   4.628  10.618  0.0471 -0.1126  0.1912
  114OSM    C3S11875   1.598   4.449  10.633 -0.7009 -0.6411  0.0194
  114OSM    H3S11876   1.584   4.342  10.662  1.0950 -0.8479  0.2672
  114OSM     O311877   1.683   4.484  10.741  0.0544  0.3810  0.3877
  114OSM    HO311878   1.623   4.501  10.814 -0.5941 -0.6239  0.1180
  114OSM    C4S11879   1.670   4.449  10.500 -0.7351  0.4318 -0.1665
  114OSM    H4S11880   1.667   4.359  10.437  2.8775  0.0848 -0.0465
  114OSM    C5S11881   1.755   4.550  10.461 -0.0863 -0.3676  0.3436
  114OSM    H5S11882   1.774   4.633  10.531 -1.8389 -0.4545  0.9666
  114OSM    C6S11883   1.818   4.578  10.328 -0.6804 -0.1079 -0.4510
  114OSM    H6S11884   1.929   4.569  10.335 -0.4237 -2.0190 -4.2882
  114OSM    H6T11885   1.796   4.683  10.300  0.0455  0.6718  1.7074
  114OSM    C7S11886   1.778   4.485  10.211 -0.1577  0.2173 -0.6745
  114OSM    H7S11887   1.668   4.488  10.200 -0.3109 -1.5583  0.1310
  114OSM    H7T11888   1.808   4.379  10.227  1.1945  0.6537 -0.1595
  114OSM    C8S11889   1.839   4.540  10.082  0.6451 -0.0533  0.7338
  114OSM    H8S11890   1.949   4.532  10.091  0.6247 -1.1982  0.1390
  114OSM    H8T11891   1.786   4.638  10.080  0.6391  0.0318  2.6222
  114OSM    C9S11892   1.799   4.458   9.960 -0.1802  1.0762 -0.1993
  114OSM    H9S11893   1.690   4.470   9.943 -0.2890 -0.8339 -1.0605
  114OSM    H9T11894   1.836   4.353   9.962  2.9771  2.0824 -0.0662
  114OSM   C10S11895   1.867   4.525   9.836  0.4299 -0.2920 -0.1041
  114OSM   H10S11896   1.974   4.537   9.860 -0.1784  2.4189  1.7582
  114OSM   H10T11897   1.827   4.625   9.809 -0.8644  0.0031  2.5374
  114OSM   C11S11898   1.854   4.424   9.719  0.0443 -0.1159 -0.3215
  114OSM   H11S11899   1.750   4.388   9.705 -0.8587  2.2350 -0.1601
  114OSM   H11T11900   1.911   4.331   9.738  0.1979  0.2354  1.0304
  114OSM   C12S11901   1.905   4.487   9.584 -0.0587  0.6451 -0.5096
  114OSM   H12S11902   2.015   4.503   9.593  0.1596 -0.3264 -1.2738
  114OSM   H12T11903   1.857   4.584   9.562 -2.0029  0.0449  0.8443
  114OSM   C13S11904   1.883   4.382   9.473 -0.1171 -0.0518  1.0721
  114OSM   H13S11905   1.787   4.330   9.493 -0.8153  0.4684 -0.6761
  114OSM   H13T11906   1.955   4.298   9.463  0.7356  0.3865  3.1029
  114OSM   C14S11907   1.856   4.443   9.334  0.8094 -0.5166  0.0498
  114OSM   H14S11908   1.946   4.483   9.283 -0.7096  2.1123 -0.7435
  114OSM   H14T11909   1.780   4.521   9.352 -1.0755 -2.2971  0.2092
  114OSM   C15S11910   1.792   4.347   9.231  0.3151 -0.3668  0.3534
  114OSM   H15S11911   1.704   4.289   9.266  0.7842 -1.6626 -0.5552
  114OSM   H15T11912   1.865   4.270   9.199 -0.4254 -1.7103  1.7499
  114OSM   C16S11913   1.758   4.426   9.100  0.7465 -0.8261 -0.8067
  114OSM   H16S11914   1.840   4.489   9.060 -0.5774  0.7344 -1.1683
  114OSM   H16T11915   1.681   4.499   9.132  1.1318 -1.3871  1.5508
  114OSM   C17S11916   1.699   4.327   8.993 -0.4910  0.3388 -0.5482
  114OSM   H17S11917   1.608   4.292   9.046  2.1898 -0.6114  3.9363
  114OSM   H17T11918   1.770   4.242   8.984 -0.1992  0.2350  2.0112
  114OSM   C18S11919   1.667   4.398   8.864 -0.0955 -0.3786 -0.1492
  114OSM   H18S11920   1.609   4.326   8.803 -1.0025 -0.0963  0.3520
  114OSM   H18T11921   1.759   4.425   8.808 -0.0957 -1.6132 -0.7626
  114OSM   H18U11922   1.603   4.487   8.883  2.0508  0.8159  2.0550
  114OSM    C1F11923   1.261   4.540  10.490 -0.0354 -0.5157 -0.1072
  114OSM     OF11924   1.245   4.657  10.506  0.2368 -0.2737  0.1434
  114OSM    C2F11925   1.152   4.458  10.444 -0.2533  0.0316  0.5757
  114OSM    H2F11926   1.096   4.433  10.537  0.0887 -0.1669  0.7288
  114OSM    H2G11927   1.195   4.361  10.411 -0.5978  0.2702 -0.6151
  114OSM    C3F11928   1.057   4.543  10.348 -0.1412 -0.3940 -0.0297
  114OSM    H3F11929   1.023   4.627  10.412 -2.0908 -1.0005 -0.2144
  114OSM    H3G11930   0.962   4.488  10.332 -0.0483 -0.1946 -1.4170
  114OSM    C4F11931   1.114   4.590  10.214 -0.8624  0.5345  0.2620
  114OSM    H4F11932   1.135   4.498  10.156  1.5447  0.9153  0.4019
  114OSM    H4G11933   1.209   4.645  10.231 -1.1329  1.5124 -1.2642
  114OSM    C5F11934   1.015   4.675  10.140  0.1972 -0.1887  0.0440
  114OSM    H5F11935   0.988   4.771  10.190 -0.1725 -0.2965  0.0518
  114OSM    H5G11936   0.931   4.610  10.110  0.4450 -0.0921 -0.9008
  114OSM    C6F11937   1.074   4.724  10.008 -0.5632  0.2114 -0.4870
  114OSM    H6F11938   1.165   4.787  10.017 -0.5994 -0.0185  2.0612
  114OSM    H6G11939   0.999   4.789   9.958  0.1333 -0.7797 -2.9670
  114OSM    C7F11940   1.078   4.617   9.898 -0.1525 -0.1573  0.5273
  114OSM    H7F11941   0.981   4.569   9.875  1.0397 -1.4905 -2.2514
  114OSM    H7G11942   1.134   4.532   9.942 -0.7927 -0.4028  0.8664
  114OSM    C8F11943   1.138   4.670   9.768  0.2861  0.3688 -0.3216
  114OSM    H8F11944   1.133   4.581   9.702 -2.4893 -1.2861  1.8824
  114OSM    H8G11945   1.243   4.702   9.780  0.2826  0.7188 -1.1671
  114OSM    C9F11946   1.055   4.782   9.702  0.3506  0.1274  0.3287
  114OSM    H9F11947   1.018   4.868   9.760  1.2742  1.2018 -0.6050
  114OSM   C10F11948   1.015   4.780   9.572 -0.4741  0.3080 -0.2769
  114OSM   H10F11949   0.962   4.865   9.528 -0.6780  0.6469  0.5947
  114OSM   C11F11950   1.032   4.668   9.470 -0.7661 -0.6594  0.0821
  114OSM   H11F11951   1.110   4.595   9.500 -0.0016  0.7889  1.8286
  114OSM   H11G11952   1.069   4.711   9.374 -1.0402 -2.9322 -1.0959
  114OSM   C12F11953   0.899   4.604   9.453 -0.8417 -0.0103  0.7709
  114OSM   H12F11954   0.820   4.646   9.519 -2.5425 -0.5461 -0.8499
  114OSM   H12G11955   0.905   4.494   9.471  0.2482 -0.0180  0.3875
  114OSM   C13F11956   0.852   4.616   9.306  0.1816  0.4168  0.9092
  114OSM   H13F11957   0.943   4.588   9.249  0.2284  0.2238  1.0788
  114OSM   H13G11958   0.828   4.723   9.287  0.3754  0.1232 -1.2662
  114OSM   C14F11959   0.719   4.539   9.271  0.2444  0.2672  0.8938
  114OSM   H14F11960   0.631   4.574   9.329  0.3984  0.7850  0.8234
  114OSM   H14G11961   0.725   4.432   9.300  1.4548  0.4204  1.3031
  114OSM   C15F11962   0.695   4.565   9.123 -0.0232 -0.1588  0.7116
  114OSM   H15F11963   0.718   4.672   9.102  0.1135 -0.5432 -1.2929
  114OSM   H15G11964   0.587   4.547   9.102  0.4853 -0.5473 -1.8652
  114OSM   C16F11965   0.775   4.471   9.029 -0.1937 -1.0159  0.1479
  114OSM   H16F11966   0.744   4.365   9.043  0.3544 -1.3376 -1.0341
  114OSM   H16G11967   0.878   4.478   9.070 -0.3655 -1.3585  0.6439
  114OSM   C17F11968   0.770   4.510   8.882  0.0528  0.3968 -0.0757
  114OSM   H17F11969   0.667   4.489   8.845  0.4675 -0.6210 -0.6999
  114OSM   H17G11970   0.823   4.432   8.823 -1.7803 -0.9841  0.0083
  114OSM   C18F11971   0.817   4.649   8.841  0.3362  0.8631 -0.4543
  114OSM   H18F11972   0.923   4.674   8.864  0.5226  2.6069 -2.8470
  114OSM   H18G11973   0.755   4.723   8.895 -0.5482 -0.5290  0.4871
  114OSM   H18H11974   0.801   4.668   8.733  0.5873  1.7292 -0.3465
  115OSM      N11975   5.692   3.940  11.010  0.2791  0.2524 -0.2527
  115OSM    C1511976   5.684   3.841  10.902 -0.3905  0.2241  0.1111
  115OSM   H15A11977   5.583   3.804  10.898 -0.5367  0.7144 -1.1076
  115OSM   H15B11978   5.734   3.746  10.916 -2.2028 -0.7666  0.1645
  115OSM   H15C11979   5.717   3.884  10.808 -1.3674 -0.8834 -0.7778
  115OSM    C1411980   5.839   3.952  11.038  0.1123  0.2496 -0.3834
  115OSM   H14A11981   5.897   3.963  10.948 -0.3506 -1.1536 -0.8788
  115OSM   H14B11982   5.886   3.860  11.068  1.7716  0.9673 -0.6849
  115OSM   H14C11983   5.862   4.037  11.100  0.2843 -0.0081 -0.0922
  115OSM    C1311984   5.644   4.078  10.973  0.7572 -0.7849 -0.2286
  115OSM   H13A11985   5.538   4.079  10.953  0.9276  2.9683 -1.6953
  115OSM   H13B11986   5.689   4.117  10.884 -0.9901  3.0511  0.3749
  115OSM   H13C11987   5.661   4.152  11.050 -0.1211  0.8541 -1.5445
  115OSM    C1211988   5.616   3.884  11.129  0.6836 -0.2190 -0.1658
  115OSM   H12A11989   5.632   3.950  11.213 -1.8200  0.6290 -0.2809
  115OSM   H12B11990   5.648   3.783  11.151 -1.5590 -0.5381  2.0424
  115OSM    C1111991   5.463   3.868  11.116  0.4487  0.6657  0.3386
  115OSM   H11A11992   5.423   3.968  11.088 -3.7662 -0.6269  1.1331
  115OSM   H11B11993   5.419   3.838  11.213  2.9516 -3.3447  0.4590
  115OSM      P11994   5.437   3.625  11.028  0.2030 -0.1773 -0.4685
  115OSM    O1311995   5.573   3.576  11.070 -0.5377  0.3364  0.1746
  115OSM    O1411996   5.325   3.575  11.113  0.1468 -0.1295 -0.3797
  115OSM    O1111997   5.417   3.570  10.883  0.0055  0.2309 -0.3242
  115OSM    O1211998   5.415   3.779  11.016  0.0575 -0.0694  0.9374
  115OSM    C1S11999   5.381   3.662  10.779  0.6070  0.5658 -0.3729
  115OSM    H1S12000   5.475   3.717  10.755  0.8726  0.5741  0.6114
  115OSM    H1T12001   5.301   3.730  10.815 -0.3240 -0.3627 -0.6560
  115OSM     NF12002   5.278   3.703  10.558  0.0992 -0.5468 -0.3793
  115OSM    HNF12003   5.180   3.718  10.546 -0.0420 -0.4819  0.7427
  115OSM    C2S12004   5.316   3.602  10.654 -0.7518  0.0384  0.1299
  115OSM    H2S12005   5.397   3.545  10.604  0.6062  0.9316  1.2194
  115OSM    C3S12006   5.208   3.491  10.684 -0.4140 -0.9742  0.0457
  115OSM    H3S12007   5.121   3.544  10.728 -1.7315 -0.2405 -3.1551
  115OSM     O312008   5.248   3.394  10.782 -0.3552 -0.7965  0.6783
  115OSM    HO312009   5.313   3.448  10.828 -0.3661 -1.0706  1.0154
  115OSM    C4S12010   5.169   3.426  10.554 -0.2880 -0.1853  0.2490
  115OSM    H4S12011   5.064   3.434  10.524 -0.7510 -2.3711  1.1598
  115OSM    C5S12012   5.238   3.327  10.483 -0.5931  0.3300 -0.2686
  115OSM    H5S12013   5.331   3.292  10.531 -1.0497 -0.6011 -0.0359
  115OSM    C6S12014   5.191   3.257  10.359 -0.3321 -0.6773 -0.1576
  115OSM    H6S12015   5.256   3.168  10.341  1.9301  1.0180 -0.8458
  115OSM    H6T12016   5.216   3.329  10.278  1.3480 -0.5044  0.4649
  115OSM    C7S12017   5.043   3.220  10.339  0.0801  0.2934  0.4523
  115OSM    H7S12018   4.979   3.310  10.353 -0.0568  0.0312  1.6413
  115OSM    H7T12019   5.015   3.147  10.418 -1.2956 -0.6694 -0.8829
  115OSM    C8S12020   5.010   3.148  10.209  0.2927  0.7527 -0.5698
  115OSM    H8S12021   4.915   3.093  10.218  1.1977 -0.7010  0.5686
  115OSM    H8T12022   5.081   3.072  10.170 -0.3325  0.3472 -0.9227
  115OSM    C9S12023   4.989   3.251  10.090 -0.3515  0.5279  0.1916
  115OSM    H9S12024   5.076   3.320  10.085 -1.0723  1.7247  2.5502
  115OSM    H9T12025   4.910   3.317  10.133  0.7927  0.6701  2.1835
  115OSM   C10S12026   4.966   3.194   9.953  0.2250 -0.3851  1.0707
  115OSM   H10S12027   4.897   3.107   9.954  1.5509 -1.5700 -1.5787
  115OSM   H10T12028   5.053   3.156   9.896 -1.6020 -3.2998  0.0207
  115OSM   C11S12029   4.893   3.304   9.867 -0.4002  0.0673  0.0240
  115OSM   H11S12030   4.944   3.403   9.869  2.1464 -1.1616  1.5634
  115OSM   H11T12031   4.792   3.325   9.906 -0.6814 -0.8440 -0.1830
  115OSM   C12S12032   4.884   3.258   9.723 -0.1619 -0.2908  0.2083
  115OSM   H12S12033   4.812   3.173   9.726 -1.1973  0.4533 -1.7292
  115OSM   H12T12034   4.980   3.231   9.674  1.0657  3.1589  0.4889
  115OSM   C13S12035   4.811   3.361   9.632  0.5583 -0.1455  0.2176
  115OSM   H13S12036   4.882   3.444   9.610 -1.7806  1.3690 -2.1646
  115OSM   H13T12037   4.725   3.407   9.686  1.2488 -1.0843  2.2033
  115OSM   C14S12038   4.751   3.301   9.501  0.7426  0.3331 -0.4330
  115OSM   H14S12039   4.675   3.221   9.519  0.9226 -0.1100 -1.5590
  115OSM   H14T12040   4.832   3.248   9.448  0.7219 -1.2344  1.0378
  115OSM   C15S12041   4.689   3.395   9.403 -0.0799  0.1512  0.5707
  115OSM   H15S12042   4.679   3.491   9.458 -2.0724 -0.6448  1.7237
  115OSM   H15T12043   4.585   3.368   9.374  0.3829  0.0191 -1.0931
  115OSM   C16S12044   4.769   3.403   9.271  0.4666  0.4873 -0.5950
  115OSM   H16S12045   4.877   3.395   9.294  0.4400  0.0363 -0.6173
  115OSM   H16T12046   4.749   3.502   9.225  0.5013  0.3199 -0.9712
  115OSM   C17S12047   4.730   3.283   9.186 -0.1251 -0.6261 -0.5069
  115OSM   H17S12048   4.622   3.296   9.161 -1.1227  1.3745  3.9660
  115OSM   H17T12049   4.732   3.191   9.249 -3.4489  0.7782  1.9279
  115OSM   C18S12050   4.802   3.280   9.053  0.6828 -1.2147  0.5053
  115OSM   H18S12051   4.795   3.382   9.012  2.7464 -1.1733  0.1689
  115OSM   H18T12052   4.750   3.216   8.978 -1.3404  0.8018  0.0812
  115OSM   H18U12053   4.911   3.266   9.070  0.3454 -1.9413  2.4169
  115OSM    C1F12054   5.363   3.800  10.501  0.3787  0.3523 -0.3326
  115OSM     OF12055   5.486   3.817  10.516 -0.3315 -0.5451 -0.7048
  115OSM    C2F12056   5.277   3.893  10.426 -0.5326  0.9274  0.6804
  115OSM    H2F12057   5.204   3.942  10.495  0.2764  0.2405  2.0686
  115OSM    H2G12058   5.213   3.828  10.363 -2.4888  2.1877  1.2635
  115OSM    C3F12059   5.353   3.992  10.332 -0.4862 -0.4280  0.0538
  115OSM    H3F12060   5.449   3.954  10.291  1.5143  2.8559  1.2408
  115OSM    H3G12061   5.404   4.069  10.394  0.7446 -1.0927 -0.0875
  115OSM    C4F12062   5.257   4.033  10.227  0.0343  0.8044  0.7933
  115OSM    H4F12063   5.220   3.941  10.177  2.0526  1.2812 -1.8490
  115OSM    H4G12064   5.294   4.110  10.155 -1.5013  2.0685  1.2958
  115OSM    C5F12065   5.133   4.111  10.280 -0.6574  0.0267 -0.4118
  115OSM    H5F12066   5.185   4.193  10.334  1.2791 -0.3658 -1.5778
  115OSM    H5G12067   5.065   4.057  10.348  0.4442  0.4550  1.0836
  115OSM    C6F12068   5.035   4.163  10.169  0.6346  0.5424  0.4720
  115OSM    H6F12069   4.977   4.078  10.126 -0.7112  1.4938  0.3106
  115OSM    H6G12070   5.087   4.205  10.081 -0.6443 -1.0272 -1.1119
  115OSM    C7F12071   4.939   4.271  10.227  0.3379 -0.2369 -0.4269
  115OSM    H7F12072   4.998   4.354  10.272 -0.2599 -0.2500  0.4020
  115OSM    H7G12073   4.880   4.222  10.307  0.1185 -1.3957 -1.2684
  115OSM    C8F12074   4.839   4.344  10.127 -0.0821 -0.4463  0.2391
  115OSM    H8F12075   4.825   4.450  10.157  2.6194  0.5925 -1.7888
  115OSM    H8G12076   4.748   4.280  10.136  0.5488 -1.2304  1.3052
  115OSM    C9F12077   4.885   4.341   9.984  0.2360  0.2180 -0.7527
  115OSM    H9F12078   4.896   4.240   9.943  2.4213 -0.7896  2.0040
  115OSM   C10F12079   4.924   4.447   9.908  0.9682  0.1405 -0.4270
  115OSM   H10F12080   4.952   4.436   9.802 -0.1804  0.5347 -0.7801
  115OSM   C11F12081   4.925   4.591   9.954 -0.1448  0.5440 -0.8429
  115OSM   H11F12082   5.028   4.629   9.940  0.5940 -0.2225  1.9651
  115OSM   H11G12083   4.901   4.609  10.061  4.5009 -0.5008  0.5650
  115OSM   C12F12084   4.831   4.684   9.875 -0.0940 -0.6657  0.4118
  115OSM   H12F12085   4.829   4.786   9.918  0.3328 -0.6161  0.3232
  115OSM   H12G12086   4.730   4.639   9.888 -0.4825  0.3339  1.0177
  115OSM   C13F12087   4.863   4.706   9.727  0.2936 -0.1154  0.0657
  115OSM   H13F12088   4.768   4.742   9.681  0.4150 -1.6095 -1.4371
  115OSM   H13G12089   4.872   4.604   9.685 -1.5390 -0.1919 -0.2541
  115OSM   C14F12090   4.990   4.787   9.702 -0.2538  0.0146  0.2613
  115OSM   H14F12091   5.072   4.712   9.715 -0.9508 -0.4566  2.3183
  115OSM   H14G12092   5.012   4.856   9.786  3.6574 -0.2452 -0.3205
  115OSM   C15F12093   4.980   4.863   9.571 -0.4408 -0.1684 -0.0579
  115OSM   H15F12094   5.062   4.938   9.573  0.8222 -1.4359  2.6448
  115OSM   H15G12095   4.881   4.911   9.565 -1.0490 -1.3623  0.1232
  115OSM   C16F12096   4.999   4.770   9.459 -0.5146  1.0751 -0.3982
  115OSM   H16F12097   4.918   4.693   9.463 -0.6754  1.1684 -1.5346
  115OSM   H16G12098   5.089   4.706   9.465 -1.9969 -1.0109  1.1432
  115OSM   C17F12099   4.991   4.825   9.313  0.9437 -0.3047 -1.1363
  115OSM   H17F12100   5.065   4.906   9.294 -1.7031  2.2297 -1.3231
  115OSM   H17G12101   4.895   4.879   9.303  0.0593 -1.5412  0.1469
  115OSM   C18F12102   4.998   4.709   9.218  0.2725  0.2705 -0.1906
  115OSM   H18F12103   4.954   4.616   9.261  0.6334 -1.3518 -3.0934
  115OSM   H18G12104   5.099   4.683   9.180  0.0373  0.0986 -0.7152
  115OSM   H18H12105   4.934   4.728   9.129 -1.2706 -0.0495  0.8092
  116OSM      N12106   1.242   0.398  10.913 -0.4953  0.0109  0.9367
  116OSM    C1512107   1.094   0.379  10.879 -0.2872  0.0735 -0.4973
  116OSM   H15A12108   1.077   0.309  10.799  0.2144 -0.9745  0.2895
  116OSM   H15B12109   1.051   0.474  10.849 -0.7054  0.7010  1.8665
  116OSM   H15C12110   1.045   0.335  10.964  1.5655  3.2725  2.5394
  116OSM    C1412111   1.294   0.263  10.924  0.3779  1.0653 -0.1250
  116OSM   H14A12112   1.402   0.268  10.929  0.4824 -0.7281 -0.1021
  116OSM   H14B12113   1.274   0.203  10.836  0.5953  1.1490 -0.2319
  116OSM   H14C12114   1.256   0.205  11.007 -1.5315  3.0369  0.4648
  116OSM    C1312115   1.320   0.471  10.802  0.6248  0.1480  0.3714
  116OSM   H13A12116   1.269   0.563  10.780  0.0879 -0.6315 -2.0321
  116OSM   H13B12117   1.309   0.412  10.712 -1.3463  0.7266  0.1885
  116OSM   H13C12118   1.423   0.491  10.830  0.5818 -1.4335  1.8705
  116OSM    C1212119   1.260   0.480  11.041  0.1277  0.0808  0.4808
  116OSM   H12A12120   1.217   0.424  11.122  0.2534 -1.8301 -0.7209
  116OSM   H12B12121   1.201   0.571  11.035  2.6099  1.7285 -1.5579
  116OSM    C1112122   1.404   0.520  11.085 -0.2927 -0.2047 -0.0892
  116OSM   H11A12123   1.400   0.550  11.192  1.6247 -2.0265  0.5666
  116OSM   H11B12124   1.433   0.610  11.027 -3.9292 -0.6044 -2.9090
  116OSM      P12125   1.646   0.442  11.057  0.0402  0.0238  0.2654
  116OSM    O1312126   1.688   0.532  11.167  0.0070  0.4874  0.0528
  116OSM    O1412127   1.710   0.309  11.054 -0.2125  0.5979 -0.4209
  116OSM    O1112128   1.642   0.507  10.918  0.7762 -0.2220 -0.5795
  116OSM    O1212129   1.491   0.413  11.066  0.0160  0.1735  0.1783
  116OSM    C1S12130   1.703   0.430  10.811 -0.1426 -0.0927 -0.8142
  116OSM    H1S12131   1.652   0.332  10.802  2.9458 -1.8402 -0.8568
  116OSM    H1T12132   1.810   0.410  10.834 -0.4138 -0.9721 -0.3178
  116OSM     NF12133   1.724   0.409  10.569  0.0840  0.2715  0.0119
  116OSM    HNF12134   1.822   0.413  10.549  0.1210 -1.5111 -0.3541
  116OSM    C2S12135   1.692   0.497  10.677 -0.8514 -0.1915 -0.4902
  116OSM    H2S12136   1.590   0.540  10.670 -0.3599  1.0453 -0.4078
  116OSM    C3S12137   1.773   0.635  10.682 -0.2408 -0.5099 -0.0085
  116OSM    H3S12138   1.882   0.613  10.682 -0.3291 -1.0602 -1.3470
  116OSM     O312139   1.764   0.717  10.803 -0.1789 -0.3792  0.2810
  116OSM    HO312140   1.702   0.669  10.857 -0.6906  0.4365  0.4361
  116OSM    C4S12141   1.747   0.713  10.560 -0.1105 -0.5547  0.2774
  116OSM    H4S12142   1.810   0.693  10.473  0.4929  0.5367  0.4397
  116OSM    C5S12143   1.648   0.806  10.543  0.4741  0.2416  0.2410
  116OSM    H5S12144   1.559   0.816  10.607  0.9633 -0.8048  1.1207
  116OSM    C6S12145   1.639   0.882  10.415 -0.0302  0.0512 -0.0636
  116OSM    H6S12146   1.608   0.817  10.330 -0.3026 -0.9354  0.7765
  116OSM    H6T12147   1.740   0.905  10.374  0.2451 -1.0727 -0.0536
  116OSM    C7S12148   1.548   1.006  10.422 -0.0745  0.1046  0.4355
  116OSM    H7S12149   1.599   1.084  10.483  1.1511 -0.9658  0.8177
  116OSM    H7T12150   1.453   0.975  10.472  0.0929  1.6829  1.8383
  116OSM    C8S12151   1.519   1.081  10.290  0.1004 -0.2572  0.3490
  116OSM    H8S12152   1.609   1.094  10.225  0.6741 -1.2176  0.9190
  116OSM    H8T12153   1.496   1.185  10.322 -0.0203 -0.0118 -0.5156
  116OSM    C9S12154   1.395   1.037  10.218 -0.1954 -0.6683  0.4018
  116OSM    H9S12155   1.308   1.040  10.287 -0.1375 -0.9350  0.4852
  116OSM    H9T12156   1.414   0.944  10.162  2.3229  0.3262 -0.5404
  116OSM   C10S12157   1.369   1.143  10.115 -0.9404  0.4054  0.1988
  116OSM   H10S12158   1.465   1.162  10.061  1.9312 -0.5997  4.4775
  116OSM   H10T12159   1.334   1.244  10.143 -0.2728  1.0383 -1.1199
  116OSM   C11S12160   1.272   1.092  10.007  0.0395  0.8282  0.1562
  116OSM   H11S12161   1.245   1.181   9.946  1.5292  1.3335  0.1815
  116OSM   H11T12162   1.189   1.042  10.061 -1.1863  0.0900 -2.2698
  116OSM   C12S12163   1.337   0.988   9.912  0.3096  0.1570  0.5360
  116OSM   H12S12164   1.368   0.889   9.951 -1.8262 -2.0275 -2.7616
  116OSM   H12T12165   1.427   1.035   9.868  0.5108 -1.3483 -0.7544
  116OSM   C13S12166   1.249   0.958   9.798  0.0826 -0.8056 -0.3656
  116OSM   H13S12167   1.207   1.056   9.765 -0.4433 -1.4264 -1.6120
  116OSM   H13T12168   1.164   0.891   9.821 -1.5476  1.4359  0.5637
  116OSM   C14S12169   1.315   0.921   9.672 -0.1441 -0.2191 -0.5796
  116OSM   H14S12170   1.378   0.830   9.686  0.7912  0.4866 -0.1066
  116OSM   H14T12171   1.394   0.996   9.652  1.0795 -1.4231 -0.4164
  116OSM   C15S12172   1.227   0.904   9.553 -0.3201  0.1775 -0.3807
  116OSM   H15S12173   1.161   0.992   9.537  2.5584  2.9807  1.7094
  116OSM   H15T12174   1.161   0.815   9.551  0.0613 -0.1159 -0.0597
  116OSM   C16S12175   1.314   0.890   9.427 -0.4613  0.0320  0.3789
  116OSM   H16S12176   1.350   0.787   9.403  0.9235  0.7887 -0.9789
  116OSM   H16T12177   1.406   0.951   9.434  1.0032 -2.1977  2.3801
  116OSM   C17S12178   1.242   0.937   9.298 -0.3949  0.1034 -0.2227
  116OSM   H17S12179   1.198   1.038   9.314 -2.1023 -0.4300 -1.2598
  116OSM   H17T12180   1.152   0.872   9.286  0.6870 -1.2532 -1.2729
  116OSM   C18S12181   1.326   0.953   9.167  0.0875  0.2700  0.1872
  116OSM   H18S12182   1.357   0.856   9.122 -0.7598  0.4597 -0.8282
  116OSM   H18T12183   1.423   0.997   9.197  0.8482 -1.8608  1.0850
  116OSM   H18U12184   1.286   1.020   9.088  1.4534  1.9158  0.8391
  116OSM    C1F12185   1.645   0.309  10.533  0.0086  0.1652  0.5207
  116OSM     OF12186   1.530   0.300  10.579  0.5905 -0.7213  0.0158
  116OSM    C2F12187   1.699   0.209  10.445 -0.6010 -0.2713 -0.0204
  116OSM    H2F12188   1.730   0.117  10.499 -2.6329 -1.2290 -0.3739
  116OSM    H2G12189   1.782   0.245  10.380 -1.7343 -1.0187 -1.9953
  116OSM    C3F12190   1.584   0.162  10.349  0.1508 -0.8620  0.4330
  116OSM    H3F12191   1.511   0.244  10.327  0.3907 -0.5392  0.8295
  116OSM    H3G12192   1.522   0.093  10.410 -2.7569  0.5341 -0.7099
  116OSM    C4F12193   1.631   0.096  10.215 -0.3192  0.6223 -0.0685
  116OSM    H4F12194   1.677  -0.001  10.242 -1.3671 -0.8092 -2.9951
  116OSM    H4G12195   1.699   0.165  10.161 -1.5960  1.1780 -1.0415
  116OSM    C5F12196   1.513   0.066  10.118  0.7544 -0.0529  0.8432
  116OSM    H5F12197   1.424   0.039  10.178 -1.2937  3.3775 -0.3846
  116OSM    H5G12198   1.546  -0.019  10.055  2.1586  1.7660 -1.0045
  116OSM    C6F12199   1.476   0.169  10.008  0.5556  0.0973 -0.7829
  116OSM    H6F12200   1.571   0.202   9.961  1.2645  0.7386  1.0059
  116OSM    H6G12201   1.438   0.254  10.069  2.9793  1.0281 -0.4593
  116OSM    C7F12202   1.358   0.135   9.912 -0.3257  0.2343  0.1549
  116OSM    H7F12203   1.306   0.232   9.894 -2.6127 -0.6651  1.5951
  116OSM    H7G12204   1.287   0.065   9.959 -0.3682 -0.2529 -0.6154
  116OSM    C8F12205   1.396   0.067   9.775 -0.0292  0.0578  0.0096
  116OSM    H8F12206   1.424  -0.036   9.806  0.1427 -0.3196 -1.3333
  116OSM    H8G12207   1.493   0.104   9.735  0.0163 -1.0196 -0.9288
  116OSM    C9F12208   1.288   0.055   9.671  0.2466 -0.0964  0.1159
  116OSM    H9F12209   1.192   0.024   9.715  0.9348 -0.2974  1.5535
  116OSM   C10F12210   1.295   0.093   9.540 -0.7606  0.3675  0.0861
  116OSM   H10F12211   1.202   0.071   9.486 -2.6189  0.4691  2.9910
  116OSM   C11F12212   1.411   0.155   9.461  0.1670  0.4109 -0.1790
  116OSM   H11F12213   1.506   0.122   9.508  0.9410  0.5244 -1.5989
  116OSM   H11G12214   1.402   0.264   9.476 -3.7107  0.6547 -2.7417
  116OSM   C12F12215   1.405   0.105   9.312 -0.0078  0.8172  0.6757
  116OSM   H12F12216   1.317   0.149   9.261 -1.9489 -1.5954  1.7146
  116OSM   H12G12217   1.403  -0.006   9.307  0.1129  0.7962  1.0333
  116OSM   C13F12218   1.529   0.140   9.215  0.2301  0.3397  0.1031
  116OSM   H13F12219   1.563   0.244   9.233  1.6467 -0.2288  0.8638
  116OSM   H13G12220   1.497   0.138   9.108  1.1801  3.8657 -0.3893
  116OSM   C14F12221   1.660   0.051   9.236  0.0403 -0.1185 -0.3826
  116OSM   H14F12222   1.622  -0.054   9.228 -3.6257  1.0288  0.2265
  116OSM   H14G12223   1.686   0.055   9.344  0.4631 -0.6290 -0.4597
  116OSM   C15F12224   1.782   0.083   9.148  0.2744 -0.2332  0.2942
  116OSM   H15F12225   1.871   0.018   9.168  0.4785 -0.0129  0.1163
  116OSM   H15G12226   1.804   0.188   9.178 -2.8002  0.7024 -0.4397
  116OSM   C16F12227   1.744   0.071   8.999  0.2391  0.6587  0.3459
  116OSM   H16F12228   1.659   0.141   8.983 -0.4588 -0.0059  1.0700
  116OSM   H16G12229   1.702  -0.027   8.965 -1.0004  1.9787 -2.2685
  116OSM   C17F12230   1.846   0.123   8.894 -0.3113  0.1029  0.1475
  116OSM   H17F12231   1.892   0.221   8.920 -0.9806  0.0383  1.6526
  116OSM   H17G12232   1.799   0.142   8.795  1.2578  0.0660 -0.6397
  116OSM   C18F12233   1.968   0.038   8.870 -0.3798  0.3973 -0.8022
  116OSM   H18F12234   2.035   0.018   8.957  0.9699  1.2133 -1.6068
  116OSM   H18G12235   2.042   0.081   8.799 -0.5883  1.0044 -0.6596
  116OSM   H18H12236   1.947  -0.061   8.824  0.0365 -0.1387  0.1191
  117OSM      N12237   5.880   1.676  11.174 -0.2020 -0.2708 -0.2179
  117OSM    C1512238   5.992   1.667  11.267 -0.3423 -0.1120 -0.4480
  117OSM   H15A12239   6.048   1.760  11.271 -1.3778  0.4670  2.0575
  117OSM   H15B12240   6.053   1.587  11.229 -2.8932 -1.2843 -2.3581
  117OSM   H15C12241   5.967   1.646  11.370 -1.5187  0.8438 -0.5239
  117OSM    C1412242   5.795   1.561  11.219 -0.0311  0.1818  0.1360
  117OSM   H14A12243   5.697   1.563  11.173 -0.0352  2.3209  0.1522
  117OSM   H14B12244   5.769   1.567  11.323 -0.8247 -1.2220  0.0489
  117OSM   H14C12245   5.839   1.463  11.204  1.8274  1.2102 -1.6268
  117OSM    C1312246   5.786   1.800  11.196  0.0031  0.4345  0.2885
  117OSM   H13A12247   5.830   1.896  11.175 -1.8437  2.2414  3.8285
  117OSM   H13B12248   5.767   1.797  11.302 -0.4146  0.7004  0.2214
  117OSM   H13C12249   5.694   1.796  11.141  0.6675  0.0432 -0.8319
  117OSM    C1212250   5.927   1.667  11.029 -0.5105  0.0648 -0.7294
  117OSM   H12A12251   6.013   1.731  11.014 -0.0549 -0.2855  0.3137
  117OSM   H12B12252   5.847   1.693  10.961 -1.6279 -1.1846  0.0612
  117OSM    C1112253   5.986   1.528  10.988 -0.1678  0.7798  0.2226
  117OSM   H11A12254   6.027   1.529  10.885 -2.2527  0.4902 -0.6621
  117OSM   H11B12255   5.897   1.462  10.992  0.0310  0.5609  2.7586
  117OSM      P12256   6.074   1.308  11.106 -0.0162 -0.3275 -0.2559
  117OSM    O1312257   6.187   1.266  11.189  0.2923  0.2782  0.2300
  117OSM    O1412258   5.939   1.282  11.157  0.0105  0.2791 -0.2407
  117OSM    O1112259   6.086   1.246  10.962  1.1689 -0.8188  0.8902
  117OSM    O1212260   6.082   1.467  11.080  0.1239  0.2599 -0.1051
  117OSM    C1S12261   6.205   1.255  10.889 -0.1234 -0.3397 -0.5229
  117OSM    H1S12262   6.289   1.201  10.938  0.1750 -1.3146 -2.0398
  117OSM    H1T12263   6.235   1.360  10.872 -2.4784  0.3549 -0.7187
  117OSM     NF12264   6.314   1.197  10.677 -0.3248  0.2613  0.2891
  117OSM    HNF12265   6.323   1.268  10.607  0.3704 -0.8565 -0.8016
  117OSM    C2S12266   6.185   1.189  10.747 -0.0225 -0.2291  0.4976
  117OSM    H2S12267   6.160   1.082  10.759  0.1933 -0.3598 -0.1861
  117OSM    C3S12268   6.065   1.259  10.671  0.0781  0.2763 -0.9879
  117OSM    H3S12269   6.077   1.365  10.702  1.0354 -0.8010  2.8860
  117OSM     O312270   5.936   1.223  10.723 -0.0332 -0.2868 -0.0839
  117OSM    HO312271   5.964   1.178  10.802  1.2289 -0.4604 -0.6026
  117OSM    C4S12272   6.062   1.246  10.522  0.5972  0.2567  0.1498
  117OSM    H4S12273   6.100   1.335  10.470  0.6454  0.7445  0.9853
  117OSM    C5S12274   6.026   1.133  10.459  0.1111  0.0524  0.8258
  117OSM    H5S12275   6.010   1.042  10.518  0.0049  0.3766  1.3072
  117OSM    C6S12276   6.025   1.108  10.310 -0.6206 -0.1332 -0.5722
  117OSM    H6S12277   5.922   1.086  10.275 -1.7549 -0.1066  2.4948
  117OSM    H6T12278   6.071   1.013  10.275 -3.4840 -0.9692 -2.4892
  117OSM    C7S12279   6.088   1.221  10.227 -0.5508  0.2819 -0.0089
  117OSM    H7S12280   6.197   1.231  10.249  0.0740  0.8058 -2.9311
  117OSM    H7T12281   6.045   1.322  10.246  1.0580  0.7030  1.7402
  117OSM    C8S12282   6.084   1.185  10.076  0.7325 -0.5285 -0.0134
  117OSM    H8S12283   5.982   1.146  10.052  1.4941 -2.5284 -0.1335
  117OSM    H8T12284   6.161   1.107  10.062  2.2358  0.9179 -0.1100
  117OSM    C9S12285   6.126   1.294   9.979  0.0101 -0.1153  0.2778
  117OSM    H9S12286   6.229   1.323  10.011  0.6342 -1.4599 -0.4339
  117OSM    H9T12287   6.079   1.394   9.992  0.5462 -0.0214  1.6514
  117OSM   C10S12288   6.126   1.246   9.832  0.2422  0.0886 -0.5280
  117OSM   H10S12289   6.022   1.235   9.795 -0.0005  3.4286 -1.2282
  117OSM   H10T12290   6.171   1.145   9.827  0.8571  0.2496  1.2306
  117OSM   C11S12291   6.186   1.344   9.732  0.0502 -0.5215  0.1288
  117OSM   H11S12292   6.285   1.365   9.778  1.4405 -3.5826 -1.1557
  117OSM   H11T12293   6.128   1.438   9.729 -0.2983 -0.7244  0.4211
  117OSM   C12S12294   6.181   1.292   9.594 -0.0610  0.2179  0.5735
  117OSM   H12S12295   6.074   1.273   9.569  0.3958 -0.9045 -0.6408
  117OSM   H12T12296   6.233   1.195   9.583 -1.0819 -0.2613 -0.3481
  117OSM   C13S12297   6.243   1.391   9.497  0.1046 -0.0317 -0.5953
  117OSM   H13S12298   6.353   1.401   9.514  0.7698 -2.6036 -2.7770
  117OSM   H13T12299   6.203   1.493   9.519 -0.3727 -0.8540  2.9183
  117OSM   C14S12300   6.209   1.347   9.358  0.1991  0.1190 -0.1249
  117OSM   H14S12301   6.100   1.351   9.340  0.0632  0.9356  0.7690
  117OSM   H14T12302   6.257   1.248   9.346  2.8455  1.1562  0.9873
  117OSM   C15S12303   6.283   1.425   9.247 -0.2239 -0.2585  0.2113
  117OSM   H15S12304   6.394   1.428   9.255 -0.2968  0.0854  1.2731
  117OSM   H15T12305   6.240   1.528   9.247  0.8769  0.2190 -0.7427
  117OSM   C16S12306   6.264   1.361   9.107  0.2692  0.1489  0.1998
  117OSM   H16S12307   6.156   1.352   9.085  0.4692 -0.2664 -0.6815
  117OSM   H16T12308   6.305   1.257   9.115 -1.4098 -0.4797  0.9929
  117OSM   C17S12309   6.343   1.429   8.989 -0.0094 -0.0903 -0.1268
  117OSM   H17S12310   6.449   1.415   9.020 -0.2564 -0.6188  0.5123
  117OSM   H17T12311   6.328   1.539   8.987  0.6432 -0.0067 -0.7939
  117OSM   C18S12312   6.306   1.388   8.846  0.1389 -0.0585 -1.2223
  117OSM   H18S12313   6.344   1.286   8.824 -1.1172 -0.3193 -2.3296
  117OSM   H18T12314   6.353   1.453   8.770  1.6459  0.3328 -0.0129
  117OSM   H18U12315   6.197   1.371   8.836  0.1050 -1.5855  0.9709
  117OSM    C1F12316   6.427   1.122  10.693  0.3788 -0.0120 -0.7749
  117OSM     OF12317   6.433   1.026  10.771  0.4596  0.2708 -0.0670
  117OSM    C2F12318   6.540   1.174  10.607  0.1288  0.0339  0.6058
  117OSM    H2F12319   6.616   1.222  10.673 -0.0253  1.1700 -0.0294
  117OSM    H2G12320   6.498   1.252  10.540 -0.2409 -0.1558  0.6186
  117OSM    C3F12321   6.609   1.067  10.519 -0.4757 -0.0714 -0.2538
  117OSM    H3F12322   6.656   0.993  10.587 -1.1154 -3.3674 -3.1239
  117OSM    H3G12323   6.694   1.118  10.468  0.5065  0.1297  1.5192
  117OSM    C4F12324   6.514   0.995  10.437 -0.4485 -0.0769  0.5948
  117OSM    H4F12325   6.430   0.967  10.503 -2.1318  1.6581 -0.6967
  117OSM    H4G12326   6.561   0.897  10.413 -0.6108  0.0124 -0.1181
  117OSM    C5F12327   6.460   1.067  10.317  0.1057 -0.3163 -0.7457
  117OSM    H5F12328   6.402   1.159  10.341  0.0228 -0.2512 -1.1783
  117OSM    H5G12329   6.393   0.999  10.261 -1.8735  1.7553 -1.0200
  117OSM    C6F12330   6.567   1.104  10.218 -0.2850  0.1743  0.0826
  117OSM    H6F12331   6.646   1.026  10.210  1.0288  1.3861  0.8699
  117OSM    H6G12332   6.616   1.197  10.254 -0.0460  0.8934 -1.9986
  117OSM    C7F12333   6.499   1.129  10.087 -0.0985  0.1262 -0.5089
  117OSM    H7F12334   6.438   1.222  10.078  2.0508  1.6531 -0.1024
  117OSM    H7G12335   6.435   1.041  10.066  1.9989 -1.4380 -0.6267
  117OSM    C8F12336   6.591   1.137   9.958  0.3575  0.1696 -0.1844
  117OSM    H8F12337   6.644   1.041   9.942 -0.8686 -0.3485 -1.3919
  117OSM    H8G12338   6.662   1.216   9.988 -0.4794  0.6343  0.6171
  117OSM    C9F12339   6.509   1.183   9.839  0.1133  0.0840  0.0948
  117OSM    H9F12340   6.413   1.234   9.860 -0.1238  0.1530 -1.0936
  117OSM   C10F12341   6.548   1.164   9.716 -0.1393  0.6049 -0.8382
  117OSM   H10F12342   6.480   1.202   9.637 -1.2690  0.0809 -0.1431
  117OSM   C11F12343   6.684   1.112   9.676  0.0700 -0.1779 -0.3697
  117OSM   H11F12344   6.719   1.022   9.731  0.0981 -0.2338 -0.4786
  117OSM   H11G12345   6.756   1.191   9.704 -1.0616  0.3794  1.0943
  117OSM   C12F12346   6.705   1.106   9.521 -0.4215 -0.0306 -0.2029
  117OSM   H12F12347   6.815   1.099   9.510 -0.1932  2.6761 -0.3070
  117OSM   H12G12348   6.666   1.200   9.475  1.2258 -0.3905 -2.4926
  117OSM   C13F12349   6.634   0.986   9.453 -0.5391  0.0633 -0.0273
  117OSM   H13F12350   6.525   1.000   9.469 -0.6732 -1.0621  0.1496
  117OSM   H13G12351   6.667   0.888   9.494 -0.1638 -0.3034 -1.1659
  117OSM   C14F12352   6.655   0.965   9.300  0.3530 -0.0102 -0.2720
  117OSM   H14F12353   6.764   0.950   9.284  0.3864 -1.4538  1.0459
  117OSM   H14G12354   6.625   1.052   9.238  0.4921 -0.0784 -0.4356
  117OSM   C15F12355   6.581   0.837   9.256 -0.5283  0.3075 -0.2127
  117OSM   H15F12356   6.477   0.871   9.274 -0.6159  1.2820 -2.2876
  117OSM   H15G12357   6.606   0.752   9.323 -0.8610  0.5452  0.2145
  117OSM   C16F12358   6.586   0.813   9.107 -0.2717 -0.3325 -0.1808
  117OSM   H16F12359   6.686   0.805   9.058  0.1227  2.6751 -0.0752
  117OSM   H16G12360   6.530   0.894   9.056  0.0442  0.0062  0.0016
  117OSM   C17F12361   6.516   0.680   9.075  0.2660  0.2955  0.0280
  117OSM   H17F12362   6.418   0.669   9.127  0.2757 -1.5705 -0.2807
  117OSM   H17G12363   6.563   0.589   9.119  0.4719 -0.3733 -1.5373
  117OSM   C18F12364   6.486   0.658   8.923  0.0736 -0.4457 -0.1381
  117OSM   H18F12365   6.412   0.574   8.922 -0.2924 -0.1227 -0.4100
  117OSM   H18G12366   6.566   0.615   8.858 -0.4705 -2.2223  0.3120
  117OSM   H18H12367   6.453   0.749   8.869  2.0756  0.8009  0.6261
  118OSM      N12368   6.580   1.945  11.063  0.3960  0.1056 -0.2746
  118OSM    C1512369   6.592   1.868  10.929  0.1789  0.0893 -0.3747
  118OSM   H15A12370   6.546   1.770  10.939 -0.2901  0.4528  1.2745
  118OSM   H15B12371   6.696   1.870  10.901  0.5890  0.2865  1.0811
  118OSM   H15C12372   6.538   1.933  10.861  0.4352 -0.8643 -1.5249
  118OSM    C1412373   6.660   1.875  11.162 -0.3499  0.2373 -0.3850
  118OSM   H14A12374   6.624   1.777  11.190  1.7577 -0.2773  0.7479
  118OSM   H14B12375   6.660   1.952  11.238 -2.4709 -0.1617  0.0803
  118OSM   H14C12376   6.762   1.856  11.134  0.0522 -1.3836  1.9325
  118OSM    C1312377   6.642   2.077  11.042  0.3706 -0.9574  0.1818
  118OSM   H13A12378   6.739   2.071  10.993  0.2633 -1.9740  0.0595
  118OSM   H13B12379   6.630   2.150  11.120 -0.7266 -1.5990  0.6395
  118OSM   H13C12380   6.591   2.127  10.961 -0.3342 -0.4638  0.9159
  118OSM    C1212381   6.437   1.961  11.108  0.4846  0.0990  0.4622
  118OSM   H12A12382   6.430   1.995  11.210  0.3755  0.0420  0.4743
  118OSM   H12B12383   6.392   1.862  11.114  0.6619 -0.0333 -0.3030
  118OSM    C1112384   6.349   2.062  11.028 -0.4943 -0.3135 -0.2478
  118OSM   H11A12385   6.244   2.035  11.051  0.2268 -1.3177  2.2116
  118OSM   H11B12386   6.363   2.042  10.920 -0.1879 -0.1544 -0.2391
  118OSM      P12387   6.262   2.309  11.066 -0.2916  0.0466 -0.6216
  118OSM    O1312388   6.137   2.246  11.116 -0.2645  0.6469 -1.1965
  118OSM    O1412389   6.316   2.426  11.142  0.3716  0.0503  0.0803
  118OSM    O1112390   6.243   2.339  10.910 -0.6339 -0.1136 -0.4422
  118OSM    O1212391   6.375   2.197  11.062  0.6153 -0.1353 -0.3842
  118OSM    C1S12392   6.348   2.417  10.840  0.0562  0.0185  0.3208
  118OSM    H1S12393   6.449   2.376  10.860  0.4379 -0.0989 -1.6961
  118OSM    H1T12394   6.356   2.523  10.874 -0.9134 -0.0282  0.7175
  118OSM     NF12395   6.407   2.511  10.626 -0.5760  0.5431  0.8057
  118OSM    HNF12396   6.386   2.607  10.610 -0.5937  0.1806 -1.9489
  118OSM    C2S12397   6.306   2.429  10.689 -0.3361 -0.7576  0.2665
  118OSM    H2S12398   6.305   2.325  10.650 -1.1518 -1.5535  2.2683
  118OSM    C3S12399   6.165   2.493  10.682  0.3300  0.2406  0.5793
  118OSM    H3S12400   6.163   2.585  10.744  0.8807  0.2937  0.5301
  118OSM     O312401   6.056   2.410  10.734 -0.0145  0.3188 -0.1162
  118OSM    HO312402   6.105   2.330  10.756  1.4752  0.1172 -3.5438
  118OSM    C4S12403   6.135   2.535  10.540 -0.4422  0.1940  0.6828
  118OSM    H4S12404   6.152   2.642  10.520  2.4830 -0.3335 -0.0712
  118OSM    C5S12405   6.086   2.453  10.450  0.4386 -0.1227  0.0776
  118OSM    H5S12406   6.055   2.355  10.489 -1.6459 -0.0091 -1.1356
  118OSM    C6S12407   6.046   2.488  10.316 -0.0050  0.1558 -0.3669
  118OSM    H6S12408   6.065   2.597  10.305  3.1663 -0.3953 -1.2453
  118OSM    H6T12409   5.936   2.477  10.305 -0.0851  0.5703  0.0113
  118OSM    C7S12410   6.111   2.397  10.211  0.3705  0.5526  0.0317
  118OSM    H7S12411   6.068   2.294  10.218  3.3717 -0.7973  0.3105
  118OSM    H7T12412   6.218   2.376  10.234  0.0924  1.2066  2.1605
  118OSM    C8S12413   6.118   2.467  10.072 -0.8890  0.8255  0.2020
  118OSM    H8S12414   6.164   2.567  10.088 -1.0396  1.3969 -2.5183
  118OSM    H8T12415   6.018   2.480  10.025 -0.3564  1.3456 -0.8155
  118OSM    C9S12416   6.200   2.383   9.975  0.6204  0.1752 -0.4523
  118OSM    H9S12417   6.134   2.298   9.948 -0.1760  0.2770  1.0600
  118OSM    H9T12418   6.284   2.333  10.028 -0.8914 -3.2401 -0.9875
  118OSM   C10S12419   6.230   2.465   9.849  0.3826 -0.2788 -0.4048
  118OSM   H10S12420   6.314   2.534   9.874  1.6767 -0.8421 -2.8130
  118OSM   H10T12421   6.151   2.532   9.810  1.7883  1.0899 -1.0046
  118OSM   C11S12422   6.274   2.378   9.734  0.7866  0.1476  0.7350
  118OSM   H11S12423   6.195   2.301   9.722  0.2881  0.3285  2.5961
  118OSM   H11T12424   6.364   2.314   9.748  0.6831 -0.3790 -0.7306
  118OSM   C12S12425   6.289   2.448   9.596 -0.1294 -0.2615  0.3686
  118OSM   H12S12426   6.365   2.526   9.615  0.5083 -0.0042 -2.7450
  118OSM   H12T12427   6.193   2.492   9.561  0.5385  1.2270  0.3606
  118OSM   C13S12428   6.314   2.338   9.488  0.1374  0.5396 -0.8552
  118OSM   H13S12429   6.228   2.269   9.486  0.3823  0.1364  0.8117
  118OSM   H13T12430   6.397   2.278   9.530  0.3226  2.1001  1.1588
  118OSM   C14S12431   6.350   2.385   9.349 -0.2747 -0.9187  0.2484
  118OSM   H14S12432   6.412   2.477   9.355 -1.6336  0.1233 -0.8240
  118OSM   H14T12433   6.250   2.412   9.307  0.0215 -1.6869 -1.0051
  118OSM   C15S12434   6.428   2.279   9.265 -0.6433 -0.2394 -0.4052
  118OSM   H15S12435   6.348   2.209   9.234 -0.2847 -0.6946 -0.3124
  118OSM   H15T12436   6.504   2.225   9.324 -0.8979 -1.7390 -1.3986
  118OSM   C16S12437   6.468   2.329   9.129 -0.5411 -0.2170 -0.0632
  118OSM   H16S12438   6.544   2.411   9.133  1.4345 -1.9277 -0.7256
  118OSM   H16T12439   6.383   2.380   9.079  0.9354  1.0429 -1.4132
  118OSM   C17S12440   6.531   2.225   9.041 -0.3819 -0.1782 -0.3807
  118OSM   H17S12441   6.469   2.133   9.031  0.5511 -1.2043  2.3389
  118OSM   H17T12442   6.624   2.203   9.097 -0.1781 -0.2935 -0.7609
  118OSM   C18S12443   6.568   2.262   8.901 -0.4672 -0.8547  0.3104
  118OSM   H18S12444   6.619   2.177   8.851 -0.0969  0.7838 -2.3064
  118OSM   H18T12445   6.638   2.348   8.887 -1.5891  0.1458  0.6638
  118OSM   H18U12446   6.476   2.297   8.850 -0.3107  1.4802  1.4739
  118OSM    C1F12447   6.529   2.474  10.596  0.5903 -0.0793 -1.5443
  118OSM     OF12448   6.569   2.368  10.635  0.1069  0.2189  0.7572
  118OSM    C2F12449   6.619   2.590  10.538 -0.0963  1.1337  0.0257
  118OSM    H2F12450   6.722   2.550  10.544 -0.6295 -0.2590  0.5274
  118OSM    H2G12451   6.610   2.680  10.603 -0.7411 -0.5667  2.4424
  118OSM    C3F12452   6.566   2.653  10.408 -0.4475  0.0366  0.2999
  118OSM    H3F12453   6.642   2.730  10.382  0.7954 -1.7195 -1.5938
  118OSM    H3G12454   6.466   2.700  10.404  0.0821  1.1339 -0.5233
  118OSM    C4F12455   6.578   2.558  10.289  0.2003 -0.8364  0.6809
  118OSM    H4F12456   6.507   2.473  10.285 -0.4534 -0.2945  0.7428
  118OSM    H4G12457   6.672   2.499  10.289  1.4047  0.9118 -1.5627
  118OSM    C5F12458   6.565   2.636  10.158 -0.1625 -0.4098 -0.6440
  118OSM    H5F12459   6.631   2.726  10.154 -2.3259  1.3507  1.0636
  118OSM    H5G12460   6.461   2.672  10.144  0.8683  1.7734 -3.9846
  118OSM    C6F12461   6.618   2.545  10.044 -0.0710  0.1335 -0.1571
  118OSM    H6F12462   6.548   2.460  10.034  0.4585 -0.2907 -0.2709
  118OSM    H6G12463   6.714   2.507  10.085 -1.1730  0.6348  3.1485
  118OSM    C7F12464   6.631   2.630   9.917  0.5196  0.0125 -0.0923
  118OSM    H7F12465   6.701   2.713   9.938 -0.5259  1.8782 -3.2485
  118OSM    H7G12466   6.538   2.680   9.883 -0.5340 -0.2869  2.1703
  118OSM    C8F12467   6.704   2.561   9.805 -0.2262 -0.5923 -0.1097
  118OSM    H8F12468   6.790   2.506   9.849  2.0512  3.0712  0.4269
  118OSM    H8G12469   6.754   2.639   9.743  3.0228 -3.6168 -1.6082
  118OSM    C9F12470   6.619   2.467   9.726  0.0421  0.4145  0.4585
  118OSM    H9F12471   6.526   2.433   9.774 -0.0933 -1.7714 -1.1891
  118OSM   C10F12472   6.648   2.417   9.601 -0.2182 -0.1238  0.2748
  118OSM   H10F12473   6.593   2.329   9.564  0.0723 -0.0446 -0.3604
  118OSM   C11F12474   6.771   2.436   9.511  1.6068 -0.0811  0.5783
  118OSM   H11F12475   6.831   2.342   9.510  1.6909 -0.0781  2.2309
  118OSM   H11G12476   6.829   2.524   9.548 -0.4250  0.8046  1.8528
  118OSM   C12F12477   6.736   2.475   9.362 -0.4314  0.2305  0.1069
  118OSM   H12F12478   6.685   2.573   9.369 -1.7833 -0.4702  0.6205
  118OSM   H12G12479   6.678   2.398   9.305  1.5988  1.5531 -4.1444
  118OSM   C13F12480   6.863   2.503   9.272 -0.0940 -0.5018 -0.0990
  118OSM   H13F12481   6.934   2.420   9.294 -0.6594 -1.5203 -1.8712
  118OSM   H13G12482   6.916   2.593   9.308  1.6469 -1.4928 -0.0579
  118OSM   C14F12483   6.835   2.507   9.125  0.1243  0.0609  0.1183
  118OSM   H14F12484   6.750   2.577   9.110 -1.1221 -0.8188  2.5671
  118OSM   H14G12485   6.807   2.404   9.092 -1.8781  0.1770  1.2968
  118OSM   C15F12486   6.955   2.564   9.040  0.2579  0.1028 -0.1119
  118OSM   H15F12487   6.981   2.659   9.090 -2.1566  0.1701  1.1681
  118OSM   H15G12488   6.907   2.592   8.944  0.0795 -1.8125 -0.6220
  118OSM   C16F12489   7.083   2.479   9.028  0.5241  0.4414  0.5244
  118OSM   H16F12490   7.115   2.462   9.134  1.7693 -2.4383 -0.2102
  118OSM   H16G12491   7.170   2.533   8.986  0.1600  1.0446  0.5298
  118OSM   C17F12492   7.063   2.335   8.968  0.3271  0.1929  0.2192
  118OSM   H17F12493   6.995   2.288   9.042  0.3466  0.9538  0.7301
  118OSM   H17G12494   7.164   2.289   8.968  0.1125 -0.6400 -3.8450
  118OSM   C18F12495   7.012   2.340   8.823  0.1580 -0.7027 -0.4058
  118OSM   H18F12496   7.012   2.240   8.776 -1.9344 -1.3661  0.9155
  118OSM   H18G12497   7.050   2.420   8.755  1.2234 -3.0413 -2.7359
  118OSM   H18H12498   6.903   2.360   8.825  0.3838  0.8357  2.5981
  119OSM      N12499   0.470   1.321  11.189 -0.2521 -0.1804  0.6454
  119OSM    C1512500   0.344   1.304  11.262  0.1184  0.4182 -0.2678
  119OSM   H15A12501   0.289   1.218  11.229 -0.1989  1.2279 -1.9424
  119OSM   H15B12502   0.279   1.390  11.254 -1.0925 -0.4869 -0.4082
  119OSM   H15C12503   0.362   1.281  11.366 -1.2326  1.2347  0.1692
  119OSM    C1412504   0.561   1.196  11.195  0.2566  0.0287 -0.3176
  119OSM   H14A12505   0.514   1.101  11.176  0.4131 -0.4139  1.3535
  119OSM   H14B12506   0.619   1.178  11.285 -0.8524 -1.9609  0.0679
  119OSM   H14C12507   0.634   1.205  11.116  0.7858  0.4297  0.2039
  119OSM    C1312508   0.448   1.338  11.038 -0.0098  0.8442 -0.5862
  119OSM   H13A12509   0.528   1.376  10.976  1.2238 -1.1169 -0.2765
  119OSM   H13B12510   0.373   1.415  11.029 -0.6758  0.2111 -0.5685
  119OSM   H13C12511   0.413   1.245  10.997  0.5277  0.6618 -0.6478
  119OSM    C1212512   0.555   1.442  11.236 -0.4131 -0.1120  0.2814
  119OSM   H12A12513   0.638   1.456  11.169  0.9385 -2.8332  1.2536
  119OSM   H12B12514   0.588   1.424  11.337  2.0653 -0.1477 -0.4725
  119OSM    C1112515   0.477   1.576  11.236 -0.1949 -0.8694  0.3151
  119OSM   H11A12516   0.530   1.664  11.278 -3.0962  1.1169  0.0911
  119OSM   H11B12517   0.392   1.556  11.304 -1.7766 -0.4377 -1.4370
  119OSM      P12518   0.515   1.713  11.023 -0.0558 -0.0282  0.5149
  119OSM    O1312519   0.521   1.848  11.081 -0.4793 -0.2742 -0.0747
  119OSM    O1412520   0.643   1.651  10.992 -0.7258 -0.6808 -0.7843
  119OSM    O1112521   0.430   1.728  10.888 -0.3052 -0.7166  0.3588
  119OSM    O1212522   0.423   1.617  11.107 -0.1572  0.2928  0.1459
  119OSM    C1S12523   0.443   1.616  10.792 -0.4874 -0.1571 -0.1170
  119OSM    H1S12524   0.394   1.533  10.848  1.3944 -0.1202  1.7086
  119OSM    H1T12525   0.548   1.590  10.769  0.1342  1.8687  0.2293
  119OSM     NF12526   0.334   1.548  10.562 -0.6044  0.0811 -0.2123
  119OSM    HNF12527   0.385   1.531  10.478 -0.9858  2.0024 -0.8727
  119OSM    C2S12528   0.385   1.655  10.648 -0.0011  0.6277  0.0880
  119OSM    H2S12529   0.292   1.709  10.675 -0.7683 -0.4533 -0.3370
  119OSM    C3S12530   0.478   1.763  10.582 -0.1152  0.0764  0.2099
  119OSM    H3S12531   0.570   1.712  10.547 -0.9239 -1.2052 -0.1309
  119OSM     O312532   0.520   1.865  10.669 -0.5422  0.1196 -0.7705
  119OSM    HO312533   0.468   1.842  10.747 -2.8718  0.0852 -2.2448
  119OSM    C4S12534   0.410   1.818  10.453  0.7182 -0.2415  0.4325
  119OSM    H4S12535   0.309   1.861  10.464  0.3315 -0.7837 -0.7825
  119OSM    C5S12536   0.457   1.824  10.330  0.1973 -0.1199  0.1732
  119OSM    H5S12537   0.558   1.794  10.296  0.7836 -1.0357  2.5229
  119OSM    C6S12538   0.373   1.890  10.223  0.2001  0.5851  0.2367
  119OSM    H6S12539   0.413   1.992  10.204  2.2747 -0.4875 -1.5026
  119OSM    H6T12540   0.269   1.911  10.258 -0.0043 -0.4039  0.2317
  119OSM    C7S12541   0.371   1.813  10.088 -0.2539  0.5233 -0.2529
  119OSM    H7S12542   0.344   1.706  10.104  1.3192  0.1814  0.2550
  119OSM    H7T12543   0.470   1.801  10.040 -0.2845 -0.2910 -0.1375
  119OSM    C8S12544   0.276   1.889   9.995  0.0074  0.3493 -0.4632
  119OSM    H8S12545   0.327   1.983   9.964 -1.9344  1.4976 -0.3395
  119OSM    H8T12546   0.181   1.916  10.045  0.1258  1.2835 -0.7182
  119OSM    C9S12547   0.246   1.799   9.863 -0.2401 -1.0166  0.6949
  119OSM    H9S12548   0.197   1.868   9.791  0.5276 -0.9071  0.2623
  119OSM    H9T12549   0.171   1.722   9.889 -0.5821 -1.2211 -0.8438
  119OSM   C10S12550   0.375   1.745   9.806 -0.4096  0.6036 -0.1299
  119OSM   H10S12551   0.417   1.664   9.870  0.2812  1.1109  0.0786
  119OSM   H10T12552   0.450   1.827   9.802 -1.0246  1.1958  0.1798
  119OSM   C11S12553   0.349   1.689   9.665 -0.6987 -0.3924 -0.5149
  119OSM   H11S12554   0.335   1.780   9.602  1.5685  1.6441  1.6659
  119OSM   H11T12555   0.247   1.646   9.667 -0.8982  0.0218 -1.2123
  119OSM   C12S12556   0.458   1.594   9.609 -0.1386  0.4393  0.0191
  119OSM   H12S12557   0.480   1.513   9.682  2.5356  2.1323  1.2370
  119OSM   H12T12558   0.551   1.650   9.584 -0.5699  0.9001 -0.5868
  119OSM   C13S12559   0.416   1.527   9.480  0.1365  0.3291 -0.4533
  119OSM   H13S12560   0.311   1.490   9.474  0.4233 -0.4355 -1.0590
  119OSM   H13T12561   0.484   1.441   9.462 -0.0490 -0.2516  1.3969
  119OSM   C14S12562   0.426   1.629   9.367 -0.0345 -0.7177  0.1705
  119OSM   H14S12563   0.527   1.677   9.366  0.7133 -2.2068 -1.5622
  119OSM   H14T12564   0.350   1.709   9.379  2.6086  2.1559 -0.8655
  119OSM   C15S12565   0.415   1.592   9.216 -0.0584  0.0959  0.3734
  119OSM   H15S12566   0.307   1.574   9.200  0.3357 -1.3450 -0.9968
  119OSM   H15T12567   0.468   1.495   9.202  2.0690  1.2103  0.3007
  119OSM   C16S12568   0.480   1.691   9.115  1.2050 -0.3148  0.3766
  119OSM   H16S12569   0.426   1.787   9.126 -0.1759 -1.1088  0.7743
  119OSM   H16T12570   0.453   1.633   9.025  0.2138  0.6479  0.0427
  119OSM   C17S12571   0.631   1.707   9.134 -0.4420  0.1874  1.1022
  119OSM   H17S12572   0.687   1.698   9.039 -0.2395  0.7039  1.1697
  119OSM   H17T12573   0.679   1.621   9.186  2.6543  0.8782 -0.3776
  119OSM   C18S12574   0.667   1.845   9.192  0.1453  0.5305  0.2814
  119OSM   H18S12575   0.616   1.924   9.132 -0.4732  2.1207  2.7345
  119OSM   H18T12576   0.776   1.866   9.204  0.2913 -0.1697  0.1842
  119OSM   H18U12577   0.620   1.851   9.293 -2.2364  0.5850 -0.7738
  119OSM    C1F12578   0.235   1.462  10.598  0.2588 -0.3046  0.1460
  119OSM     OF12579   0.174   1.483  10.703  0.3304 -0.3000 -0.0052
  119OSM    C2F12580   0.198   1.343  10.512  0.5538 -0.0283  0.3738
  119OSM    H2F12581   0.170   1.261  10.581  2.3798 -1.5387 -0.5877
  119OSM    H2G12582   0.265   1.303  10.433 -0.6385 -2.0963  0.3356
  119OSM    C3F12583   0.065   1.391  10.444  0.1120 -0.3464  0.4933
  119OSM    H3F12584  -0.015   1.415  10.517  0.8633 -0.0219  1.2253
  119OSM    H3G12585   0.026   1.301  10.393 -0.5250 -1.6333  3.1089
  119OSM    C4F12586   0.070   1.516  10.348  0.4392 -0.2837  0.0449
  119OSM    H4F12587   0.112   1.601  10.405 -1.2132  0.1876  0.5859
  119OSM    H4G12588  -0.032   1.535  10.309  0.1187 -1.5649  0.2114
  119OSM    C5F12589   0.172   1.494  10.228  0.1729  0.3132  0.1727
  119OSM    H5F12590   0.269   1.474  10.279  0.5647  0.5971 -0.4386
  119OSM    H5G12591   0.174   1.593  10.177 -0.2156  0.4476  0.4167
  119OSM    C6F12592   0.134   1.381  10.131 -0.0180 -0.0176 -0.5982
  119OSM    H6F12593   0.024   1.389  10.121  0.1827  1.7646 -1.6990
  119OSM    H6G12594   0.152   1.280  10.174 -0.6808 -0.4605 -1.3454
  119OSM    C7F12595   0.205   1.397   9.997 -0.1019 -0.6261 -0.6751
  119OSM    H7F12596   0.169   1.497   9.962  0.7116 -0.5738 -1.3935
  119OSM    H7G12597   0.163   1.322   9.927 -1.5400  2.1011 -2.9351
  119OSM    C8F12598   0.359   1.395  10.007 -0.4869 -0.2482  0.3780
  119OSM    H8F12599   0.410   1.476  10.063  1.4761 -0.8677 -0.4454
  119OSM    H8G12600   0.386   1.425   9.904  0.2584 -1.4523  0.2005
  119OSM    C9F12601   0.415   1.255  10.031 -0.2577  0.0138 -0.5787
  119OSM    H9F12602   0.375   1.214  10.125 -1.6793  0.6470 -0.8832
  119OSM   C10F12603   0.474   1.166   9.949  0.7161 -0.2212  0.0404
  119OSM   H10F12604   0.512   1.070   9.987  0.2706  0.0684  1.2574
  119OSM   C11F12605   0.505   1.188   9.800 -0.0809 -0.6861 -0.1809
  119OSM   H11F12606   0.595   1.129   9.772 -0.1246 -1.5473  1.3637
  119OSM   H11G12607   0.537   1.292   9.774 -1.3336 -0.4009 -0.6196
  119OSM   C12F12608   0.377   1.147   9.718  0.3153  0.3124 -0.3663
  119OSM   H12F12609   0.303   1.225   9.748  1.8897  1.4276  0.8530
  119OSM   H12G12610   0.333   1.049   9.743  1.5324 -0.2413 -0.3480
  119OSM   C13F12611   0.400   1.154   9.563 -0.1272  0.6354  0.2765
  119OSM   H13F12612   0.449   1.064   9.520 -2.0505 -0.9767  1.2914
  119OSM   H13G12613   0.470   1.236   9.536 -1.2544  2.2040  1.9680
  119OSM   C14F12614   0.281   1.175   9.470  0.0185 -0.2069 -0.3136
  119OSM   H14F12615   0.232   1.260   9.523 -0.9817 -0.1744 -1.2651
  119OSM   H14G12616   0.226   1.079   9.469  1.9385 -1.4074  1.0126
  119OSM   C15F12617   0.318   1.216   9.329 -0.0704  0.4952 -0.3940
  119OSM   H15F12618   0.353   1.322   9.324 -1.7177  1.1143  0.3504
  119OSM   H15G12619   0.229   1.219   9.262 -1.2445  2.8951  1.1242
  119OSM   C16F12620   0.426   1.129   9.267 -0.7899  0.3800  0.6834
  119OSM   H16F12621   0.414   1.026   9.307 -2.7941  0.0838 -0.5607
  119OSM   H16G12622   0.526   1.168   9.296 -1.0803  1.3086  0.4858
  119OSM   C17F12623   0.414   1.126   9.117  0.0919  0.0310  0.3989
  119OSM   H17F12624   0.314   1.078   9.107 -0.0312  0.3193  0.2372
  119OSM   H17G12625   0.476   1.050   9.065 -1.4117 -2.4651  1.9829
  119OSM   C18F12626   0.402   1.255   9.042 -0.0271  0.1849  0.3842
  119OSM   H18F12627   0.505   1.288   9.017  0.8872 -0.5812  2.8276
  119OSM   H18G12628   0.357   1.335   9.105  0.9324  0.6280  0.5297
  119OSM   H18H12629   0.346   1.239   8.948 -2.0827 -1.1457  1.7547
  120OSM      N12630   6.162   5.249  10.876  1.0182 -0.6677 -0.2612
  120OSM    C1512631   6.119   5.163  10.989 -0.1560  0.3035  0.3532
  120OSM   H15A12632   6.133   5.210  11.086 -3.2999 -1.1233  1.6285
  120OSM   H15B12633   6.161   5.064  10.987 -1.0120 -0.0764  0.8283
  120OSM   H15C12634   6.011   5.160  10.990 -0.1521 -0.9004  2.4424
  120OSM    C1412635   6.111   5.392  10.901  0.2236  0.1075  0.4730
  120OSM   H14A12636   6.135   5.454  10.817 -2.7464 -0.0360 -0.6022
  120OSM   H14B12637   6.160   5.437  10.986  1.0365  1.2784 -0.5873
  120OSM   H14C12638   6.005   5.398  10.919 -0.6194 -2.7938 -2.5452
  120OSM    C1312639   6.308   5.265  10.876 -0.3646 -0.3106 -0.1194
  120OSM   H13A12640   6.356   5.169  10.888 -3.2254 -1.7585  0.6625
  120OSM   H13B12641   6.341   5.324  10.961  1.8035 -0.9100 -0.4857
  120OSM   H13C12642   6.340   5.312  10.783  2.3980 -2.7016 -0.5207
  120OSM    C1212643   6.114   5.206  10.736 -0.4249  0.2166  0.1390
  120OSM   H12A12644   6.006   5.206  10.737 -0.4331 -0.7759 -0.0128
  120OSM   H12B12645   6.148   5.106  10.713  0.9618  0.4195  1.2173
  120OSM    C1112646   6.144   5.287  10.605  0.4402 -0.2254  0.6646
  120OSM   H11A12647   6.111   5.392  10.618  1.6634  0.1220  1.1027
  120OSM   H11B12648   6.083   5.242  10.523 -0.4528  1.9696  0.0656
  120OSM      P12649   6.360   5.177  10.520 -0.1544  0.0775  0.1904
  120OSM    O1312650   6.503   5.209  10.537  0.1074  0.1034  0.2146
  120OSM    O1412651   6.307   5.049  10.562 -0.2139 -0.5353  0.1283
  120OSM    O1112652   6.336   5.188  10.363  0.1944 -0.3356  0.7853
  120OSM    O1212653   6.284   5.295  10.582 -0.0920 -0.2323  0.7606
  120OSM    C1S12654   6.321   5.317  10.307 -0.6067 -0.0641  0.1072
  120OSM    H1S12655   6.349   5.406  10.368 -3.5063  2.6076 -2.1515
  120OSM    H1T12656   6.214   5.323  10.279 -0.8912 -2.3901  0.4456
  120OSM     NF12657   6.399   5.488  10.155 -0.0242 -0.5825  0.2150
  120OSM    HNF12658   6.319   5.532  10.116 -1.0665 -1.5018  1.2667
  120OSM    C2S12659   6.401   5.345  10.182 -0.1360  0.1264 -0.4316
  120OSM    H2S12660   6.507   5.319  10.199 -0.3694  0.8771  3.0692
  120OSM    C3S12661   6.346   5.263  10.070  0.4435 -0.2815 -0.2517
  120OSM    H3S12662   6.251   5.310  10.035  0.4878 -2.0354 -3.1188
  120OSM     O312663   6.310   5.127  10.104 -0.6841 -0.1921 -0.5538
  120OSM    HO312664   6.293   5.139  10.198  0.8272 -0.3676 -0.2344
  120OSM    C4S12665   6.428   5.269   9.942  0.3302  0.1988  0.4733
  120OSM    H4S12666   6.388   5.334   9.863  1.2279 -0.7086 -0.7870
  120OSM    C5S12667   6.532   5.193   9.907  0.0736  0.3361  0.3602
  120OSM    H5S12668   6.577   5.119   9.975  1.9434 -1.9011 -3.0607
  120OSM    C6S12669   6.602   5.201   9.777  0.0292  0.1994  0.0007
  120OSM    H6S12670   6.643   5.101   9.751  1.0967  0.6037  0.0482
  120OSM    H6T12671   6.692   5.267   9.778 -0.3270  0.6823  0.4651
  120OSM    C7S12672   6.517   5.249   9.653 -0.4084 -0.2149 -0.1255
  120OSM    H7S12673   6.494   5.355   9.675 -1.8001 -0.5875  0.2989
  120OSM    H7T12674   6.425   5.188   9.636 -0.0813 -0.6092 -0.5276
  120OSM    C8S12675   6.614   5.237   9.523 -1.1049 -0.1322 -0.6154
  120OSM    H8S12676   6.686   5.155   9.545 -0.4185  0.8071  0.7183
  120OSM    H8T12677   6.678   5.325   9.503 -2.9748  1.3614 -0.2317
  120OSM    C9S12678   6.534   5.204   9.404  0.2884 -0.1272  0.6653
  120OSM    H9S12679   6.470   5.292   9.381  1.1075  0.7628  1.6795
  120OSM    H9T12680   6.468   5.120   9.433 -0.4649  0.4251  0.5919
  120OSM   C10S12681   6.614   5.176   9.273 -0.6339  0.1975  0.0697
  120OSM   H10S12682   6.689   5.097   9.296 -2.4861 -1.9481 -0.9130
  120OSM   H10T12683   6.672   5.268   9.249  0.1136 -0.1612  0.4675
  120OSM   C11S12684   6.524   5.147   9.150 -0.0710  1.0007  0.2607
  120OSM   H11S12685   6.463   5.234   9.119 -0.0048  0.7569 -0.5635
  120OSM   H11T12686   6.448   5.067   9.162 -0.4905  1.5203  1.1608
  120OSM   C12S12687   6.596   5.101   9.019  0.6740  0.0813  0.5835
  120OSM   H12S12688   6.667   5.020   9.043  0.8340  0.4332  1.3234
  120OSM   H12T12689   6.657   5.180   8.971 -2.1612  1.3831 -1.1418
  120OSM   C13S12690   6.488   5.051   8.914  0.4256 -0.6771  0.0964
  120OSM   H13S12691   6.402   5.121   8.912  0.4169 -0.6346  1.2679
  120OSM   H13T12692   6.447   4.957   8.954 -0.4235 -0.6906 -0.7804
  120OSM   C14S12693   6.559   5.023   8.783 -0.1375  0.1449 -0.0945
  120OSM   H14S12694   6.633   4.942   8.803  0.0356 -1.0104 -4.3503
  120OSM   H14T12695   6.622   5.106   8.746  2.7765 -1.3889  1.1000
  120OSM   C15S12696   6.459   4.969   8.680 -0.8567 -0.0345  0.4906
  120OSM   H15S12697   6.398   5.056   8.645  2.2244  1.5409 -1.4699
  120OSM   H15T12698   6.397   4.889   8.726 -0.4846 -0.5542  0.0992
  120OSM   C16S12699   6.533   4.921   8.559 -0.4656  0.0238  0.2234
  120OSM   H16S12700   6.605   4.841   8.587 -1.3332 -0.3853  1.3685
  120OSM   H16T12701   6.601   4.997   8.516 -0.4013 -0.8398 -1.2920
  120OSM   C17S12702   6.450   4.869   8.445  0.2511  0.2773 -0.2316
  120OSM   H17S12703   6.369   4.944   8.429  0.6945  1.2336  1.6764
  120OSM   H17T12704   6.401   4.776   8.479  0.5255 -0.6824 -2.3143
  120OSM   C18S12705   6.532   4.827   8.318 -0.3421  0.0725 -0.8908
  120OSM   H18S12706   6.460   4.792   8.241  0.5897 -0.3271 -1.6016
  120OSM   H18T12707   6.596   4.741   8.345 -0.4840  0.0781 -0.5249
  120OSM   H18U12708   6.590   4.917   8.290 -2.0713  1.7180  0.4853
  120OSM    C1F12709   6.484   5.578  10.208  0.2982 -0.1024  0.7079
  120OSM     OF12710   6.574   5.541  10.287 -0.5273  0.1614  0.0979
  120OSM    C2F12711   6.463   5.719  10.172 -0.0698  0.1868  0.3161
  120OSM    H2F12712   6.455   5.778  10.266 -0.2190  1.7421 -0.6479
  120OSM    H2G12713   6.369   5.733  10.114  0.8230 -1.3855 -1.6421
  120OSM    C3F12714   6.588   5.770  10.096  0.5399  0.0751 -0.3589
  120OSM    H3F12715   6.667   5.772  10.174 -1.8922  1.8173  2.2604
  120OSM    H3G12716   6.567   5.871  10.056 -1.6933 -0.5201 -0.8359
  120OSM    C4F12717   6.624   5.683   9.968 -0.4420  0.3022 -0.0693
  120OSM    H4F12718   6.644   5.579  10.002 -2.3529  0.2280  0.9791
  120OSM    H4G12719   6.718   5.715   9.920 -0.1595  0.1009  0.3435
  120OSM    C5F12720   6.514   5.683   9.862  0.0913 -0.0983 -0.1004
  120OSM    H5F12721   6.465   5.782   9.849  0.2464  0.3081  2.1462
  120OSM    H5G12722   6.434   5.622   9.908  1.0266 -1.2972 -0.0171
  120OSM    C6F12723   6.556   5.628   9.727  0.5702 -0.2603 -0.4076
  120OSM    H6F12724   6.469   5.603   9.662 -0.1833  0.4163  0.3128
  120OSM    H6G12725   6.613   5.533   9.734  0.4598 -0.2097  1.5172
  120OSM    C7F12726   6.643   5.722   9.646 -0.2107  0.2184 -0.3268
  120OSM    H7F12727   6.748   5.705   9.678 -0.3816  0.9014  0.6374
  120OSM    H7G12728   6.620   5.828   9.671 -0.7462  0.0158  0.0592
  120OSM    C8F12729   6.643   5.701   9.492 -0.0904 -0.2667  0.3548
  120OSM    H8F12730   6.550   5.745   9.450  0.2827  1.5271  1.2932
  120OSM    H8G12731   6.646   5.591   9.475 -1.0522 -0.5602  1.7979
  120OSM    C9F12732   6.767   5.761   9.420 -0.7472  0.0028 -0.1341
  120OSM    H9F12733   6.816   5.848   9.467 -1.0285 -0.7934  1.7526
  120OSM   C10F12734   6.824   5.713   9.303 -0.5102  0.7307  0.2175
  120OSM   H10F12735   6.911   5.757   9.252 -0.2735 -0.5710 -0.5396
  120OSM   C11F12736   6.763   5.597   9.225  0.4225 -0.3733 -0.2757
  120OSM   H11F12737   6.652   5.586   9.228  0.2867 -0.3076 -2.8319
  120OSM   H11G12738   6.804   5.501   9.262  0.6439 -0.1558  0.0425
  120OSM   C12F12739   6.791   5.609   9.072  0.3195  0.5081 -0.1873
  120OSM   H12F12740   6.901   5.608   9.058  0.6057 -1.8970  1.6147
  120OSM   H12G12741   6.757   5.706   9.029 -0.9291 -0.2393 -0.9570
  120OSM   C13F12742   6.736   5.500   8.988 -0.3129  0.1917  0.7195
  120OSM   H13F12743   6.629   5.470   9.001 -0.6665  0.4221 -1.3208
  120OSM   H13G12744   6.800   5.411   9.003 -0.2137 -0.2854 -2.0391
  120OSM   C14F12745   6.747   5.521   8.832  0.4376 -0.5717  0.4067
  120OSM   H14F12746   6.846   5.568   8.814 -0.7338  3.4367  3.0567
  120OSM   H14G12747   6.678   5.604   8.807 -0.1333 -1.9416 -3.1758
  120OSM   C15F12748   6.729   5.402   8.744  0.1164 -0.1966 -0.3349
  120OSM   H15F12749   6.637   5.351   8.780  0.9738 -0.5521  1.4237
  120OSM   H15G12750   6.820   5.340   8.758 -0.2967 -1.1133 -1.5305
  120OSM   C16F12751   6.709   5.453   8.597  0.0990  0.1972 -0.5646
  120OSM   H16F12752   6.806   5.498   8.569  0.8693 -0.0305  1.5831
  120OSM   H16G12753   6.625   5.526   8.588  0.2728  0.5899  0.7616
  120OSM   C17F12754   6.692   5.324   8.509  0.1025 -0.0933  0.2324
  120OSM   H17F12755   6.606   5.279   8.563 -0.2214  1.7250  1.3303
  120OSM   H17G12756   6.782   5.260   8.521 -0.2979 -0.1337  4.6108
  120OSM   C18F12757   6.670   5.361   8.359  0.0101 -0.4837 -0.8894
  120OSM   H18F12758   6.578   5.421   8.342  0.2125  0.5530  1.3692
  120OSM   H18G12759   6.681   5.268   8.299  1.4632 -1.7409  1.1970
  120OSM   H18H12760   6.753   5.429   8.333 -0.2623  0.8711  1.4692
  121OSM      N12761   5.171   1.340  10.879 -0.0810  0.3987 -0.3105
  121OSM    C1512762   5.260   1.284  10.986  0.2843 -0.3287 -0.2957
  121OSM   H15A12763   5.213   1.206  11.043  1.8868  0.4630  2.2780
  121OSM   H15B12764   5.272   1.366  11.055 -2.8790 -1.2105  1.4845
  121OSM   H15C12765   5.357   1.257  10.947  1.3842  1.2353  1.1993
  121OSM    C1412766   5.155   1.236  10.770 -0.3980 -0.2260  0.6681
  121OSM   H14A12767   5.075   1.273  10.708 -0.7122 -2.0850 -0.1042
  121OSM   H14B12768   5.131   1.135  10.799  1.0542 -0.8919 -0.3137
  121OSM   H14C12769   5.246   1.234  10.712 -0.6045 -2.7860  0.3288
  121OSM    C1312770   5.037   1.372  10.937 -0.3680  0.1147  0.3342
  121OSM   H13A12771   5.017   1.282  10.994  1.2117 -0.1160  0.5758
  121OSM   H13B12772   4.964   1.399  10.863 -0.9162 -0.4944  0.6433
  121OSM   H13C12773   5.027   1.445  11.016 -3.5600  0.7387 -0.5118
  121OSM    C1212774   5.237   1.462  10.819 -0.2216 -0.0707 -0.6284
  121OSM   H12A12775   5.192   1.489  10.725 -2.3295 -1.4233 -0.0872
  121OSM   H12B12776   5.338   1.431  10.797  0.8500  0.7822  2.5463
  121OSM    C1112777   5.253   1.586  10.911 -0.5197  1.0235 -0.5363
  121OSM   H11A12778   5.147   1.617  10.923 -1.4937 -2.2589  0.1944
  121OSM   H11B12779   5.302   1.672  10.858  0.9809  0.5909  0.0839
  121OSM      P12780   5.482   1.556  11.046  0.2334 -0.0966 -0.1876
  121OSM    O1312781   5.511   1.676  11.127 -0.1349  0.2041  0.1558
  121OSM    O1412782   5.522   1.430  11.105  0.0991 -0.4492  0.0238
  121OSM    O1112783   5.533   1.566  10.892 -0.1681  0.0921  0.2066
  121OSM    O1212784   5.321   1.548  11.033  0.2855 -0.1082 -0.2322
  121OSM    C1S12785   5.574   1.437  10.837 -0.3504 -0.5701 -0.0437
  121OSM    H1S12786   5.497   1.358  10.843  0.2319 -1.1532 -0.1150
  121OSM    H1T12787   5.659   1.399  10.898 -1.6076 -2.6646  0.4873
  121OSM     NF12788   5.677   1.319  10.643 -0.3440  0.1617  0.4018
  121OSM    HNF12789   5.774   1.299  10.652 -0.6489 -1.1514  0.9009
  121OSM    C2S12790   5.641   1.450  10.686 -0.4553 -0.2010 -0.1370
  121OSM    H2S12791   5.562   1.485  10.617  1.9438  1.2057 -2.3232
  121OSM    C3S12792   5.758   1.551  10.689  0.5684  0.1275  0.1652
  121OSM    H3S12793   5.842   1.504  10.745  0.1052  0.2921  1.0242
  121OSM     O312794   5.731   1.675  10.759  0.5712 -0.0410  0.1543
  121OSM    HO312795   5.648   1.656  10.804  1.0773  0.3136  1.2903
  121OSM    C4S12796   5.807   1.576  10.544  0.6575 -0.6065 -0.2719
  121OSM    H4S12797   5.730   1.583  10.465 -0.9437 -2.5538  1.0350
  121OSM    C5S12798   5.940   1.564  10.509 -0.5452  0.5674 -0.7830
  121OSM    H5S12799   6.014   1.548  10.589 -2.4041  0.8630  1.0805
  121OSM    C6S12800   6.010   1.584  10.375  0.5809 -0.4550 -0.6780
  121OSM    H6S12801   6.087   1.510  10.345 -0.4383 -0.5635 -3.1936
  121OSM    H6T12802   6.068   1.678  10.391  1.3602 -1.3824  2.8153
  121OSM    C7S12803   5.934   1.616  10.243 -0.2088 -0.6522 -0.5179
  121OSM    H7S12804   5.863   1.699  10.265  3.0342  2.0546  0.5696
  121OSM    H7T12805   5.862   1.531  10.231 -1.6870  0.2335  1.4712
  121OSM    C8S12806   6.022   1.660  10.131 -0.0366 -0.0159 -0.3257
  121OSM    H8S12807   6.086   1.570  10.118  0.7730  0.5385 -0.2601
  121OSM    H8T12808   6.084   1.747  10.159 -1.4729  1.0586 -0.3740
  121OSM    C9S12809   5.954   1.682  10.004  0.2480 -0.0770 -0.1679
  121OSM    H9S12810   5.891   1.774  10.007 -0.9990 -0.9203  0.1523
  121OSM    H9T12811   5.892   1.592   9.985  1.2476  0.0420 -5.4073
  121OSM   C10S12812   6.047   1.687   9.884 -0.4539  0.2544  0.2574
  121OSM   H10S12813   6.133   1.616   9.882  0.3023  0.9656 -4.3482
  121OSM   H10T12814   6.102   1.782   9.895 -0.6241  0.3547  0.2468
  121OSM   C11S12815   5.977   1.691   9.749  0.1350 -0.0414  0.4471
  121OSM   H11S12816   5.879   1.741   9.766  0.2942  0.0149  1.2495
  121OSM   H11T12817   5.959   1.584   9.726 -1.4309  0.0027  1.3045
  121OSM   C12S12818   6.043   1.761   9.627 -0.1898 -0.1703 -0.3586
  121OSM   H12S12819   6.144   1.730   9.593 -0.5961  0.7488 -2.6114
  121OSM   H12T12820   6.058   1.868   9.653  2.1505 -0.7606  1.0146
  121OSM   C13S12821   5.950   1.743   9.504  0.2599 -0.1892 -1.0432
  121OSM   H13S12822   5.849   1.782   9.527 -1.2517 -2.4222 -3.2901
  121OSM   H13T12823   5.948   1.634   9.480 -0.1580 -0.1353 -1.2651
  121OSM   C14S12824   5.997   1.814   9.370  0.1677  0.0255 -0.4772
  121OSM   H14S12825   6.104   1.785   9.365  1.1140  3.2999 -1.4511
  121OSM   H14T12826   5.995   1.923   9.390 -0.1368 -0.1500  0.4921
  121OSM   C15S12827   5.918   1.765   9.252  0.0357 -0.0486 -0.0326
  121OSM   H15S12828   5.844   1.845   9.229  0.2532  0.5484  1.2487
  121OSM   H15T12829   5.855   1.675   9.268  1.0771 -0.6828  0.5973
  121OSM   C16S12830   6.012   1.737   9.136 -0.0286  0.3932  0.1962
  121OSM   H16S12831   6.067   1.641   9.147  0.7076  0.9051  1.1446
  121OSM   H16T12832   6.089   1.814   9.117  1.8859 -0.6293  3.0978
  121OSM   C17S12833   5.931   1.720   9.007 -0.2491 -0.2316 -0.8700
  121OSM   H17S12834   5.848   1.792   8.991  0.6995  0.5672 -2.5436
  121OSM   H17T12835   5.890   1.616   9.000 -0.4867 -0.0942 -1.6299
  121OSM   C18S12836   6.023   1.735   8.887 -0.1041  0.1877  0.1944
  121OSM   H18S12837   5.964   1.735   8.794 -0.3335  0.3065  0.3381
  121OSM   H18T12838   6.094   1.651   8.866 -0.3872 -0.7146  2.5069
  121OSM   H18U12839   6.069   1.836   8.891  0.3596 -0.0421  1.9933
  121OSM    C1F12840   5.601   1.218  10.610  0.6648  0.3969  0.8012
  121OSM     OF12841   5.479   1.239  10.609  0.0394  0.2680 -0.2200
  121OSM    C2F12842   5.662   1.092  10.561 -0.7088 -0.0973 -0.0765
  121OSM    H2F12843   5.722   1.043  10.640  1.7815 -0.7291 -2.2211
  121OSM    H2G12844   5.746   1.121  10.494  0.4518  0.2644  1.4871
  121OSM    C3F12845   5.560   1.003  10.488  0.4053  0.3337 -0.4508
  121OSM    H3F12846   5.481   0.976  10.562  2.0573 -0.6244  1.0406
  121OSM    H3G12847   5.610   0.907  10.464 -0.2787 -0.1656  0.0645
  121OSM    C4F12848   5.516   1.064  10.356  0.5730  0.7080  0.0545
  121OSM    H4F12849   5.441   1.141  10.385 -0.8421 -0.9472  1.0501
  121OSM    H4G12850   5.455   0.983  10.310 -1.4830  1.3713  1.4489
  121OSM    C5F12851   5.618   1.113  10.267  0.6424  0.3173 -0.1688
  121OSM    H5F12852   5.687   1.029  10.244  0.6955 -0.4499  2.4253
  121OSM    H5G12853   5.687   1.186  10.315 -0.6787  1.9439 -0.6376
  121OSM    C6F12854   5.562   1.182  10.143  1.0927 -0.0350  0.1845
  121OSM    H6F12855   5.501   1.269  10.175  0.9653  0.0349 -0.2436
  121OSM    H6G12856   5.486   1.106  10.113  1.2463 -0.2933  0.4427
  121OSM    C7F12857   5.656   1.216  10.027 -0.4465  0.1290 -0.6601
  121OSM    H7F12858   5.717   1.131   9.992  0.1554  0.8361 -1.3697
  121OSM    H7G12859   5.737   1.276  10.074  2.3806 -0.9205 -3.8284
  121OSM    C8F12860   5.590   1.291   9.908  0.1618  0.6889  0.0012
  121OSM    H8F12861   5.506   1.355   9.942  0.3373  1.4713 -0.9851
  121OSM    H8G12862   5.536   1.214   9.850 -1.9741  0.3238  2.2955
  121OSM    C9F12863   5.696   1.370   9.842 -0.1384 -0.2807  0.0939
  121OSM    H9F12864   5.789   1.377   9.900  0.4980  0.7664 -1.0006
  121OSM   C10F12865   5.683   1.425   9.719 -0.1685 -0.2637  0.0228
  121OSM   H10F12866   5.773   1.472   9.677  1.0400 -2.5917 -0.1002
  121OSM   C11F12867   5.562   1.429   9.638  0.3803  0.7032 -0.2581
  121OSM   H11F12868   5.545   1.532   9.601 -1.7906  0.8002  0.8956
  121OSM   H11G12869   5.469   1.394   9.687 -0.2699 -0.2558 -2.0633
  121OSM   C12F12870   5.585   1.335   9.519 -0.1521  0.4646  0.3231
  121OSM   H12F12871   5.497   1.324   9.452 -0.8121  0.3963  1.1922
  121OSM   H12G12872   5.607   1.230   9.545  0.5408  0.0594 -1.6881
  121OSM   C13F12873   5.691   1.372   9.419 -0.1306 -0.3532  0.2885
  121OSM   H13F12874   5.796   1.348   9.446 -0.7629 -1.1353  2.2544
  121OSM   H13G12875   5.708   1.482   9.426 -1.8072 -0.0949  0.7724
  121OSM   C14F12876   5.679   1.341   9.264  0.0610 -0.2377  0.0274
  121OSM   H14F12877   5.647   1.235   9.262 -1.4686  0.2124 -1.0989
  121OSM   H14G12878   5.778   1.353   9.215 -0.3671  1.4859 -0.4532
  121OSM   C15F12879   5.580   1.431   9.185 -0.2047 -0.0195  0.1909
  121OSM   H15F12880   5.619   1.535   9.192 -0.5332  0.0565  1.0871
  121OSM   H15G12881   5.483   1.430   9.239  0.7104 -0.0997  1.9222
  121OSM   C16F12882   5.575   1.388   9.039 -0.1118  0.6372 -0.5375
  121OSM   H16F12883   5.589   1.279   9.027 -0.2847  0.4667  0.7775
  121OSM   H16G12884   5.655   1.448   8.989  0.7383  1.0441  1.2492
  121OSM   C17F12885   5.442   1.424   8.968 -0.7272  0.6018 -0.6287
  121OSM   H17F12886   5.422   1.533   8.980 -0.3133  0.7006 -0.8337
  121OSM   H17G12887   5.354   1.366   9.003 -0.0124  0.1118  0.3939
  121OSM   C18F12888   5.451   1.398   8.812 -0.0382 -0.0692 -0.2892
  121OSM   H18F12889   5.359   1.433   8.760 -0.3438  0.5395  0.6336
  121OSM   H18G12890   5.475   1.290   8.796  0.0934 -0.3078  1.2672
  121OSM   H18H12891   5.528   1.461   8.764  0.7723  1.1511  2.4283
  122OSM      N12892   6.190   0.207  10.906 -0.5571 -0.2653 -0.1710
  122OSM    C1512893   6.066   0.294  10.926  0.2512  0.6384 -0.5199
  122OSM   H15A12894   5.989   0.221  10.947 -0.9304  1.3344 -2.2259
  122OSM   H15B12895   6.056   0.354  10.837  0.2430  2.9895  0.9599
  122OSM   H15C12896   6.079   0.367  11.005  1.1985  0.3084 -0.3666
  122OSM    C1412897   6.309   0.292  10.897  0.4656 -0.1236 -0.2379
  122OSM   H14A12898   6.387   0.221  10.876  0.1646 -1.2043  2.0374
  122OSM   H14B12899   6.334   0.343  10.989 -0.7552  0.1093 -0.0165
  122OSM   H14C12900   6.287   0.364  10.819  0.2677 -0.9392 -0.9569
  122OSM    C1312901   6.206   0.129  11.033 -0.2220 -0.4153  0.1108
  122OSM   H13A12902   6.113   0.080  11.057  0.8262 -3.1964 -1.0739
  122OSM   H13B12903   6.236   0.189  11.118  0.6081 -0.2897 -0.2554
  122OSM   H13C12904   6.277   0.048  11.024  0.8528  0.4833  0.2598
  122OSM    C1212905   6.173   0.126  10.788  0.6438  0.0569  0.0884
  122OSM   H12A12906   6.129   0.177  10.703 -2.2287 -0.8290  0.9238
  122OSM   H12B12907   6.103   0.045  10.806  0.8958  0.1714  1.6433
  122OSM    C1112908   6.298   0.033  10.747 -0.5993  0.5363  0.4511
  122OSM   H11A12909   6.388   0.097  10.738 -0.9753  0.7432 -2.7091
  122OSM   H11B12910   6.281  -0.015  10.649  0.4144  0.4962  0.2917
  122OSM      P12911   6.241  -0.195  10.858  0.3113 -0.0524 -0.0047
  122OSM    O1312912   6.307  -0.307  10.932 -0.0552  0.0674  0.3203
  122OSM    O1412913   6.104  -0.153  10.904 -0.2323 -0.1805  0.4590
  122OSM    O1112914   6.224  -0.244  10.706  0.1362 -0.1731  0.2014
  122OSM    O1212915   6.330  -0.069  10.840 -0.3348 -0.2329 -0.0935
  122OSM    C1S12916   6.317  -0.346  10.662 -0.0213  0.8060  0.0939
  122OSM    H1S12917   6.310  -0.434  10.729 -0.7253  0.0579 -0.9474
  122OSM    H1T12918   6.422  -0.310  10.663 -0.0739  0.9983 -0.8209
  122OSM     NF12919   6.433  -0.456  10.458 -0.3011 -0.2355  0.5152
  122OSM    HNF12920   6.474  -0.403  10.384  2.1216 -1.7124  0.6851
  122OSM    C2S12921   6.296  -0.397  10.513  0.7649 -0.1781  0.6437
  122OSM    H2S12922   6.231  -0.487  10.504  0.5886  0.0821 -1.1389
  122OSM    C3S12923   6.237  -0.288  10.428 -0.3117 -0.0868 -0.2971
  122OSM    H3S12924   6.303  -0.203  10.454  0.0630 -0.7773  1.1143
  122OSM     O312925   6.111  -0.234  10.459 -0.3422 -0.3353  0.2088
  122OSM    HO312926   6.080  -0.275  10.540 -1.0750  2.0018  1.1893
  122OSM    C4S12927   6.247  -0.310  10.277 -0.3219 -1.4760  0.4710
  122OSM    H4S12928   6.207  -0.405  10.236 -0.2477 -2.6991  3.0208
  122OSM    C5S12929   6.286  -0.206  10.193 -0.1034  0.0702  0.3923
  122OSM    H5S12930   6.320  -0.110  10.235  0.0747  0.5645 -0.8413
  122OSM    C6S12931   6.288  -0.211  10.045  0.2398  0.8439  0.1386
  122OSM    H6S12932   6.333  -0.306  10.007  0.0496 -0.0263  1.9816
  122OSM    H6T12933   6.337  -0.127   9.991  0.5559 -0.3918 -1.5820
  122OSM    C7S12934   6.149  -0.209   9.974 -0.3803 -0.7020 -0.3394
  122OSM    H7S12935   6.102  -0.310   9.972 -0.1899 -0.8062  0.1399
  122OSM    H7T12936   6.158  -0.169   9.871 -0.1673 -0.3831 -0.1953
  122OSM    C8S12937   6.063  -0.099  10.029  0.5577  0.5570 -0.3322
  122OSM    H8S12938   6.040  -0.116  10.136 -2.0696 -0.1166 -0.9398
  122OSM    H8T12939   5.964  -0.104   9.980  1.0512 -1.4183 -1.2539
  122OSM    C9S12940   6.100   0.049  10.011  0.0198 -0.1372 -0.4865
  122OSM    H9S12941   6.194   0.073  10.064 -0.6922 -1.3167  1.4195
  122OSM    H9T12942   6.021   0.100  10.071  0.0370 -2.0162  1.2121
  122OSM   C10S12943   6.093   0.093   9.864  0.2974  0.0715  0.5264
  122OSM   H10S12944   6.003   0.055   9.812  1.7563  0.3635 -2.4933
  122OSM   H10T12945   6.183   0.049   9.815  0.3121  0.5438  0.1205
  122OSM   C11S12946   6.116   0.240   9.843 -0.1430 -0.3584 -0.0270
  122OSM   H11S12947   6.212   0.270   9.890  0.5865  0.5356 -1.9635
  122OSM   H11T12948   6.038   0.295   9.900  1.9435 -0.0676  2.7981
  122OSM   C12S12949   6.125   0.298   9.701 -0.0186 -0.2391  0.4832
  122OSM   H12S12950   6.191   0.228   9.644 -0.4118  0.6360 -1.0924
  122OSM   H12T12951   6.168   0.400   9.695  0.3274 -0.4502 -1.0725
  122OSM   C13S12952   5.995   0.298   9.629 -0.6577 -0.4215 -0.0930
  122OSM   H13S12953   5.924   0.377   9.660 -0.1225  0.4883 -1.1365
  122OSM   H13T12954   5.942   0.204   9.656  0.0968 -1.0287 -0.6879
  122OSM   C14S12955   5.994   0.292   9.473 -0.0586 -0.0404 -0.7982
  122OSM   H14S12956   5.892   0.275   9.433 -0.2500  1.5625 -1.0627
  122OSM   H14T12957   6.071   0.218   9.441 -0.8905 -1.6511  0.8209
  122OSM   C15S12958   6.040   0.428   9.417 -0.3264 -0.3772  0.0765
  122OSM   H15S12959   6.133   0.464   9.467 -1.5661  0.2441  2.0499
  122OSM   H15T12960   5.953   0.491   9.445 -0.4627 -0.3097 -0.4931
  122OSM   C16S12961   6.059   0.444   9.270  0.1833 -0.1666  0.0752
  122OSM   H16S12962   5.964   0.424   9.217 -0.6480  0.2756  1.3395
  122OSM   H16T12963   6.121   0.360   9.233 -1.3642 -0.3706 -2.2292
  122OSM   C17S12964   6.107   0.579   9.218  0.1258  0.0885  0.2751
  122OSM   H17S12965   6.201   0.607   9.270  1.2075  0.6398 -1.8689
  122OSM   H17T12966   6.033   0.659   9.241  0.0091 -0.0171  0.2744
  122OSM   C18S12967   6.141   0.574   9.070  0.6887  0.1933  0.5186
  122OSM   H18S12968   6.066   0.521   9.007  1.2548  0.5333 -0.4764
  122OSM   H18T12969   6.245   0.535   9.062  0.1109 -1.0732 -1.9106
  122OSM   H18U12970   6.153   0.677   9.030  1.9768  0.3455  1.2614
  122OSM    C1F12971   6.512  -0.545  10.512 -0.1801  0.0057 -0.1920
  122OSM     OF12972   6.482  -0.596  10.620 -0.3938  0.2154  0.1246
  122OSM    C2F12973   6.641  -0.569  10.448  0.3795 -0.6968 -0.1529
  122OSM    H2F12974   6.713  -0.593  10.529  1.4979  0.1741 -0.8689
  122OSM    H2G12975   6.678  -0.477  10.397 -0.2868 -0.8373 -0.9138
  122OSM    C3F12976   6.629  -0.675  10.342  0.5481  0.2013 -0.3254
  122OSM    H3F12977   6.599  -0.629  10.246 -2.5945 -0.6720  0.1194
  122OSM    H3G12978   6.561  -0.761  10.361  1.9714 -1.3462 -1.8635
  122OSM    C4F12979   6.762  -0.744  10.308 -1.0306  0.3098 -0.2841
  122OSM    H4F12980   6.758  -0.807  10.217  0.0122  0.7434 -0.6495
  122OSM    H4G12981   6.799  -0.810  10.389  2.0184 -0.0217 -1.8009
  122OSM    C5F12982   6.885  -0.651  10.288 -0.2607 -0.5400 -0.1437
  122OSM    H5F12983   6.975  -0.714  10.305  0.0564 -0.1112 -0.1799
  122OSM    H5G12984   6.880  -0.571  10.366  0.0580  0.5681 -1.2277
  122OSM    C6F12985   6.900  -0.588  10.150  0.0008 -1.0883 -0.0199
  122OSM    H6F12986   6.983  -0.516  10.168 -0.1226 -1.1416  0.7913
  122OSM    H6G12987   6.815  -0.527  10.114  0.5767 -0.2805 -0.0512
  122OSM    C7F12988   6.951  -0.687  10.050  0.0015  0.1988 -0.6099
  122OSM    H7F12989   6.990  -0.775  10.106 -0.8717 -0.1707 -0.5792
  122OSM    H7G12990   7.033  -0.631   9.999  0.4887  2.0511  1.9867
  122OSM    C8F12991   6.833  -0.719   9.944  0.0493  0.4445 -0.3433
  122OSM    H8F12992   6.795  -0.620   9.911 -0.4142  1.2152  2.2160
  122OSM    H8G12993   6.753  -0.758  10.011  0.8616 -1.3283 -0.3472
  122OSM    C9F12994   6.869  -0.810   9.833  0.1784  0.3466 -0.5149
  122OSM    H9F12995   6.894  -0.915   9.854 -1.2292  0.2762  0.9591
  122OSM   C10F12996   6.881  -0.774   9.704 -0.4814 -0.4724  0.2490
  122OSM   H10F12997   6.913  -0.844   9.625 -1.4349 -0.7045  0.0431
  122OSM   C11F12998   6.879  -0.629   9.657 -0.1186 -0.0230  0.1269
  122OSM   H11F12999   6.906  -0.567   9.746  0.7826 -0.2363  0.0160
  122OSM   H11G13000   6.782  -0.591   9.620 -0.4880  0.1001  1.1907
  122OSM   C12F13001   6.989  -0.598   9.556 -0.3718 -0.0803  0.6483
  122OSM   H12F13002   7.089  -0.625   9.597 -0.0706 -2.2645 -1.2948
  122OSM   H12G13003   6.987  -0.489   9.536 -2.7427 -0.2353 -0.3162
  122OSM   C13F13004   6.972  -0.683   9.425 -0.8426  0.1451  0.3634
  122OSM   H13F13005   6.869  -0.659   9.390 -0.8809  1.6887  1.4661
  122OSM   H13G13006   6.972  -0.794   9.437  0.8830  0.0420 -0.3788
  122OSM   C14F13007   7.064  -0.645   9.308  0.4458 -0.1031 -0.8426
  122OSM   H14F13008   7.170  -0.648   9.339  0.9431  3.2109 -1.8387
  122OSM   H14G13009   7.038  -0.539   9.286 -2.9476 -0.8583 -1.1062
  122OSM   C15F13010   7.043  -0.737   9.178 -0.0880 -0.1835  0.7174
  122OSM   H15F13011   7.066  -0.843   9.204 -0.4926 -0.5570 -0.3818
  122OSM   H15G13012   7.115  -0.706   9.099 -0.2200  0.6916  0.9389
  122OSM   C16F13013   6.907  -0.724   9.108  0.2779  0.6400 -0.9305
  122OSM   H16F13014   6.846  -0.706   9.199  1.2862 -0.0942 -0.0815
  122OSM   H16G13015   6.882  -0.826   9.070 -1.5355  1.4028 -1.9122
  122OSM   C17F13016   6.903  -0.622   9.000  0.3839  0.2172  0.6042
  122OSM   H17F13017   6.983  -0.634   8.925 -0.8373 -0.1705 -0.6943
  122OSM   H17G13018   6.925  -0.525   9.050  2.4132 -1.1168  2.4475
  122OSM   C18F13019   6.768  -0.615   8.930  0.1809  0.1264 -0.2926
  122OSM   H18F13020   6.763  -0.549   8.840 -2.7803 -0.2950 -0.5368
  122OSM   H18G13021   6.689  -0.576   8.998  0.9765  3.5389 -1.1367
  122OSM   H18H13022   6.737  -0.717   8.898  0.7164  0.0236 -0.4882
  123OSM      N13023   3.479   4.586   6.181 -0.0950 -0.4303  0.4997
  123OSM    C1513024   3.461   4.486   6.291  0.0158  0.4162 -0.0763
  123OSM   H15A13025   3.503   4.391   6.261  1.2916  0.7505  0.5958
  123OSM   H15B13026   3.357   4.464   6.310 -0.3049  2.6273  1.1177
  123OSM   H15C13027   3.505   4.516   6.385 -1.1546  1.5711  0.1304
  123OSM    C1413028   3.429   4.524   6.056 -0.6378  0.6534 -0.2902
  123OSM   H14A13029   3.476   4.427   6.047  0.7988  1.3052 -0.1315
  123OSM   H14B13030   3.459   4.589   5.975 -0.2807  0.3817 -0.3785
  123OSM   H14C13031   3.321   4.527   6.055 -0.6242  1.2464 -0.5282
  123OSM    C1313032   3.399   4.702   6.215  0.7801 -0.7551  0.6319
  123OSM   H13A13033   3.405   4.768   6.130 -0.3631 -0.1798  0.9821
  123OSM   H13B13034   3.441   4.759   6.297 -1.1092  0.3886  0.8598
  123OSM   H13C13035   3.298   4.676   6.243  0.0326  1.7441  0.5005
  123OSM    C1213036   3.627   4.629   6.166 -0.0240 -0.1073  0.0449
  123OSM   H12A13037   3.696   4.546   6.162 -0.6451 -0.6452  0.4162
  123OSM   H12B13038   3.660   4.692   6.247 -0.5980  1.1335 -0.6586
  123OSM    C1113039   3.665   4.712   6.041  0.6735  0.8251 -0.4913
  123OSM   H11A13040   3.669   4.645   5.952 -0.8775  0.1017 -0.0488
  123OSM   H11B13041   3.773   4.733   6.060  0.2497  2.2150  0.5343
  123OSM      P13042   3.673   4.965   5.983  0.0943  0.5618 -0.1771
  123OSM    O1313043   3.785   4.923   5.894 -0.5111 -0.1990 -0.3096
  123OSM    O1413044   3.586   5.070   5.928 -0.1650  0.0955  0.6349
  123OSM    O1113045   3.722   5.006   6.127 -0.5476 -0.2632  0.0472
  123OSM    O1213046   3.586   4.831   6.021 -0.2863  0.0161 -0.3390
  123OSM    C1S13047   3.626   5.016   6.234 -0.3263  0.4242 -0.0777
  123OSM    H1S13048   3.548   4.937   6.228 -0.2247  0.3120  0.0666
  123OSM    H1T13049   3.573   5.112   6.222 -0.9010 -0.0976 -1.9448
  123OSM     NF13050   3.577   5.058   6.478  0.2062 -0.5785  0.0013
  123OSM    HNF13051   3.580   5.148   6.520 -1.1397 -1.6870  2.6936
  123OSM    C2S13052   3.679   5.020   6.381 -0.2000  0.2037 -0.0707
  123OSM    H2S13053   3.707   4.915   6.405 -0.6994 -0.4521 -2.1240
  123OSM    C3S13054   3.798   5.120   6.391 -0.2335 -0.3949  0.0072
  123OSM    H3S13055   3.746   5.217   6.370 -0.4738  0.2922  3.2577
  123OSM     O313056   3.903   5.112   6.298  0.2626  0.2564 -0.6158
  123OSM    HO313057   3.866   5.049   6.235 -1.4913 -1.5890  2.0348
  123OSM    C4S13058   3.872   5.107   6.517  0.4577  0.1485  0.1053
  123OSM    H4S13059   3.952   5.032   6.504  0.8484  0.3023  1.4873
  123OSM    C5S13060   3.854   5.182   6.629 -0.5058 -0.1878  0.1016
  123OSM    H5S13061   3.784   5.267   6.624 -0.6340 -0.3385 -1.0292
  123OSM    C6S13062   3.961   5.176   6.732  0.0772 -0.4299  0.1426
  123OSM    H6S13063   3.918   5.221   6.824  1.7647  0.1196  0.7002
  123OSM    H6T13064   4.047   5.238   6.699  0.7674 -0.7114  1.3490
  123OSM    C7S13065   4.029   5.038   6.772  0.2104  0.5041 -1.1088
  123OSM    H7S13066   4.091   5.000   6.688  2.1412  1.0064  0.0175
  123OSM    H7T13067   3.945   4.969   6.793 -1.3718  2.1779 -1.6313
  123OSM    C8S13068   4.115   5.043   6.906  0.6687 -0.8116  0.6001
  123OSM    H8S13069   4.206   5.099   6.875 -0.2779 -0.7607 -2.4300
  123OSM    H8T13070   4.132   4.940   6.943 -0.3277 -1.2818 -0.2041
  123OSM    C9S13071   4.050   5.112   7.028  0.0189 -0.2407  0.5314
  123OSM    H9S13072   3.957   5.057   7.056 -1.3083  2.3940  1.6771
  123OSM    H9T13073   4.031   5.219   7.007  2.9062  0.1464 -0.4786
  123OSM   C10S13074   4.135   5.110   7.150  0.2115 -0.1699  0.1540
  123OSM   H10S13075   4.240   5.143   7.132  0.8439 -1.8533  0.5296
  123OSM   H10T13076   4.137   5.010   7.198 -2.4533 -0.1394  0.4694
  123OSM   C11S13077   4.080   5.197   7.265 -0.7927  0.3341  0.4336
  123OSM   H11S13078   3.971   5.178   7.279 -0.8230 -0.1964 -0.4179
  123OSM   H11T13079   4.081   5.302   7.230  1.3604  0.5836  1.1158
  123OSM   C12S13080   4.158   5.167   7.397 -0.5437  0.4169 -0.0533
  123OSM   H12S13081   4.181   5.258   7.457  0.7115  0.8437 -1.1182
  123OSM   H12T13082   4.257   5.131   7.360 -0.0019  0.4676  1.2634
  123OSM   C13S13083   4.091   5.060   7.486  0.3359  0.8945  0.0500
  123OSM   H13S13084   4.113   4.955   7.460 -1.2470  0.6119 -0.2633
  123OSM   H13T13085   3.982   5.075   7.473  0.1105  0.2519  1.0510
  123OSM   C14S13086   4.122   5.080   7.639  0.5056  0.3832  0.1052
  123OSM   H14S13087   4.028   5.077   7.698  0.5112 -0.4908  0.0786
  123OSM   H14T13088   4.161   5.183   7.652  0.7549  0.2795  0.1945
  123OSM   C15S13089   4.228   4.975   7.693  0.3699  0.0650  0.4329
  123OSM   H15S13090   4.321   4.995   7.635 -0.5121  1.0957 -0.6687
  123OSM   H15T13091   4.190   4.873   7.670  2.9044 -0.9228  0.3626
  123OSM   C16S13092   4.257   4.993   7.843  0.1658 -0.5592  0.1143
  123OSM   H16S13093   4.290   4.892   7.874 -2.3595 -1.5388 -0.1341
  123OSM   H16T13094   4.158   5.020   7.885 -0.1763  0.5490 -1.3168
  123OSM   C17S13095   4.352   5.113   7.869 -0.0398 -0.4306 -0.3322
  123OSM   H17S13096   4.302   5.212   7.879  0.4547 -0.3357  1.6049
  123OSM   H17T13097   4.429   5.126   7.790  0.5552 -1.0712  0.1205
  123OSM   C18S13098   4.428   5.092   8.000 -0.1723  0.3174 -0.2857
  123OSM   H18S13099   4.472   5.187   8.037  1.5541 -0.6115  0.1626
  123OSM   H18T13100   4.510   5.020   7.978 -0.1177  0.2362  0.1804
  123OSM   H18U13101   4.360   5.051   8.078  0.4626 -2.1365 -0.9308
  123OSM    C1F13102   3.465   4.984   6.503 -1.0169 -1.1019  0.4560
  123OSM     OF13103   3.443   4.867   6.469 -0.1693  0.0607 -0.0707
  123OSM    C2F13104   3.366   5.059   6.578  0.6883 -0.5622 -0.4633
  123OSM    H2F13105   3.273   5.071   6.520  1.2845 -0.2391 -1.3726
  123OSM    H2G13106   3.396   5.162   6.605 -0.8946 -0.4843  1.2483
  123OSM    C3F13107   3.334   4.991   6.713 -0.9625  0.4080  0.4641
  123OSM    H3F13108   3.301   4.890   6.681 -1.5996  1.1581 -1.4036
  123OSM    H3G13109   3.246   5.035   6.765  0.2069  1.5308  1.5724
  123OSM    C4F13110   3.458   4.979   6.811 -0.1364  0.1443  0.1579
  123OSM    H4F13111   3.527   4.913   6.755 -1.0795 -1.3946  0.7550
  123OSM    H4G13112   3.420   4.929   6.903 -0.9093  0.2350 -0.1022
  123OSM    C5F13113   3.513   5.114   6.858  0.2103  0.4505  0.5512
  123OSM    H5F13114   3.427   5.162   6.910  0.6719  0.0753  1.7109
  123OSM    H5G13115   3.563   5.169   6.776  1.0136 -0.3861  0.4600
  123OSM    C6F13116   3.625   5.096   6.961  0.0007 -0.1325 -0.7275
  123OSM    H6F13117   3.661   5.188   7.011 -0.5151  0.1926 -0.9431
  123OSM    H6G13118   3.713   5.068   6.900 -1.0988 -2.8841 -1.1820
  123OSM    C7F13119   3.615   4.992   7.072  0.4665 -0.4372 -0.4595
  123OSM    H7F13120   3.705   4.990   7.138  1.6124 -0.7930 -1.9566
  123OSM    H7G13121   3.607   4.890   7.029 -0.3434 -0.8160  0.5525
  123OSM    C8F13122   3.493   5.027   7.163 -0.0103 -0.3980  0.3121
  123OSM    H8F13123   3.404   5.029   7.097 -0.0722  1.8116  0.3878
  123OSM    H8G13124   3.514   5.132   7.191 -3.1562  0.6097 -0.7563
  123OSM    C9F13125   3.471   4.949   7.289  0.3198 -0.0745  0.5281
  123OSM    H9F13126   3.381   4.885   7.284  0.5879 -0.4620  0.6300
  123OSM   C10F13127   3.542   4.952   7.402 -0.5427  1.0708 -0.2878
  123OSM   H10F13128   3.504   4.887   7.482  0.5300  1.6539  0.7151
  123OSM   C11F13129   3.667   5.036   7.438  0.1980  0.8123 -0.2247
  123OSM   H11F13130   3.637   5.134   7.395 -0.4063  0.0746 -1.5719
  123OSM   H11G13131   3.748   4.996   7.373 -0.5623 -0.6179 -0.3445
  123OSM   C12F13132   3.693   5.031   7.594  0.5186  1.1041 -0.3200
  123OSM   H12F13133   3.602   5.060   7.650 -0.2152 -2.8221  0.7716
  123OSM   H12G13134   3.771   5.106   7.622 -3.2412  4.4040  2.5329
  123OSM   C13F13135   3.726   4.896   7.661 -0.1485 -0.3082  0.4572
  123OSM   H13F13136   3.835   4.873   7.656 -0.2956 -1.2264  1.2321
  123OSM   H13G13137   3.678   4.819   7.597  1.9876 -2.4069  1.2128
  123OSM   C14F13138   3.677   4.873   7.802 -0.2401  0.3450 -1.0729
  123OSM   H14F13139   3.691   4.765   7.828  1.1249  0.8332  0.3663
  123OSM   H14G13140   3.569   4.899   7.809 -0.1464  0.4512  0.2288
  123OSM   C15F13141   3.756   4.956   7.906  0.1935  0.3256  0.0161
  123OSM   H15F13142   3.762   5.065   7.882  0.4907  0.2041 -0.4836
  123OSM   H15G13143   3.861   4.921   7.913 -0.6678 -2.5605 -0.2344
  123OSM   C16F13144   3.683   4.951   8.043 -0.7030 -0.0658 -0.4191
  123OSM   H16F13145   3.680   4.844   8.072  0.7941 -0.0678 -0.1838
  123OSM   H16G13146   3.585   5.002   8.031 -0.8482  0.6121  2.8397
  123OSM   C17F13147   3.766   5.029   8.144  0.2380  0.2563 -0.1909
  123OSM   H17F13148   3.728   5.133   8.148 -0.7466 -0.0228 -1.6195
  123OSM   H17G13149   3.872   5.030   8.113 -0.5071 -0.7139 -3.0373
  123OSM   C18F13150   3.770   4.981   8.287 -0.1209  0.5139 -0.2056
  123OSM   H18F13151   3.672   4.981   8.338  0.7074 -1.7614  1.5633
  123OSM   H18G13152   3.845   5.030   8.352 -2.0208  1.1010  1.6416
  123OSM   H18H13153   3.803   4.875   8.281  0.7390  0.7434  0.3102
  124OSM      N13154   0.284   2.719   6.131  0.2084  0.3160 -0.7667
  124OSM    C1513155   0.332   2.585   6.073  0.1632  0.3399 -0.1357
  124OSM   H15A13156   0.341   2.603   5.967 -1.3303  1.0305 -0.1741
  124OSM   H15B13157   0.256   2.510   6.090  0.7990 -0.5322 -1.0344
  124OSM   H15C13158   0.424   2.545   6.113  2.0690  2.1677 -2.4005
  124OSM    C1413159   0.390   2.821   6.119 -0.2976 -0.1645  0.0618
  124OSM   H14A13160   0.477   2.796   6.178 -0.8786  0.6809  1.3218
  124OSM   H14B13161   0.354   2.915   6.158 -0.4122  0.6397 -1.8959
  124OSM   H14C13162   0.426   2.829   6.018  2.2185  1.2275  0.9751
  124OSM    C1313163   0.172   2.789   6.059 -0.6177  0.3882 -0.1502
  124OSM   H13A13164   0.205   2.815   5.960  0.4510  0.3278  0.1732
  124OSM   H13B13165   0.156   2.880   6.114 -1.3488 -0.6727  1.4837
  124OSM   H13C13166   0.078   2.735   6.063  0.3383 -1.3246  3.6990
  124OSM    C1213167   0.248   2.711   6.280 -0.1271  0.9653 -0.3114
  124OSM   H12A13168   0.335   2.678   6.335  1.1951  0.7696 -2.4301
  124OSM   H12B13169   0.181   2.627   6.294  0.8186  0.1233 -0.7441
  124OSM    C1113170   0.202   2.834   6.352  0.7637 -0.1672  0.0298
  124OSM   H11A13171   0.199   2.807   6.459 -0.5561  1.7290  0.5314
  124OSM   H11B13172   0.100   2.862   6.320  0.5849  0.3615  1.0324
  124OSM      P13173   0.249   3.083   6.322  0.6609  0.2730 -0.3536
  124OSM    O1313174   0.359   3.181   6.323 -0.1003 -0.1950  0.1532
  124OSM    O1413175   0.168   3.078   6.200 -0.3285  0.1614 -0.1030
  124OSM    O1113176   0.149   3.101   6.449 -0.4770  0.5000 -0.3662
  124OSM    O1213177   0.297   2.934   6.350 -0.6389  0.0045 -0.0002
  124OSM    C1S13178   0.199   3.108   6.579 -0.0297 -0.4257 -0.4791
  124OSM    H1S13179   0.260   3.197   6.602 -1.5180  0.3598  0.5974
  124OSM    H1T13180   0.275   3.029   6.595  1.0705  0.4751 -1.1345
  124OSM     NF13181   0.157   3.131   6.820 -0.8071 -0.0998  0.5458
  124OSM    HNF13182   0.170   3.043   6.866 -0.6141 -0.5490 -0.3504
  124OSM    C2S13183   0.092   3.120   6.692  0.4882 -0.1611 -0.5559
  124OSM    H2S13184   0.018   3.201   6.681 -0.2543 -0.8676 -0.8604
  124OSM    C3S13185   0.004   2.985   6.682 -0.0080  0.3578 -0.1480
  124OSM    H3S13186   0.074   2.899   6.689 -0.8662 -0.3264  0.1853
  124OSM     O313187  -0.065   2.963   6.553 -0.3838  0.0652 -0.5338
  124OSM    HO313188  -0.024   3.026   6.493 -0.4978  0.5519 -0.1132
  124OSM    C4S13189  -0.096   2.968   6.795 -0.4770  0.3859 -0.7367
  124OSM    H4S13190  -0.057   2.917   6.884 -3.1971 -0.7670 -0.0875
  124OSM    C5S13191  -0.224   3.012   6.799 -0.3476 -0.7071 -0.1277
  124OSM    H5S13192  -0.258   3.056   6.704 -0.9396  1.2395  0.9169
  124OSM    C6S13193  -0.333   2.996   6.908  0.5179  0.2305  0.0171
  124OSM    H6S13194  -0.421   2.941   6.869  1.2833 -0.5514 -0.6248
  124OSM    H6T13195  -0.367   3.101   6.927 -1.3371  0.0159 -1.8029
  124OSM    C7S13196  -0.290   2.932   7.034  0.1007 -0.5396  0.0514
  124OSM    H7S13197  -0.201   2.992   7.063 -1.3393  1.6266  0.2161
  124OSM    H7T13198  -0.273   2.823   7.025 -2.6124 -0.9214 -1.5519
  124OSM    C8S13199  -0.401   2.944   7.144 -0.3330  0.1179  0.4815
  124OSM    H8S13200  -0.478   2.873   7.108  0.6972 -0.4457 -0.6994
  124OSM    H8T13201  -0.457   3.040   7.134 -0.7416 -0.3098 -1.9750
  124OSM    C9S13202  -0.352   2.907   7.277 -0.4822  1.1102  0.0269
  124OSM    H9S13203  -0.327   3.002   7.330 -0.5941  0.8416  0.5684
  124OSM    H9T13204  -0.248   2.869   7.280  0.5162  3.6705  1.3136
  124OSM   C10S13205  -0.444   2.809   7.352 -0.4870 -0.5954  0.6484
  124OSM   H10S13206  -0.476   2.729   7.282  1.9361 -0.7789 -0.3842
  124OSM   H10T13207  -0.532   2.867   7.384 -0.0982  2.1625 -2.6484
  124OSM   C11S13208  -0.378   2.752   7.482 -0.1942  0.1376  0.0960
  124OSM   H11S13209  -0.279   2.705   7.465  0.8482  0.4867  4.1368
  124OSM   H11T13210  -0.456   2.679   7.514  1.8601 -2.2671 -0.1006
  124OSM   C12S13211  -0.354   2.853   7.593  0.0906 -0.3815  0.5059
  124OSM   H12S13212  -0.434   2.930   7.591  0.4040  0.0419  2.5270
  124OSM   H12T13213  -0.255   2.903   7.591 -0.2505  0.4539  2.5526
  124OSM   C13S13214  -0.363   2.783   7.733 -0.1896 -0.1365  0.1120
  124OSM   H13S13215  -0.289   2.700   7.729 -1.5828 -1.3821 -1.8479
  124OSM   H13T13216  -0.458   2.726   7.736  0.4601 -1.5324 -2.3817
  124OSM   C14S13217  -0.338   2.869   7.858 -0.1293 -0.8063 -0.1689
  124OSM   H14S13218  -0.409   2.955   7.854 -1.4165 -1.8662 -2.6889
  124OSM   H14T13219  -0.235   2.911   7.850 -0.1764 -0.9108 -1.6604
  124OSM   C15S13220  -0.351   2.786   7.981 -0.6739 -0.0452 -0.1803
  124OSM   H15S13221  -0.258   2.726   7.989 -0.4721  0.1457 -1.0422
  124OSM   H15T13222  -0.433   2.711   7.971 -1.3543  0.5908  0.4889
  124OSM   C16S13223  -0.383   2.864   8.100 -0.4227 -0.6963 -0.4826
  124OSM   H16S13224  -0.486   2.905   8.104  0.7456  2.4715  0.9355
  124OSM   H16T13225  -0.319   2.954   8.115 -1.6724 -0.2445  3.1315
  124OSM   C17S13226  -0.357   2.775   8.222  0.6959 -0.1617 -0.8915
  124OSM   H17S13227  -0.261   2.720   8.208  0.4345 -1.4207  1.7343
  124OSM   H17T13228  -0.434   2.696   8.217  0.5441 -0.6923  4.4931
  124OSM   C18S13229  -0.377   2.837   8.362 -0.6637 -0.0580 -0.0642
  124OSM   H18S13230  -0.381   2.762   8.444  2.3236 -1.5133 -1.1223
  124OSM   H18T13231  -0.470   2.897   8.370  0.6887  1.9675  1.5796
  124OSM   H18U13232  -0.296   2.909   8.386 -0.2661  0.4482 -2.6324
  124OSM    C1F13233   0.215   3.246   6.858 -1.4572  0.1925  0.6835
  124OSM     OF13234   0.194   3.352   6.797  0.0828  0.0938 -0.0948
  124OSM    C2F13235   0.312   3.247   6.969 -0.0363  0.2260 -0.3606
  124OSM    H2F13236   0.411   3.257   6.921 -0.5729  0.2916 -1.4761
  124OSM    H2G13237   0.308   3.142   7.006 -0.1329  0.0481 -0.8647
  124OSM    C3F13238   0.292   3.347   7.084 -0.2484 -1.1143  0.3564
  124OSM    H3F13239   0.190   3.336   7.125 -0.3175 -1.1709  0.1714
  124OSM    H3G13240   0.310   3.450   7.045  0.2719 -0.5382  2.0231
  124OSM    C4F13241   0.397   3.338   7.193 -0.2137  0.1326 -0.5452
  124OSM    H4F13242   0.501   3.351   7.155  0.4759 -2.0786  0.3950
  124OSM    H4G13243   0.408   3.243   7.249  1.1962  1.2485  1.2088
  124OSM    C5F13244   0.370   3.443   7.293  0.1158  0.2903  0.0732
  124OSM    H5F13245   0.270   3.490   7.278  0.4190  1.3158  1.0956
  124OSM    H5G13246   0.438   3.529   7.276 -0.6466  0.8258 -0.3750
  124OSM    C6F13247   0.379   3.404   7.443 -0.1508  0.2369 -0.4489
  124OSM    H6F13248   0.348   3.494   7.501  1.6099  0.3225  0.4246
  124OSM    H6G13249   0.485   3.381   7.468  0.1319 -0.1535 -1.8807
  124OSM    C7F13250   0.305   3.279   7.488 -0.4650  0.2770  0.9863
  124OSM    H7F13251   0.373   3.191   7.494 -0.5928 -0.0450 -1.1815
  124OSM    H7G13252   0.224   3.255   7.415 -1.1855  0.3614  1.7434
  124OSM    C8F13253   0.242   3.288   7.622 -0.2760  0.5839  1.4561
  124OSM    H8F13254   0.171   3.204   7.636  0.6709 -0.2372  1.4529
  124OSM    H8G13255   0.172   3.374   7.616 -1.1350 -0.2055 -1.3668
  124OSM    C9F13256   0.338   3.282   7.736  0.5301  0.0828  0.3834
  124OSM    H9F13257   0.442   3.269   7.702  0.9397  2.0429  0.7859
  124OSM   C10F13258   0.313   3.319   7.859  0.6915 -0.6140  0.2117
  124OSM   H10F13259   0.397   3.311   7.930 -0.2316  1.1344  1.5714
  124OSM   C11F13260   0.196   3.386   7.921  0.8086 -0.2412  0.4195
  124OSM   H11F13261   0.133   3.312   7.973 -0.1133  0.4380  0.2976
  124OSM   H11G13262   0.130   3.414   7.836  1.7455 -1.7203 -0.8326
  124OSM   C12F13263   0.217   3.512   8.000 -0.0225  0.3824 -0.3517
  124OSM   H12F13264   0.123   3.571   7.998 -0.2657  0.0427  0.5648
  124OSM   H12G13265   0.282   3.571   7.932  0.5330  1.3052  0.9537
  124OSM   C13F13266   0.286   3.484   8.133  0.4369  0.4521  0.7562
  124OSM   H13F13267   0.392   3.455   8.118  0.6600  0.3586  2.3094
  124OSM   H13G13268   0.220   3.413   8.187 -1.6392  1.8376  0.1411
  124OSM   C14F13269   0.289   3.612   8.229  0.0047 -0.1489 -0.0265
  124OSM   H14F13270   0.336   3.580   8.325 -1.0851  1.5374  1.1228
  124OSM   H14G13271   0.189   3.653   8.257  0.2867  0.4806  0.0651
  124OSM   C15F13272   0.368   3.724   8.159 -0.6131  1.0091 -0.0184
  124OSM   H15F13273   0.333   3.749   8.057 -1.7634  0.5268  0.2484
  124OSM   H15G13274   0.472   3.685   8.154 -1.3730 -0.9499 -2.4977
  124OSM   C16F13275   0.365   3.859   8.233 -0.2626 -0.1503  0.0560
  124OSM   H16F13276   0.260   3.896   8.227 -0.7727 -1.3069  1.2828
  124OSM   H16G13277   0.425   3.926   8.168 -0.5296 -0.7799 -0.8574
  124OSM   C17F13278   0.408   3.867   8.379 -0.8739 -0.3127 -0.4323
  124OSM   H17F13279   0.335   3.808   8.440  0.3857  0.7025  2.1988
  124OSM   H17G13280   0.404   3.971   8.417  2.3301 -0.2321 -0.0783
  124OSM   C18F13281   0.548   3.815   8.417 -0.6102 -0.6560  0.0819
  124OSM   H18F13282   0.557   3.705   8.409 -1.0427 -0.7948  1.2357
  124OSM   H18G13283   0.560   3.836   8.526 -2.0466 -2.3622  0.6097
  124OSM   H18H13284   0.628   3.870   8.363  0.8825 -1.0381  1.7975
  125OSM      N13285   6.665   4.187   6.019  0.2111 -0.2117  0.5466
  125OSM    C1513286   6.786   4.174   6.104 -0.5389  0.2340 -0.4664
  125OSM   H15A13287   6.828   4.270   6.131 -0.1724  0.3860 -1.5554
  125OSM   H15B13288   6.863   4.112   6.060 -1.5355 -1.4778  0.0970
  125OSM   H15C13289   6.761   4.136   6.203  2.5246 -1.0968 -0.0852
  125OSM    C1413290   6.707   4.250   5.890 -0.1370 -0.0687  0.9052
  125OSM   H14A13291   6.626   4.233   5.820 -2.3739  2.9874  2.4916
  125OSM   H14B13292   6.799   4.204   5.856 -0.0142  0.0718  1.0486
  125OSM   H14C13293   6.720   4.357   5.894 -0.4675  0.0285 -0.2001
  125OSM    C1313294   6.615   4.054   5.988  0.0915  0.4242 -0.4179
  125OSM   H13A13295   6.581   3.997   6.073 -1.3286  0.8587 -0.6749
  125OSM   H13B13296   6.695   4.005   5.935 -0.3657  1.4340 -2.1240
  125OSM   H13C13297   6.533   4.052   5.918 -1.6331 -0.1442  1.5065
  125OSM    C1213298   6.569   4.276   6.084 -0.4558  0.2252 -0.4389
  125OSM   H12A13299   6.490   4.291   6.011 -1.6277  0.3432  0.8126
  125OSM   H12B13300   6.615   4.373   6.095  1.1448 -0.4990 -0.5013
  125OSM    C1113301   6.492   4.230   6.212  0.0887 -0.4010  0.6064
  125OSM   H11A13302   6.556   4.214   6.301 -1.3202 -1.3629  1.5025
  125OSM   H11B13303   6.445   4.132   6.190 -1.0045  0.7141 -2.7273
  125OSM      P13304   6.253   4.284   6.297  0.0495 -0.1600 -0.1069
  125OSM    O1313305   6.176   4.410   6.298  0.7931 -0.0639  0.0056
  125OSM    O1413306   6.198   4.172   6.220 -0.5179  0.1403  1.6165
  125OSM    O1113307   6.285   4.245   6.451  0.4083  0.0443  0.0820
  125OSM    O1213308   6.398   4.330   6.240  0.1908 -0.1692 -0.2060
  125OSM    C1S13309   6.376   4.329   6.518 -0.1777 -0.1481  0.5384
  125OSM    H1S13310   6.356   4.437   6.497  1.7883  0.3940  1.2693
  125OSM    H1T13311   6.478   4.324   6.475  0.3752  0.5781  1.7165
  125OSM     NF13312   6.474   4.386   6.747 -0.1112 -0.0174 -0.4142
  125OSM    HNF13313   6.571   4.367   6.753 -0.2527 -0.3404  2.2576
  125OSM    C2S13314   6.390   4.291   6.671 -0.5052 -0.0748 -0.2440
  125OSM    H2S13315   6.284   4.293   6.702 -0.9293  1.3319 -1.6554
  125OSM    C3S13316   6.444   4.148   6.681 -0.1746  0.6261 -0.8707
  125OSM    H3S13317   6.548   4.144   6.642  1.0737 -1.0499  2.2667
  125OSM     O313318   6.379   4.063   6.594 -0.2942 -0.3314  0.3118
  125OSM    HO313319   6.376   4.125   6.521 -0.5069  0.0232  0.6170
  125OSM    C4S13320   6.445   4.095   6.825  0.1465  0.4551 -0.3650
  125OSM    H4S13321   6.540   4.104   6.880  0.2699 -0.6599 -0.3725
  125OSM    C5S13322   6.343   4.026   6.883 -0.3877  0.2852  0.0710
  125OSM    H5S13323   6.251   4.024   6.823 -1.1043  0.1941  1.1546
  125OSM    C6S13324   6.333   3.965   7.017  0.4066 -0.0741 -0.2462
  125OSM    H6S13325   6.308   3.858   7.005  1.5394 -0.2837 -0.8188
  125OSM    H6T13326   6.246   4.010   7.069 -1.8540 -1.0832 -2.8766
  125OSM    C7S13327   6.460   3.976   7.111 -0.2021  0.1163  0.3316
  125OSM    H7S13328   6.485   4.084   7.122  2.4224 -0.2943 -0.6614
  125OSM    H7T13329   6.538   3.928   7.048 -1.7434  0.2272 -1.7634
  125OSM    C8S13330   6.445   3.908   7.248  0.0189  0.2052 -0.0233
  125OSM    H8S13331   6.382   3.963   7.322 -0.0664  2.4558 -1.6651
  125OSM    H8T13332   6.546   3.898   7.293  1.0181  2.2211 -1.6544
  125OSM    C9S13333   6.406   3.757   7.227  0.4860  0.6077 -0.8258
  125OSM    H9S13334   6.471   3.714   7.148 -0.2897  0.2031 -1.2623
  125OSM    H9T13335   6.302   3.753   7.188  1.0755  1.0832 -2.5491
  125OSM   C10S13336   6.417   3.676   7.363 -0.8043  0.1859 -0.4646
  125OSM   H10S13337   6.526   3.661   7.382 -1.0268 -0.8578  0.0158
  125OSM   H10T13338   6.382   3.574   7.338  1.2740 -0.6043 -0.3881
  125OSM   C11S13339   6.341   3.736   7.478  0.2829  0.1156 -0.1070
  125OSM   H11S13340   6.241   3.760   7.437  0.8806 -0.8442 -2.2572
  125OSM   H11T13341   6.382   3.833   7.513 -3.2874  1.8006 -0.1507
  125OSM   C12S13342   6.333   3.653   7.605  0.0298  0.2996 -0.2187
  125OSM   H12S13343   6.431   3.645   7.658  0.2649 -0.6408 -0.7693
  125OSM   H12T13344   6.316   3.548   7.572  1.6337  0.4895 -1.8298
  125OSM   C13S13345   6.229   3.702   7.708  0.1554 -0.7637  0.1341
  125OSM   H13S13346   6.131   3.685   7.658 -0.6056 -0.9146  1.6287
  125OSM   H13T13347   6.254   3.809   7.726 -1.4193 -0.0666 -1.4602
  125OSM   C14S13348   6.233   3.632   7.841  0.1957 -0.4906 -0.6278
  125OSM   H14S13349   6.324   3.664   7.898 -0.0384  0.6849 -0.9001
  125OSM   H14T13350   6.236   3.522   7.826 -1.3050 -0.6726  0.2514
  125OSM   C15S13351   6.120   3.673   7.932  0.7643  0.9315 -0.6967
  125OSM   H15S13352   6.025   3.625   7.899 -0.5397  1.1133  2.3978
  125OSM   H15T13353   6.100   3.782   7.937 -1.5312  0.5093  0.9392
  125OSM   C16S13354   6.142   3.624   8.074 -0.2871  0.2259 -0.3136
  125OSM   H16S13355   6.225   3.685   8.116 -0.4634 -1.0597  2.0736
  125OSM   H16T13356   6.176   3.519   8.070  2.4079  1.0496 -2.0210
  125OSM   C17S13357   6.021   3.647   8.166 -0.8836 -0.2958 -0.7100
  125OSM   H17S13358   5.933   3.598   8.120 -2.4140 -0.1162  1.8566
  125OSM   H17T13359   5.994   3.754   8.162  0.8720  0.2073 -0.1189
  125OSM   C18S13360   6.021   3.588   8.311 -0.0060 -0.0886 -0.2562
  125OSM   H18S13361   6.059   3.485   8.292 -0.0327  0.1055 -1.4511
  125OSM   H18T13362   5.917   3.588   8.350  0.3060  2.2498  0.7328
  125OSM   H18U13363   6.088   3.641   8.381 -0.4954 -2.1125  1.8743
  125OSM    C1F13364   6.425   4.507   6.774 -0.4310 -0.7910 -0.4691
  125OSM     OF13365   6.305   4.528   6.769  0.2234  0.0854  0.1494
  125OSM    C2F13366   6.521   4.620   6.787 -0.0189 -0.6437  0.3156
  125OSM    H2F13367   6.551   4.651   6.685 -1.1148  0.3225  0.2709
  125OSM    H2G13368   6.617   4.597   6.839  1.6255  4.3912  0.0918
  125OSM    C3F13369   6.452   4.734   6.869  0.6367  0.5566 -0.3352
  125OSM    H3F13370   6.348   4.762   6.841  0.5846  0.0914 -0.6080
  125OSM    H3G13371   6.507   4.829   6.856  1.1383 -0.0225 -3.2026
  125OSM    C4F13372   6.464   4.701   7.021 -0.3889 -0.0470 -0.1587
  125OSM    H4F13373   6.574   4.695   7.037 -0.0056  0.7121 -2.1044
  125OSM    H4G13374   6.423   4.602   7.047 -0.9075  0.7424  2.3025
  125OSM    C5F13375   6.389   4.802   7.114  0.1706  0.0050  0.0173
  125OSM    H5F13376   6.284   4.803   7.077  0.1245  0.8608  0.1671
  125OSM    H5G13377   6.437   4.900   7.097  1.8399 -0.9221 -0.8534
  125OSM    C6F13378   6.409   4.763   7.261  0.7571 -0.3336  0.1458
  125OSM    H6F13379   6.517   4.738   7.259  0.2963 -2.6357 -2.5836
  125OSM    H6G13380   6.346   4.675   7.283  0.5751 -0.7883 -1.9284
  125OSM    C7F13381   6.380   4.874   7.367 -0.4827  0.2956  0.6037
  125OSM    H7F13382   6.277   4.916   7.357 -1.6931 -2.1133  2.0038
  125OSM    H7G13383   6.442   4.965   7.351  0.6354  0.2629  3.9645
  125OSM    C8F13384   6.423   4.819   7.504  0.7946 -0.4313  0.1835
  125OSM    H8F13385   6.442   4.906   7.570 -3.0810  1.1338 -0.5138
  125OSM    H8G13386   6.523   4.771   7.494  0.7152 -0.7322  0.7628
  125OSM    C9F13387   6.328   4.720   7.573 -0.1619 -0.3281  0.8511
  125OSM    H9F13388   6.317   4.627   7.516  3.6684  0.1206 -0.9156
  125OSM   C10F13389   6.254   4.742   7.684 -0.1694  0.6406  0.2567
  125OSM   H10F13390   6.179   4.668   7.716  1.9124 -1.2939  0.8853
  125OSM   C11F13391   6.244   4.879   7.750  0.4261 -0.3947 -0.2513
  125OSM   H11F13392   6.244   4.956   7.670 -0.1117 -0.0623  0.0614
  125OSM   H11G13393   6.324   4.904   7.823 -0.2097 -1.0448  0.6900
  125OSM   C12F13394   6.109   4.895   7.812  0.3282  0.0903  0.2342
  125OSM   H12F13395   6.021   4.854   7.757  0.2708  2.2094 -1.3643
  125OSM   H12G13396   6.092   5.004   7.822  0.6625  0.0650  1.1981
  125OSM   C13F13397   6.112   4.820   7.945  0.6366 -0.0360 -0.8899
  125OSM   H13F13398   6.186   4.865   8.014  1.3280 -1.1261 -0.9085
  125OSM   H13G13399   6.128   4.711   7.933  0.0701 -0.3073  0.5412
  125OSM   C14F13400   5.980   4.830   8.016  0.4231 -0.0286  0.0044
  125OSM   H14F13401   5.975   4.756   8.099 -0.4264  1.2241  1.1286
  125OSM   H14G13402   5.897   4.820   7.943  1.3921 -0.2686 -1.0954
  125OSM   C15F13403   5.957   4.971   8.082  0.6446 -0.2782  0.0186
  125OSM   H15F13404   5.951   5.064   8.022 -1.9404 -0.2761  0.1752
  125OSM   H15G13405   6.049   4.973   8.145  1.3035  1.6870 -0.9136
  125OSM   C16F13406   5.825   4.981   8.156  0.5367 -0.3451  0.6301
  125OSM   H16F13407   5.823   5.072   8.219  0.0666 -0.7728  1.2360
  125OSM   H16G13408   5.817   4.892   8.221 -0.1132 -0.4981  0.3484
  125OSM   C17F13409   5.708   4.988   8.059  0.5728  0.6708  0.0926
  125OSM   H17F13410   5.702   4.891   8.005 -0.7866  0.6236  0.2897
  125OSM   H17G13411   5.711   5.070   7.985  3.9946 -0.7473 -1.5786
  125OSM   C18F13412   5.576   5.010   8.127  0.3757 -0.2488 -0.4337
  125OSM   H18F13413   5.581   5.119   8.146  1.0791  0.3983 -3.6688
  125OSM   H18G13414   5.563   4.955   8.223 -0.0350 -0.3406 -0.5396
  125OSM   H18H13415   5.491   4.992   8.058  0.4791 -2.6324 -0.0161
  126OSM      N13416   4.258   3.150   6.708  0.3910 -0.4269  0.5294
  126OSM    C1513417   4.244   3.128   6.851  0.3546 -0.1648  0.4571
  126OSM   H15A13418   4.253   3.220   6.906 -3.8338  0.3211  0.6809
  126OSM   H15B13419   4.318   3.062   6.893  2.6474  0.8345 -1.7560
  126OSM   H15C13420   4.146   3.088   6.874 -0.4030  0.3677 -1.6034
  126OSM    C1413421   4.398   3.204   6.685  0.7024 -0.3373  0.1837
  126OSM   H14A13422   4.438   3.268   6.762  1.1726  1.0283 -1.1428
  126OSM   H14B13423   4.403   3.262   6.593 -0.7349 -1.6954 -0.8021
  126OSM   H14C13424   4.461   3.119   6.667 -1.4167 -1.7454 -1.1323
  126OSM    C1313425   4.240   3.022   6.634 -0.0370  0.1413 -0.2602
  126OSM   H13A13426   4.141   2.982   6.646 -0.6639  1.3979 -1.0485
  126OSM   H13B13427   4.308   2.943   6.662 -2.1535 -2.4338 -1.8513
  126OSM   H13C13428   4.239   3.037   6.527 -3.3179 -0.8968 -0.4858
  126OSM    C1213429   4.150   3.243   6.650 -0.2371 -0.0187  0.1728
  126OSM   H12A13430   4.135   3.323   6.721 -4.7290 -0.4553 -0.0014
  126OSM   H12B13431   4.056   3.190   6.644 -1.0441  1.2570  0.8323
  126OSM    C1113432   4.192   3.298   6.518  0.7270  0.0706 -0.1490
  126OSM   H11A13433   4.096   3.332   6.472 -0.1769  0.0881  1.6680
  126OSM   H11B13434   4.239   3.220   6.454  0.8178 -1.6632  1.9483
  126OSM      P13435   4.234   3.555   6.561 -0.4192  0.1684  0.2339
  126OSM    O1313436   4.354   3.639   6.545 -0.0227  0.2958 -0.3649
  126OSM    O1413437   4.112   3.597   6.490  0.5795  0.5843 -0.2864
  126OSM    O1113438   4.197   3.546   6.711 -0.0066 -0.8503  0.2749
  126OSM    O1213439   4.280   3.407   6.536 -0.1302  0.5809  0.3886
  126OSM    C1S13440   4.176   3.669   6.782 -0.0682 -0.1061 -0.6604
  126OSM    H1S13441   4.099   3.735   6.737  1.1241  1.0305 -1.1030
  126OSM    H1T13442   4.270   3.729   6.781 -0.2210  0.1331 -0.6953
  126OSM     NF13443   4.096   3.746   7.000 -0.3310  0.5293 -0.0493
  126OSM    HNF13444   4.161   3.772   7.071 -2.4583  0.3614  2.0969
  126OSM    C2S13445   4.132   3.631   6.922  0.6384 -0.0764 -0.2226
  126OSM    H2S13446   4.042   3.570   6.900 -0.0838  1.3112 -1.2842
  126OSM    C3S13447   4.239   3.539   6.996 -0.1637 -0.2975  0.3591
  126OSM    H3S13448   4.318   3.615   7.012 -1.2752  0.8913  0.3703
  126OSM     O313449   4.308   3.436   6.921  0.0760  0.0763 -0.6356
  126OSM    HO313450   4.278   3.454   6.832  1.0456  2.4080 -0.5679
  126OSM    C4S13451   4.180   3.481   7.127 -0.3662  0.3545  0.7402
  126OSM    H4S13452   4.194   3.540   7.219  1.3123 -0.1102  0.8085
  126OSM    C5S13453   4.108   3.367   7.136 -0.2444  0.6542  0.0925
  126OSM    H5S13454   4.111   3.290   7.058  2.6062 -1.0777  1.7704
  126OSM    C6S13455   4.040   3.327   7.258  1.0857  1.0138 -0.1494
  126OSM    H6S13456   4.074   3.224   7.279 -0.9296  0.3522  0.1034
  126OSM    H6T13457   3.931   3.320   7.239  0.9130 -0.2146  1.1136
  126OSM    C7S13458   4.064   3.397   7.398 -0.3147 -0.2294  0.1136
  126OSM    H7S13459   4.070   3.508   7.385  1.4006 -0.1835  0.9798
  126OSM    H7T13460   4.160   3.362   7.442 -0.7659 -1.9346 -0.2055
  126OSM    C8S13461   3.956   3.368   7.499 -0.2786  0.4097  0.4777
  126OSM    H8S13462   3.960   3.257   7.504  2.4750  0.2282 -2.4222
  126OSM    H8T13463   3.859   3.404   7.458  0.0745  0.2061 -0.5913
  126OSM    C9S13464   3.973   3.428   7.636  0.2454  0.6828  0.0566
  126OSM    H9S13465   3.882   3.407   7.696 -1.4892  1.6978 -2.0782
  126OSM    H9T13466   3.969   3.538   7.627  2.2559  0.8453  0.6888
  126OSM   C10S13467   4.093   3.393   7.721  0.7828 -0.2608  0.1362
  126OSM   H10S13468   4.102   3.467   7.803 -0.2744  1.1642 -0.9795
  126OSM   H10T13469   4.188   3.406   7.665  0.6723  3.9993  0.5976
  126OSM   C11S13470   4.082   3.247   7.774 -0.1041 -0.3905 -0.5043
  126OSM   H11S13471   4.069   3.177   7.689 -0.3091 -1.2807  0.2483
  126OSM   H11T13472   3.986   3.245   7.831 -0.4730  1.9846 -0.9444
  126OSM   C12S13473   4.199   3.213   7.868 -0.0988 -0.0825 -0.3901
  126OSM   H12S13474   4.223   3.286   7.948  1.5223  0.0338 -0.9352
  126OSM   H12T13475   4.294   3.230   7.812  0.2373  1.0607  0.4851
  126OSM   C13S13476   4.215   3.064   7.912  0.4909 -0.5079 -0.0836
  126OSM   H13S13477   4.213   3.005   7.818  2.3317  0.1151 -0.5584
  126OSM   H13T13478   4.136   3.022   7.979  0.0792  0.1573 -0.1417
  126OSM   C14S13479   4.353   3.027   7.966 -0.5550 -0.6258 -0.2937
  126OSM   H14S13480   4.433   3.048   7.893 -1.1719  3.9090  0.0074
  126OSM   H14T13481   4.352   2.918   7.988  0.8237 -0.4389  0.8833
  126OSM   C15S13482   4.398   3.109   8.086 -0.2636  0.6204 -0.0545
  126OSM   H15S13483   4.405   3.217   8.058  0.3594  0.8356  0.8833
  126OSM   H15T13484   4.493   3.070   8.129  0.2999  0.4706 -1.3902
  126OSM   C16S13485   4.289   3.099   8.198  0.2572  0.5266  0.3366
  126OSM   H16S13486   4.271   2.994   8.230 -0.5710  0.5138 -0.1434
  126OSM   H16T13487   4.188   3.135   8.166 -1.0400 -2.5186  0.6467
  126OSM   C17S13488   4.331   3.180   8.322  0.5844 -1.0472 -0.4436
  126OSM   H17S13489   4.255   3.175   8.403  0.3841  3.1943 -0.1315
  126OSM   H17T13490   4.328   3.288   8.299  2.2402 -1.1169 -1.1191
  126OSM   C18S13491   4.460   3.147   8.387 -0.1270  0.2245 -0.7996
  126OSM   H18S13492   4.544   3.127   8.317  0.2851 -1.8343  0.2095
  126OSM   H18T13493   4.454   3.054   8.448 -0.2232  1.2204  0.7457
  126OSM   H18U13494   4.487   3.231   8.455  1.3424 -0.8593  0.0275
  126OSM    C1F13495   3.990   3.828   6.989 -0.0850 -0.1354  0.0922
  126OSM     OF13496   3.902   3.796   6.911  0.3681  0.6097 -0.1215
  126OSM    C2F13497   3.993   3.954   7.074  0.0649  0.2299 -0.5526
  126OSM    H2F13498   4.056   4.032   7.026  3.3832  0.0216  3.0270
  126OSM    H2G13499   4.034   3.924   7.172 -0.6506 -1.2483 -0.6707
  126OSM    C3F13500   3.847   4.007   7.091  0.7044  0.1272 -0.2968
  126OSM    H3F13501   3.785   3.926   7.135 -2.0497  2.4790  0.5125
  126OSM    H3G13502   3.816   4.022   6.986  1.2315 -2.1883 -0.8295
  126OSM    C4F13503   3.836   4.128   7.183  0.0567 -0.5959  0.1901
  126OSM    H4F13504   3.898   4.214   7.149 -0.9654  0.3004  0.5066
  126OSM    H4G13505   3.877   4.088   7.278 -0.4824 -1.4618  0.0730
  126OSM    C5F13506   3.691   4.188   7.194 -0.7072  0.2287  0.8239
  126OSM    H5F13507   3.615   4.107   7.184 -0.0537 -0.6809  2.8323
  126OSM    H5G13508   3.680   4.259   7.108 -1.7922  0.6686  1.3038
  126OSM    C6F13509   3.666   4.253   7.325  0.1365  0.0494 -0.0021
  126OSM    H6F13510   3.576   4.318   7.315  1.7910  2.6480  0.9671
  126OSM    H6G13511   3.738   4.334   7.344 -1.8650  2.3851 -1.7710
  126OSM    C7F13512   3.663   4.148   7.438  0.3229 -0.1805 -0.6542
  126OSM    H7F13513   3.748   4.080   7.420  1.7330  1.5108 -0.6448
  126OSM    H7G13514   3.573   4.083   7.437  0.0621  0.1532  0.0219
  126OSM    C8F13515   3.684   4.209   7.578 -0.3436 -0.4156 -0.6709
  126OSM    H8F13516   3.601   4.281   7.595 -0.6048 -0.3170 -2.1687
  126OSM    H8G13517   3.784   4.256   7.574  0.0297 -1.0337  0.7833
  126OSM    C9F13518   3.681   4.100   7.682 -0.1021  0.2547  0.0282
  126OSM    H9F13519   3.723   4.003   7.653 -2.9800 -1.3739  0.8784
  126OSM   C10F13520   3.637   4.114   7.809  0.2959  0.4838 -0.0763
  126OSM   H10F13521   3.637   4.035   7.885  3.5133  0.6016  0.1678
  126OSM   C11F13522   3.583   4.239   7.873 -0.3518  0.1976 -0.5608
  126OSM   H11F13523   3.477   4.247   7.903 -0.0228 -1.0347  1.0766
  126OSM   H11G13524   3.599   4.322   7.801 -0.2979 -0.4962 -1.3600
  126OSM   C12F13525   3.669   4.276   7.998 -0.3802 -0.5629  0.2820
  126OSM   H12F13526   3.637   4.372   8.044 -2.6563 -0.5476 -1.1944
  126OSM   H12G13527   3.777   4.293   7.980 -0.8263  2.7393  0.2021
  126OSM   C13F13528   3.648   4.179   8.106 -0.3987 -0.3855  0.1450
  126OSM   H13F13529   3.694   4.080   8.082 -2.8333 -1.4195 -0.5347
  126OSM   H13G13530   3.540   4.167   8.130 -0.4199 -1.2681 -0.3415
  126OSM   C14F13531   3.730   4.222   8.227 -0.1516  0.6302 -0.5772
  126OSM   H14F13532   3.671   4.297   8.284 -1.4793 -0.6634 -0.1812
  126OSM   H14G13533   3.825   4.275   8.202  1.2887 -0.8933  1.3598
  126OSM   C15F13534   3.768   4.112   8.324 -0.0634 -0.7148 -0.2508
  126OSM   H15F13535   3.840   4.160   8.393  0.7891 -2.1737 -0.0893
  126OSM   H15G13536   3.813   4.027   8.270 -0.4593 -2.2411  1.7227
  126OSM   C16F13537   3.649   4.061   8.396 -0.1307 -0.9553 -0.1896
  126OSM   H16F13538   3.572   4.028   8.322 -1.3958  0.5298  0.3932
  126OSM   H16G13539   3.593   4.149   8.435  0.6097  0.3712 -1.9545
  126OSM   C17F13540   3.678   3.943   8.494 -0.3076 -0.7823 -0.7300
  126OSM   H17F13541   3.708   3.855   8.432 -0.2244 -0.4712 -1.1392
  126OSM   H17G13542   3.587   3.902   8.543 -1.9780  2.9144 -0.4244
  126OSM   C18F13543   3.792   3.970   8.593  0.0472 -0.6373 -0.2550
  126OSM   H18F13544   3.876   3.993   8.524 -2.2556  1.4778 -2.5417
  126OSM   H18G13545   3.813   3.871   8.640  1.7784 -0.3969 -0.4641
  126OSM   H18H13546   3.763   4.043   8.671 -2.2672 -1.8116  0.0705
  127OSM      N13547   5.822   2.356   5.995  0.0220 -0.1895 -0.3743
  127OSM    C1513548   5.903   2.465   6.057  0.5981  0.5914 -0.6054
  127OSM   H15A13549   5.949   2.429   6.148  1.1513  1.6662 -0.4438
  127OSM   H15B13550   5.839   2.541   6.099  2.0569  1.6514 -0.2148
  127OSM   H15C13551   5.969   2.511   5.985  0.7474  1.2537 -0.0633
  127OSM    C1413552   5.715   2.422   5.919  0.1348 -0.4062 -0.0023
  127OSM   H14A13553   5.753   2.492   5.847 -1.9698 -1.3638 -2.1892
  127OSM   H14B13554   5.665   2.484   5.992  0.9701 -1.0122  1.1287
  127OSM   H14C13555   5.650   2.354   5.865 -1.2964  1.0309 -0.1495
  127OSM    C1313556   5.892   2.259   5.898  0.2557 -0.3653 -0.5236
  127OSM   H13A13557   5.910   2.301   5.800  1.3768 -0.2783 -0.2952
  127OSM   H13B13558   5.837   2.168   5.880 -1.3406  0.1700  1.2694
  127OSM   H13C13559   5.992   2.234   5.929  2.0434  0.2139 -5.0368
  127OSM    C1213560   5.771   2.266   6.106 -0.6399 -0.1295 -0.4783
  127OSM   H12A13561   5.847   2.204   6.151 -0.9714 -0.2850 -0.1233
  127OSM   H12B13562   5.711   2.190   6.059  2.4192 -1.1340 -3.1466
  127OSM    C1113563   5.689   2.333   6.225 -0.1380 -0.0582  0.4680
  127OSM   H11A13564   5.752   2.405   6.281  0.2383  0.1951 -0.2626
  127OSM   H11B13565   5.660   2.252   6.295 -0.2995 -1.6525 -1.3513
  127OSM      P13566   5.430   2.322   6.155  0.0213  0.0460  0.1752
  127OSM    O1313567   5.325   2.423   6.181  0.3482  0.0482 -0.3477
  127OSM    O1413568   5.434   2.250   6.029  0.0350 -0.0053  0.1872
  127OSM    O1113569   5.414   2.215   6.266  0.3361  0.2360  0.1098
  127OSM    O1213570   5.569   2.396   6.183  0.3445  0.4641  0.1897
  127OSM    C1S13571   5.391   2.251   6.402 -0.7100 -0.4016  0.2799
  127OSM    H1S13572   5.301   2.314   6.416  0.5931  1.2812  1.6025
  127OSM    H1T13573   5.477   2.309   6.443 -0.0049 -1.9191  1.0197
  127OSM     NF13574   5.368   2.168   6.634  0.0198 -0.3589 -0.2572
  127OSM    HNF13575   5.453   2.150   6.685  0.1943 -1.4018 -0.8858
  127OSM    C2S13576   5.374   2.128   6.496  0.4235  0.6294 -0.6546
  127OSM    H2S13577   5.278   2.075   6.478 -0.2764  2.0238 -1.1634
  127OSM    C3S13578   5.487   2.028   6.453 -0.0651 -0.4324  0.5012
  127OSM    H3S13579   5.568   2.085   6.403 -0.7939 -1.1203 -1.5762
  127OSM     O313580   5.444   1.931   6.349  0.2288  0.0283 -0.0497
  127OSM    HO313581   5.357   1.964   6.322  0.8409  1.5161 -0.3011
  127OSM    C4S13582   5.539   1.958   6.574  0.4124  0.1200  0.8178
  127OSM    H4S13583   5.642   1.985   6.602  0.3178  1.7682 -0.3171
  127OSM    C5S13584   5.486   1.852   6.643  0.4754 -0.1536 -0.1650
  127OSM    H5S13585   5.402   1.794   6.603  0.0921  0.1468  0.1933
  127OSM    C6S13586   5.553   1.767   6.752 -0.2142 -0.7351 -0.4449
  127OSM    H6S13587   5.657   1.759   6.715 -0.5956  0.1935 -1.7613
  127OSM    H6T13588   5.515   1.662   6.751  2.5931 -1.8496 -0.5729
  127OSM    C7S13589   5.545   1.824   6.889  0.6133  0.3479 -0.0371
  127OSM    H7S13590   5.588   1.926   6.901  0.8803  0.2653 -0.2957
  127OSM    H7T13591   5.596   1.766   6.969  1.4440  1.4877  0.2956
  127OSM    C8S13592   5.395   1.837   6.925 -0.0051 -0.6752  0.4183
  127OSM    H8S13593   5.349   1.898   6.844 -0.7182 -0.7625  0.7476
  127OSM    H8T13594   5.382   1.906   7.012  1.1971 -0.2620  0.2927
  127OSM    C9S13595   5.322   1.703   6.944  0.3698 -0.7381  0.1802
  127OSM    H9S13596   5.341   1.641   6.853 -0.4682  0.9585 -1.2156
  127OSM    H9T13597   5.213   1.721   6.938  0.4934 -0.2132 -0.7336
  127OSM   C10S13598   5.358   1.643   7.077  0.4695  0.1710 -0.3651
  127OSM   H10S13599   5.309   1.701   7.158  1.9179 -1.1273  1.5432
  127OSM   H10T13600   5.467   1.650   7.100 -0.0241 -1.2070  2.9427
  127OSM   C11S13601   5.315   1.496   7.082 -0.9310  0.5440  0.3393
  127OSM   H11S13602   5.367   1.442   7.000 -1.1744 -0.1568  0.6348
  127OSM   H11T13603   5.206   1.482   7.071 -0.3806 -2.3367 -3.2999
  127OSM   C12S13604   5.371   1.430   7.214  0.3002 -0.1178 -0.8677
  127OSM   H12S13605   5.462   1.483   7.249  0.7082 -1.8151  0.7751
  127OSM   H12T13606   5.400   1.326   7.189  1.7867 -0.3763  1.6537
  127OSM   C13S13607   5.273   1.432   7.327 -0.4118  0.3032  0.1634
  127OSM   H13S13608   5.210   1.341   7.316  0.6181 -0.5657  1.1975
  127OSM   H13T13609   5.196   1.511   7.313  0.2150  1.4212  2.4588
  127OSM   C14S13610   5.320   1.451   7.470 -0.2048 -0.6637  0.0088
  127OSM   H14S13611   5.233   1.474   7.536 -0.9196 -1.4117 -0.6549
  127OSM   H14T13612   5.392   1.535   7.474 -1.2364  0.2412 -0.0232
  127OSM   C15S13613   5.403   1.334   7.537  0.2342 -0.4535  0.3430
  127OSM   H15S13614   5.474   1.371   7.614  1.7691 -0.8878 -0.8271
  127OSM   H15T13615   5.464   1.286   7.458 -0.2800 -0.9150  0.2218
  127OSM   C16S13616   5.310   1.222   7.585  0.2272 -0.1878 -0.1615
  127OSM   H16S13617   5.258   1.176   7.498  3.2062 -1.7432 -1.2718
  127OSM   H16T13618   5.240   1.265   7.660 -3.4319  1.1378 -3.9881
  127OSM   C17S13619   5.402   1.112   7.646 -0.2882  0.6682  0.3314
  127OSM   H17S13620   5.462   1.156   7.728 -1.9704  1.4618  1.1953
  127OSM   H17T13621   5.475   1.083   7.567  0.6685  0.2644  1.3341
  127OSM   C18S13622   5.333   0.982   7.692  0.3108 -0.6237 -0.7333
  127OSM   H18S13623   5.270   0.938   7.611  0.1837  1.5557 -1.9169
  127OSM   H18T13624   5.256   1.005   7.768  1.2693  1.0653 -0.2208
  127OSM   H18U13625   5.411   0.912   7.728 -1.5017 -2.2460  0.1757
  127OSM    C1F13626   5.262   2.240   6.676  0.5969  0.5107  0.0477
  127OSM     OF13627   5.161   2.249   6.604 -0.1438 -0.4298  0.7188
  127OSM    C2F13628   5.270   2.304   6.809  0.0997  0.0858  0.0524
  127OSM    H2F13629   5.235   2.409   6.801 -0.1662 -0.1134 -1.5287
  127OSM    H2G13630   5.373   2.295   6.849 -0.2613 -1.4855  0.7159
  127OSM    C3F13631   5.184   2.229   6.916  0.1649  0.6427  0.4747
  127OSM    H3F13632   5.243   2.137   6.936  1.7289  0.5697 -3.5807
  127OSM    H3G13633   5.079   2.207   6.886 -0.2308  1.3092  1.3521
  127OSM    C4F13634   5.169   2.312   7.041 -0.4396 -0.4238 -0.2897
  127OSM    H4F13635   5.098   2.267   7.113  1.4338 -0.2703  1.7366
  127OSM    H4G13636   5.132   2.412   7.010  0.2449  0.0110  0.2539
  127OSM    C5F13637   5.305   2.330   7.117  0.0640 -0.3709  0.0859
  127OSM    H5F13638   5.363   2.405   7.058 -1.2803  0.2220 -0.5238
  127OSM    H5G13639   5.359   2.234   7.130  1.0350 -0.5473 -4.0322
  127OSM    C6F13640   5.295   2.375   7.261 -0.2219  0.3517  0.6445
  127OSM    H6F13641   5.242   2.473   7.257 -2.4867 -0.8023  0.9061
  127OSM    H6G13642   5.397   2.393   7.301  1.3553 -1.3819 -2.2726
  127OSM    C7F13643   5.218   2.272   7.353 -0.7186  0.0789  0.2937
  127OSM    H7F13644   5.250   2.172   7.317  1.4053  0.6619  0.4137
  127OSM    H7G13645   5.112   2.284   7.324 -0.9866  1.1599  1.6256
  127OSM    C8F13646   5.233   2.302   7.500  0.2902  0.1022 -0.0775
  127OSM    H8F13647   5.341   2.329   7.511  0.1194  0.9757 -0.4229
  127OSM    H8G13648   5.204   2.213   7.560 -0.8885 -0.3072 -1.2149
  127OSM    C9F13649   5.152   2.421   7.541 -0.0764 -0.0794  0.2807
  127OSM    H9F13650   5.182   2.508   7.482 -0.3697 -1.2202 -1.6379
  127OSM   C10F13651   5.073   2.438   7.647  0.2405 -0.4788  0.1297
  127OSM   H10F13652   5.011   2.528   7.653  0.9494 -0.0499  1.4880
  127OSM   C11F13653   5.041   2.337   7.755 -0.5812 -0.1305  0.3081
  127OSM   H11F13654   5.123   2.268   7.780  0.0181  0.2111 -0.6715
  127OSM   H11G13655   4.957   2.270   7.725  0.3017 -0.6913 -1.0107
  127OSM   C12F13656   4.996   2.404   7.883 -0.1608 -0.4220 -0.1465
  127OSM   H12F13657   4.957   2.320   7.945  0.1415  1.5398  2.9265
  127OSM   H12G13658   4.922   2.486   7.873 -0.0921 -0.3840 -0.3622
  127OSM   C13F13659   5.118   2.455   7.963  0.8982 -0.0055 -0.8252
  127OSM   H13F13660   5.178   2.524   7.899  2.2046  0.7963  1.1509
  127OSM   H13G13661   5.180   2.368   7.994  0.0763  0.5946  2.9538
  127OSM   C14F13662   5.076   2.547   8.085 -0.1393  0.2626  0.3333
  127OSM   H14F13663   5.002   2.616   8.039  0.2911  0.3892 -0.1718
  127OSM   H14G13664   5.164   2.609   8.113  1.0051 -1.3935  0.5702
  127OSM   C15F13665   5.004   2.480   8.201  0.0557  0.1446  0.4533
  127OSM   H15F13666   5.071   2.416   8.262  2.3006  0.5860 -1.4089
  127OSM   H15G13667   4.917   2.422   8.163  2.6006 -1.2530 -3.8463
  127OSM   C16F13668   4.940   2.582   8.300  0.1443 -0.1726 -0.1983
  127OSM   H16F13669   4.885   2.527   8.379 -2.2736  2.0741 -0.1971
  127OSM   H16G13670   4.867   2.650   8.252  0.1635  2.4676  3.1733
  127OSM   C17F13671   5.036   2.683   8.364 -0.5895 -0.1657 -1.2116
  127OSM   H17F13672   5.072   2.745   8.279  1.0517  0.4865 -0.1103
  127OSM   H17G13673   5.128   2.651   8.419 -0.6567  1.5642 -0.0126
  127OSM   C18F13674   4.962   2.781   8.463 -0.3284 -0.0190  0.1415
  127OSM   H18F13675   4.887   2.730   8.527 -0.2869  1.0520  1.0638
  127OSM   H18G13676   4.916   2.866   8.408  1.7887  2.2854  1.7323
  127OSM   H18H13677   5.026   2.842   8.530 -1.7711  2.6541 -0.7773
  128OSM      N13678   0.494   5.816   5.812 -0.3434 -0.2350  0.5771
  128OSM    C1513679   0.456   5.717   5.712 -0.2214  0.9471  0.2887
  128OSM   H15A13680   0.483   5.618   5.746 -0.7042  0.3632 -0.9596
  128OSM   H15B13681   0.513   5.728   5.621  1.7433 -1.9202  1.0296
  128OSM   H15C13682   0.351   5.715   5.684  0.0821 -0.0699 -0.8595
  128OSM    C1413683   0.469   5.951   5.747  0.0615 -0.7759 -0.1602
  128OSM   H14A13684   0.502   5.945   5.644  0.4750  0.0653 -0.0863
  128OSM   H14B13685   0.515   6.019   5.817 -1.4444 -1.3718  1.4751
  128OSM   H14C13686   0.363   5.971   5.747 -0.3138 -2.5815  0.2534
  128OSM    C1313687   0.397   5.795   5.922 -0.3374 -0.0708  1.1371
  128OSM   H13A13688   0.311   5.745   5.878  0.3647  1.8528 -2.9763
  128OSM   H13B13689   0.366   5.889   5.966  1.9488  0.8150  0.9786
  128OSM   H13C13690   0.433   5.741   6.008  1.0480 -0.7830  0.1507
  128OSM    C1213691   0.639   5.795   5.856  0.2209  0.5233  0.2114
  128OSM   H12A13692   0.704   5.822   5.774  0.8345 -0.1134  0.4751
  128OSM   H12B13693   0.655   5.689   5.869 -2.5341 -0.3487 -2.3047
  128OSM    C1113694   0.688   5.874   5.977  0.3735  0.1547  0.6191
  128OSM   H11A13695   0.654   5.975   5.949  0.2087  0.1669  0.8575
  128OSM   H11B13696   0.799   5.880   5.970  0.6236 -3.0930 -0.1130
  128OSM      P13697   0.673   5.668   6.138  0.2048 -0.0860  0.4023
  128OSM    O1313698   0.570   5.576   6.086 -0.1960 -0.2348 -0.0854
  128OSM    O1413699   0.810   5.634   6.109 -0.3632 -0.3183  0.0379
  128OSM    O1113700   0.657   5.677   6.294  0.0917 -0.6009 -0.4003
  128OSM    O1213701   0.635   5.817   6.094 -0.6724 -0.0853 -0.4064
  128OSM    C1S13702   0.652   5.551   6.362 -0.2645 -0.1770 -0.0893
  128OSM    H1S13703   0.742   5.491   6.337 -0.0867 -0.4384  1.0834
  128OSM    H1T13704   0.557   5.495   6.351 -1.0233  1.0252  0.1164
  128OSM     NF13705   0.761   5.481   6.588  0.2309  0.3278  0.1045
  128OSM    HNF13706   0.722   5.442   6.672  0.4599 -0.5849 -0.2019
  128OSM    C2S13707   0.681   5.581   6.521  0.0425 -0.0745  0.1042
  128OSM    H2S13708   0.754   5.665   6.515 -0.4566  0.2860 -1.3195
  128OSM    C3S13709   0.550   5.639   6.592  0.4840 -0.4869 -1.0538
  128OSM    H3S13710   0.475   5.558   6.603 -0.0456  0.2842  2.3009
  128OSM     O313711   0.484   5.742   6.508  0.3300  0.7317  0.1779
  128OSM    HO313712   0.533   5.722   6.427 -1.8729  1.1502 -1.3649
  128OSM    C4S13713   0.572   5.694   6.735  0.5024 -0.1170  0.3507
  128OSM    H4S13714   0.553   5.631   6.823 -0.2712 -0.7799 -0.2794
  128OSM    C5S13715   0.611   5.826   6.760  0.2917  0.9373  0.2395
  128OSM    H5S13716   0.613   5.891   6.671 -0.6181 -0.4198 -0.8089
  128OSM    C6S13717   0.648   5.900   6.884 -0.3981 -0.1369  0.2482
  128OSM    H6S13718   0.563   5.970   6.903 -0.4755  0.2672 -1.3917
  128OSM    H6T13719   0.733   5.968   6.860 -1.3588  0.8090 -0.6111
  128OSM    C7S13720   0.688   5.819   7.005 -0.7335  0.3829  0.3844
  128OSM    H7S13721   0.779   5.756   6.988 -0.8210  0.0624  1.0799
  128OSM    H7T13722   0.601   5.754   7.029  0.6750 -1.0769  1.8001
  128OSM    C8S13723   0.703   5.897   7.133  0.0681  0.8422 -0.4631
  128OSM    H8S13724   0.615   5.962   7.146 -0.7636 -0.2569 -0.4234
  128OSM    H8T13725   0.786   5.969   7.116  0.4210  0.3244 -0.9698
  128OSM    C9S13726   0.725   5.808   7.251 -0.2274  0.2111  1.1265
  128OSM    H9S13727   0.811   5.744   7.222 -1.3050  0.0197 -2.0378
  128OSM    H9T13728   0.643   5.734   7.263  1.7371 -2.6248 -1.4547
  128OSM   C10S13729   0.759   5.870   7.387  0.0803 -0.0876  0.2055
  128OSM   H10S13730   0.694   5.960   7.396  0.1049 -0.1695  1.3040
  128OSM   H10T13731   0.859   5.918   7.379  0.0966 -0.3032 -1.2390
  128OSM   C11S13732   0.737   5.779   7.508  0.3267 -0.7632  0.1929
  128OSM   H11S13733   0.790   5.681   7.506 -0.6402 -1.3399 -2.9314
  128OSM   H11T13734   0.629   5.751   7.505  0.6718 -2.1974  0.2121
  128OSM   C12S13735   0.768   5.854   7.645 -0.3287 -0.3304  0.0908
  128OSM   H12S13736   0.728   5.957   7.654  1.4665  0.4455 -0.3495
  128OSM   H12T13737   0.878   5.863   7.643 -0.3530 -0.1092 -1.4553
  128OSM   C13S13738   0.726   5.769   7.761  0.5765 -0.6470  0.1708
  128OSM   H13S13739   0.807   5.696   7.782  0.5273 -1.1010 -1.1523
  128OSM   H13T13740   0.634   5.708   7.756  0.7391 -1.1933  2.6336
  128OSM   C14S13741   0.719   5.858   7.884 -0.1067  0.2740  0.3846
  128OSM   H14S13742   0.644   5.931   7.846 -0.1418  0.0821  0.0829
  128OSM   H14T13743   0.811   5.916   7.904  0.1174 -0.0294  0.2451
  128OSM   C15S13744   0.661   5.788   8.008 -0.1000  0.4540  0.5360
  128OSM   H15S13745   0.690   5.681   8.019 -0.5009  0.1032 -1.3645
  128OSM   H15T13746   0.550   5.778   8.001  0.1642 -2.3915 -1.4896
  128OSM   C16S13747   0.717   5.865   8.130  0.0251  0.2595  0.2983
  128OSM   H16S13748   0.652   5.867   8.220 -0.3390  2.1500  0.0268
  128OSM   H16T13749   0.721   5.973   8.104  0.2001  0.5800  1.5908
  128OSM   C17S13750   0.852   5.821   8.185  0.7113  0.6817 -0.4751
  128OSM   H17S13751   0.875   5.888   8.270 -0.1533 -0.1565  0.4416
  128OSM   H17T13752   0.931   5.829   8.106  0.9852 -2.7035 -0.6822
  128OSM   C18S13753   0.850   5.683   8.253  1.0068 -0.9939  0.2435
  128OSM   H18S13754   0.841   5.615   8.166 -1.0496  1.6188 -1.7714
  128OSM   H18T13755   0.764   5.678   8.323  1.9324  2.2508  1.8118
  128OSM   H18U13756   0.947   5.662   8.303  0.8577 -0.6076  0.7132
  128OSM    C1F13757   0.866   5.415   6.544 -0.3706  0.6690  0.4850
  128OSM     OF13758   0.945   5.456   6.454  0.2956 -0.0506  0.2408
  128OSM    C2F13759   0.887   5.284   6.617  0.1455 -0.0980  0.4631
  128OSM    H2F13760   0.811   5.208   6.590 -0.5685  0.6671  0.2787
  128OSM    H2G13761   0.872   5.317   6.722  1.5168  0.2674  0.5603
  128OSM    C3F13762   1.034   5.234   6.605 -0.4117 -0.5403 -0.2475
  128OSM    H3F13763   1.114   5.306   6.634 -0.5208  0.5553 -2.4683
  128OSM    H3G13764   1.052   5.194   6.504  5.0566  1.7091 -0.5201
  128OSM    C4F13765   1.053   5.114   6.702  0.1096  0.5062 -0.5561
  128OSM    H4F13766   1.152   5.068   6.680 -0.2139 -0.0707 -0.8484
  128OSM    H4G13767   0.986   5.031   6.670 -0.1639  0.8386 -0.8599
  128OSM    C5F13768   1.041   5.150   6.853  0.6477  0.0304 -0.3550
  128OSM    H5F13769   0.942   5.193   6.878  0.2139  0.3859 -2.5402
  128OSM    H5G13770   1.126   5.217   6.876  0.5815  0.2942 -0.8708
  128OSM    C6F13771   1.066   5.025   6.942  0.8575 -0.3415  0.7145
  128OSM    H6F13772   1.157   4.964   6.924  0.8966 -0.0277 -0.2216
  128OSM    H6G13773   0.974   4.966   6.923  0.8671  0.4023 -2.1795
  128OSM    C7F13774   1.074   5.054   7.097  0.2042 -0.0840  0.6705
  128OSM    H7F13775   0.995   5.121   7.135  0.9600 -0.8235  3.8022
  128OSM    H7G13776   1.178   5.094   7.102  0.6034 -1.1401  1.1943
  128OSM    C8F13777   1.082   4.921   7.177  0.4945  0.3388 -0.1144
  128OSM    H8F13778   1.121   4.942   7.278 -2.3158  0.4054  1.0608
  128OSM    H8G13779   1.163   4.857   7.135 -2.3330 -2.4137 -1.8581
  128OSM    C9F13780   0.950   4.843   7.168 -0.1336  0.4176 -0.0092
  128OSM    H9F13781   0.915   4.828   7.064 -0.4392  1.2423 -0.0390
  128OSM   C10F13782   0.882   4.790   7.274  0.3787  0.5780 -0.0640
  128OSM   H10F13783   0.789   4.734   7.254  1.6725 -1.0908 -1.7618
  128OSM   C11F13784   0.939   4.814   7.416 -0.4409 -0.3124 -0.1277
  128OSM   H11F13785   0.965   4.922   7.423 -1.7864  0.1851 -1.7569
  128OSM   H11G13786   1.033   4.760   7.439  0.4727  0.9518 -0.8052
  128OSM   C12F13787   0.834   4.774   7.529 -0.2411 -0.1791  0.1747
  128OSM   H12F13788   0.791   4.674   7.503 -1.5234 -0.1503  2.0118
  128OSM   H12G13789   0.747   4.841   7.529  0.4482  0.7543  1.1530
  128OSM   C13F13790   0.895   4.760   7.672 -0.0285 -0.1429 -0.5115
  128OSM   H13F13791   0.938   4.856   7.708 -1.2597  0.2007  0.1163
  128OSM   H13G13792   0.989   4.701   7.682  2.7283  4.0716  0.9747
  128OSM   C14F13793   0.793   4.713   7.787  0.0432 -0.8399 -0.0283
  128OSM   H14F13794   0.699   4.770   7.771 -1.5793 -2.9039  1.6017
  128OSM   H14G13795   0.820   4.733   7.893 -1.4051  0.1669  0.1701
  128OSM   C15F13796   0.769   4.562   7.777  0.0502  0.4588 -0.0143
  128OSM   H15F13797   0.849   4.523   7.710 -1.0076  1.0588 -1.7025
  128OSM   H15G13798   0.670   4.546   7.729 -1.1303  2.3214  1.6474
  128OSM   C16F13799   0.764   4.475   7.902 -0.2852  0.3917  0.1138
  128OSM   H16F13800   0.714   4.536   7.980 -0.6761  0.8882 -0.5049
  128OSM   H16G13801   0.868   4.469   7.939  0.9291  3.3274 -2.3345
  128OSM   C17F13802   0.681   4.351   7.881 -0.5584 -0.0854  0.5712
  128OSM   H17F13803   0.717   4.292   7.794 -0.1763  2.5626 -1.1695
  128OSM   H17G13804   0.579   4.385   7.851 -0.8145 -0.3536  1.1095
  128OSM   C18F13805   0.668   4.258   8.006  0.0334 -0.2460 -1.2133
  128OSM   H18F13806   0.617   4.302   8.094  0.1248 -0.6183 -0.9691
  128OSM   H18G13807   0.761   4.223   8.055 -0.4608  1.8154  1.4356
  128OSM   H18H13808   0.604   4.173   7.970 -3.2909  0.5741  2.1307
  129OSM      N13809   4.468   1.619   6.236 -1.0637  0.0193 -0.1136
  129OSM    C1513810   4.524   1.494   6.263 -0.0832  1.0098 -0.1938
  129OSM   H15A13811   4.472   1.424   6.200  0.7090 -0.0647  0.3034
  129OSM   H15B13812   4.508   1.470   6.367  0.1004 -2.3552 -0.8346
  129OSM   H15C13813   4.631   1.498   6.249  0.0533 -1.8157 -0.5270
  129OSM    C1413814   4.321   1.598   6.251  0.4226  0.4374  0.3853
  129OSM   H14A13815   4.269   1.692   6.241 -0.7854 -0.3437 -1.1101
  129OSM   H14B13816   4.307   1.559   6.351  1.5639 -0.6807  0.1349
  129OSM   H14C13817   4.293   1.520   6.182 -0.1570  0.9233  0.0632
  129OSM    C1313818   4.505   1.707   6.353 -0.6428  0.3820 -0.4055
  129OSM   H13A13819   4.509   1.648   6.443 -2.0954  0.5979 -0.1795
  129OSM   H13B13820   4.429   1.782   6.367 -3.5343 -2.3559 -0.2889
  129OSM   H13C13821   4.598   1.758   6.335  0.5683 -1.6852 -0.3383
  129OSM    C1213822   4.502   1.687   6.104  0.1842 -0.1288  0.1753
  129OSM   H12A13823   4.448   1.780   6.094 -0.7034 -0.8087 -2.1343
  129OSM   H12B13824   4.463   1.622   6.027 -1.6324  1.2318 -0.1307
  129OSM    C1113825   4.649   1.717   6.065 -0.9718  0.3492 -0.0779
  129OSM   H11A13826   4.666   1.759   5.964  4.4125 -2.3917 -0.6747
  129OSM   H11B13827   4.707   1.622   6.055 -0.8090  0.1502  2.2045
  129OSM      P13828   4.861   1.788   6.208 -0.5603  0.1473 -0.0585
  129OSM    O1313829   4.908   1.654   6.182 -0.2536  0.2654  0.8121
  129OSM    O1413830   4.949   1.896   6.159  0.0071 -0.3007  0.6019
  129OSM    O1113831   4.840   1.803   6.366 -0.4473 -0.3052  0.4649
  129OSM    O1213832   4.710   1.805   6.153 -0.2710 -0.2878 -0.2711
  129OSM    C1S13833   4.828   1.932   6.425 -0.1062 -0.5873 -1.4039
  129OSM    H1S13834   4.739   1.990   6.393 -0.7903 -0.3485  0.7746
  129OSM    H1T13835   4.925   1.984   6.410  1.6595 -3.1114  0.2360
  129OSM     NF13836   4.743   2.019   6.642  0.3348  0.5861  0.2051
  129OSM    HNF13837   4.792   2.101   6.670  0.3698  0.3516  0.8687
  129OSM    C2S13838   4.811   1.912   6.581 -0.3253  0.8352  0.1629
  129OSM    H2S13839   4.745   1.823   6.593  0.4046  0.4053  1.0886
  129OSM    C3S13840   4.941   1.858   6.637  0.6541  1.3557  0.3321
  129OSM    H3S13841   5.014   1.942   6.638  0.8236  1.2126  1.4871
  129OSM     O313842   5.005   1.747   6.566 -0.7102 -0.1228 -0.1007
  129OSM    HO313843   4.961   1.749   6.480  0.7727 -1.3309 -0.9524
  129OSM    C4S13844   4.928   1.824   6.783 -0.0888  0.8752  0.3987
  129OSM    H4S13845   4.918   1.715   6.795 -0.7236  0.6571 -1.7132
  129OSM    C5S13846   4.956   1.908   6.884  0.6939  0.7365 -0.5776
  129OSM    H5S13847   4.995   2.010   6.878 -0.1328  1.1864  1.1650
  129OSM    C6S13848   4.943   1.862   7.031 -0.2785  0.0152  0.1627
  129OSM    H6S13849   4.948   1.752   7.049  0.5304  0.1708  0.9750
  129OSM    H6T13850   4.842   1.898   7.059 -0.7381  1.2882 -2.7412
  129OSM    C7S13851   5.044   1.906   7.129 -0.2115  0.7318 -0.0905
  129OSM    H7S13852   5.040   2.017   7.128 -1.4267  0.7316  1.2138
  129OSM    H7T13853   5.147   1.877   7.101 -0.0515  2.3039 -1.2385
  129OSM    C8S13854   5.006   1.860   7.268 -0.0430 -0.1266 -0.4908
  129OSM    H8S13855   4.968   1.755   7.264  0.8543 -0.5129  0.5969
  129OSM    H8T13856   4.924   1.931   7.290  1.6225  2.3596 -1.8345
  129OSM    C9S13857   5.122   1.866   7.369  0.0538 -0.5767 -0.1367
  129OSM    H9S13858   5.166   1.968   7.378 -0.6170 -0.2412 -0.5981
  129OSM    H9T13859   5.207   1.809   7.326  1.3430  0.1234  1.3452
  129OSM   C10S13860   5.095   1.814   7.515 -0.6054 -0.3042 -0.3259
  129OSM   H10S13861   5.191   1.812   7.571 -0.8756 -0.2065  0.1436
  129OSM   H10T13862   5.046   1.715   7.523 -0.5171 -0.2946  0.3548
  129OSM   C11S13863   4.996   1.914   7.592 -1.0904  0.5622 -0.1064
  129OSM   H11S13864   4.892   1.899   7.556 -1.1149  0.2642  0.0876
  129OSM   H11T13865   5.026   2.021   7.579  0.9625 -0.0773 -0.9691
  129OSM   C12S13866   5.000   1.876   7.745  0.1847 -0.5604  0.1277
  129OSM   H12S13867   5.101   1.856   7.787 -0.1419 -0.9061  0.7623
  129OSM   H12T13868   4.940   1.783   7.753 -2.1532  0.8994  0.6991
  129OSM   C13S13869   4.938   1.986   7.820  0.1525 -0.0139 -0.5191
  129OSM   H13S13870   4.840   2.013   7.775 -0.2152 -0.5515 -0.0517
  129OSM   H13T13871   4.994   2.080   7.807  0.8109 -0.5711 -1.8260
  129OSM   C14S13872   4.930   1.956   7.964  0.4117 -0.0652 -0.0086
  129OSM   H14S13873   4.886   1.853   7.968 -1.0964  0.5474 -0.1326
  129OSM   H14T13874   4.851   2.022   8.006  0.2559  2.0776 -3.3232
  129OSM   C15S13875   5.060   1.958   8.046  0.3568 -0.2060 -0.1321
  129OSM   H15S13876   5.143   1.947   7.974  0.0143 -1.1400 -0.4065
  129OSM   H15T13877   5.060   1.858   8.095  0.0688  0.5216  1.4103
  129OSM   C16S13878   5.080   2.068   8.155 -0.4711 -0.3140  0.5616
  129OSM   H16S13879   4.997   2.141   8.156  0.2837  0.7779 -2.9203
  129OSM   H16T13880   5.173   2.126   8.135  0.8253 -1.9819  1.5075
  129OSM   C17S13881   5.103   2.020   8.300 -0.8257  0.5244  0.2220
  129OSM   H17S13882   5.194   1.957   8.298  0.0202  1.7202  0.3770
  129OSM   H17T13883   5.022   1.947   8.322 -0.5587  0.7465  2.0996
  129OSM   C18S13884   5.124   2.138   8.391 -0.4001 -0.9007  0.0298
  129OSM   H18S13885   5.156   2.099   8.490  1.9144 -2.1816 -1.1258
  129OSM   H18T13886   5.036   2.205   8.396  1.6723  2.3756 -2.8823
  129OSM   H18U13887   5.206   2.203   8.354 -3.2180  1.9610 -1.6408
  129OSM    C1F13888   4.621   2.055   6.630  1.1014  0.6360  0.6143
  129OSM     OF13889   4.536   1.983   6.574 -0.6346  0.1451 -0.0630
  129OSM    C2F13890   4.599   2.200   6.655 -0.0084  0.2080  0.2267
  129OSM    H2F13891   4.507   2.224   6.597 -0.7241  0.8022  1.5434
  129OSM    H2G13892   4.687   2.262   6.627  1.8472 -1.9725  0.9750
  129OSM    C3F13893   4.560   2.222   6.798  0.2344 -0.0424 -0.5630
  129OSM    H3F13894   4.500   2.134   6.831 -2.0788  0.4023 -3.2408
  129OSM    H3G13895   4.488   2.306   6.804  0.4711  0.0748  1.1919
  129OSM    C4F13896   4.671   2.247   6.902  0.1554  0.2937 -0.1022
  129OSM    H4F13897   4.746   2.310   6.851  1.3361 -0.7876  0.2624
  129OSM    H4G13898   4.727   2.155   6.928  1.3631  1.6678  2.6597
  129OSM    C5F13899   4.622   2.319   7.033  0.1049  0.6481  0.1343
  129OSM    H5F13900   4.561   2.246   7.090  3.2457 -1.2663  1.2945
  129OSM    H5G13901   4.568   2.413   7.010  2.3155  2.1171  0.6084
  129OSM    C6F13902   4.743   2.348   7.126  0.0877  0.0203  0.1168
  129OSM    H6F13903   4.820   2.397   7.062 -1.9998  0.2923 -2.3261
  129OSM    H6G13904   4.800   2.258   7.158  1.5641  1.2135  0.9440
  129OSM    C7F13905   4.697   2.442   7.236 -0.5910 -0.1762 -0.5493
  129OSM    H7F13906   4.648   2.374   7.309  0.0811 -0.6836 -0.5560
  129OSM    H7G13907   4.616   2.508   7.199  1.1696  1.1731 -2.2278
  129OSM    C8F13908   4.825   2.528   7.279  0.0383  0.0924 -0.3702
  129OSM    H8F13909   4.860   2.596   7.198  0.7600  1.0579  0.7176
  129OSM    H8G13910   4.915   2.463   7.291  0.5935  0.8492 -0.3614
  129OSM    C9F13911   4.800   2.619   7.400  0.6209  0.4033 -0.0191
  129OSM    H9F13912   4.739   2.577   7.482 -0.3301  1.1593 -0.3246
  129OSM   C10F13913   4.818   2.748   7.412  0.1664  0.5408 -0.2175
  129OSM   H10F13914   4.780   2.807   7.497 -0.2504 -0.7966  0.5410
  129OSM   C11F13915   4.885   2.830   7.306 -0.3428  0.1051 -1.1281
  129OSM   H11F13916   4.819   2.829   7.217 -0.2164  1.7473 -1.2677
  129OSM   H11G13917   4.983   2.793   7.270 -0.6168  0.1813 -1.9700
  129OSM   C12F13918   4.913   2.976   7.344 -0.8701 -0.0246 -1.4611
  129OSM   H12F13919   4.820   3.028   7.377  0.4475  1.1781  0.6002
  129OSM   H12G13920   4.946   3.037   7.258  0.4754  1.2827 -0.0770
  129OSM   C13F13921   5.002   3.004   7.466  0.2393 -0.0486 -0.5275
  129OSM   H13F13922   4.950   2.981   7.561 -0.3395  0.1381 -0.7938
  129OSM   H13G13923   5.025   3.112   7.468  0.8102 -0.1813  0.2901
  129OSM   C14F13924   5.126   2.929   7.474 -0.0099 -0.6914 -0.1997
  129OSM   H14F13925   5.189   2.963   7.389 -0.7945  1.8496  0.1445
  129OSM   H14G13926   5.122   2.818   7.471 -0.0008 -0.6882 -0.3558
  129OSM   C15F13927   5.200   2.967   7.615  0.0758  0.1013  0.5512
  129OSM   H15F13928   5.178   3.073   7.638  2.3982  1.3465 -2.2887
  129OSM   H15G13929   5.309   2.957   7.593 -0.2611 -0.8757 -0.8526
  129OSM   C16F13930   5.156   2.882   7.738  0.1878 -0.5070 -0.2521
  129OSM   H16F13931   5.167   2.775   7.712 -1.1766 -0.0503 -3.0973
  129OSM   H16G13932   5.045   2.882   7.748  0.0679 -2.5339 -1.3067
  129OSM   C17F13933   5.217   2.934   7.869 -0.2360 -0.2625 -0.0375
  129OSM   H17F13934   5.214   3.044   7.852  1.7584 -0.2894 -0.9217
  129OSM   H17G13935   5.323   2.900   7.872 -0.9203 -2.6438 -0.7017
  129OSM   C18F13936   5.133   2.906   7.993 -0.3129  0.0651  0.8854
  129OSM   H18F13937   5.108   2.799   7.980  0.7586  0.0345 -1.3367
  129OSM   H18G13938   5.039   2.964   7.993  0.3043  1.1006  0.3259
  129OSM   H18H13939   5.189   2.922   8.088 -0.7367  0.9370  1.0051
  130OSM      N13940   1.256   4.536   5.886  0.3070  0.1525  0.3922
  130OSM    C1513941   1.113   4.564   5.858 -0.2743 -0.2782  0.1648
  130OSM   H15A13942   1.055   4.478   5.885  2.2483 -1.1424  3.4737
  130OSM   H15B13943   1.104   4.589   5.753 -1.4064 -0.1628  0.2763
  130OSM   H15C13944   1.067   4.649   5.906 -0.9250 -0.4194 -0.1941
  130OSM    C1413945   1.291   4.406   5.822  0.9171 -0.2800 -0.3042
  130OSM   H14A13946   1.398   4.404   5.809  0.7725  0.7954 -1.8060
  130OSM   H14B13947   1.238   4.414   5.729  1.7419 -0.7665 -0.8344
  130OSM   H14C13948   1.257   4.316   5.872 -1.5119  1.2912  1.0525
  130OSM    C1313949   1.346   4.636   5.821 -0.1662 -0.4540  0.0263
  130OSM   H13A13950   1.333   4.649   5.715 -1.6274 -0.1992  0.2079
  130OSM   H13B13951   1.447   4.624   5.855 -0.5887  2.1520  2.5835
  130OSM   H13C13952   1.329   4.733   5.864 -0.4057  1.0900 -3.3031
  130OSM    C1213953   1.275   4.550   6.039  0.7744  0.6038 -0.2867
  130OSM   H12A13954   1.184   4.517   6.087  1.2012 -0.2525 -0.0437
  130OSM   H12B13955   1.269   4.655   6.060 -2.8991  0.5512 -0.4936
  130OSM    C1113956   1.405   4.501   6.100  0.5932 -0.0187  0.4728
  130OSM   H11A13957   1.415   4.392   6.083 -2.2521 -0.3798  0.6866
  130OSM   H11B13958   1.386   4.494   6.209  1.3601  0.5857  0.6604
  130OSM      P13959   1.535   4.720   6.106 -0.3585  0.0346  0.1071
  130OSM    O1313960   1.672   4.764   6.074  0.3800  0.6008 -0.2864
  130OSM    O1413961   1.422   4.804   6.064  0.2045 -0.2976  0.6632
  130OSM    O1113962   1.534   4.705   6.273  0.7859  0.8805  0.5594
  130OSM    O1213963   1.523   4.572   6.060 -0.5304  0.0292 -0.3659
  130OSM    C1S13964   1.426   4.750   6.354  0.4649 -0.2308  0.4811
  130OSM    H1S13965   1.335   4.710   6.306  0.4552  0.2547  0.0863
  130OSM    H1T13966   1.426   4.861   6.368 -1.5824  0.1653 -1.9901
  130OSM     NF13967   1.316   4.731   6.568 -0.2655 -0.8399  0.1122
  130OSM    HNF13968   1.328   4.783   6.652 -2.9795 -1.2621  0.8586
  130OSM    C2S13969   1.440   4.694   6.492 -0.0960 -0.2208  0.1599
  130OSM    H2S13970   1.443   4.584   6.479 -0.1343 -0.2479  0.3646
  130OSM    C3S13971   1.571   4.732   6.567 -0.4868 -1.2138 -0.2146
  130OSM    H3S13972   1.563   4.841   6.585  0.7731 -0.6168 -2.7552
  130OSM     O313973   1.682   4.712   6.483 -0.1622 -0.4378  0.3519
  130OSM    HO313974   1.650   4.684   6.397 -1.7964  3.1713 -0.4003
  130OSM    C4S13975   1.591   4.659   6.697 -0.3726  0.5348  0.1731
  130OSM    H4S13976   1.572   4.720   6.787  0.9447  1.5231 -0.1961
  130OSM    C5S13977   1.651   4.536   6.712  0.5020 -0.7845  0.2875
  130OSM    H5S13978   1.681   4.473   6.627  0.7388  0.3278 -0.4811
  130OSM    C6S13979   1.690   4.476   6.839 -0.5186  0.4210 -0.7622
  130OSM    H6S13980   1.796   4.444   6.838 -1.2227 -2.1784 -1.4032
  130OSM    H6T13981   1.647   4.373   6.846 -0.4111  0.4877  2.7693
  130OSM    C7S13982   1.674   4.558   6.969 -0.0165  0.4970  0.1153
  130OSM    H7S13983   1.573   4.604   6.972 -0.5771 -0.7486  1.7494
  130OSM    H7T13984   1.741   4.647   6.975  0.4212  0.1387  0.5276
  130OSM    C8S13985   1.667   4.468   7.096 -0.6803 -0.1116  0.2719
  130OSM    H8S13986   1.766   4.417   7.101  0.4059  1.9481  1.4074
  130OSM    H8T13987   1.585   4.395   7.085  0.8509 -1.8715  0.0691
  130OSM    C9S13988   1.651   4.545   7.226  0.1428 -0.2488 -0.2756
  130OSM    H9S13989   1.563   4.613   7.220  2.4501  2.8653 -1.5996
  130OSM    H9T13990   1.739   4.609   7.250 -0.0162 -0.3621  0.6564
  130OSM   C10S13991   1.646   4.453   7.349  0.3738 -0.4816 -0.4585
  130OSM   H10S13992   1.729   4.378   7.353  1.9202  1.1205  3.4720
  130OSM   H10T13993   1.544   4.410   7.348 -0.2918  0.7995  2.2295
  130OSM   C11S13994   1.657   4.527   7.484  0.3456  0.2561 -0.2158
  130OSM   H11S13995   1.563   4.587   7.481  0.8534  1.4518  3.2634
  130OSM   H11T13996   1.747   4.592   7.477  1.0753 -0.6534  0.5671
  130OSM   C12S13997   1.643   4.441   7.602  0.4294 -0.1922  0.3518
  130OSM   H12S13998   1.719   4.361   7.603 -0.4361 -1.0693 -1.0410
  130OSM   H12T13999   1.543   4.391   7.607  0.6835 -0.7479 -0.0505
  130OSM   C13S14000   1.647   4.516   7.732  0.0980  0.1361  0.4378
  130OSM   H13S14001   1.590   4.611   7.717  1.1070  0.7445  0.3567
  130OSM   H13T14002   1.754   4.536   7.756  1.6695 -2.1227 -3.6591
  130OSM   C14S14003   1.603   4.429   7.856 -0.7291 -0.7639  1.0458
  130OSM   H14S14004   1.658   4.333   7.870  0.2840 -0.6145 -1.5031
  130OSM   H14T14005   1.499   4.398   7.829  0.5704 -1.0590 -5.0910
  130OSM   C15S14006   1.609   4.508   7.982 -0.4916 -0.9859 -0.1946
  130OSM   H15S14007   1.516   4.568   7.993 -0.0294 -0.5059  1.4274
  130OSM   H15T14008   1.700   4.572   7.977 -0.5756 -0.9803 -2.6353
  130OSM   C16S14009   1.627   4.411   8.102 -0.0603 -0.3259  0.4471
  130OSM   H16S14010   1.727   4.365   8.095 -0.7180 -1.7748  0.1974
  130OSM   H16T14011   1.564   4.323   8.079 -0.2150  0.3610 -2.2059
  130OSM   C17S14012   1.610   4.462   8.244  0.1078 -0.3091  0.4878
  130OSM   H17S14013   1.525   4.531   8.267 -0.9122 -1.8176  1.4209
  130OSM   H17T14014   1.692   4.536   8.257 -0.4488  0.3737  0.2299
  130OSM   C18S14015   1.625   4.348   8.348  0.5401 -0.9034 -0.0307
  130OSM   H18S14016   1.677   4.381   8.440  0.7508 -0.3487 -0.3475
  130OSM   H18T14017   1.672   4.262   8.295  1.9605 -0.4004  0.3503
  130OSM   H18U14018   1.526   4.316   8.386  0.5849  0.8962  1.7596
  130OSM    C1F14019   1.195   4.691   6.535 -0.0172  0.2953  0.0152
  130OSM     OF14020   1.170   4.598   6.453  0.5862 -0.4044  0.4954
  130OSM    C2F14021   1.078   4.764   6.597  0.6807 -0.1880 -0.3790
  130OSM    H2F14022   1.038   4.837   6.523  0.0099 -0.0716  0.0926
  130OSM    H2G14023   1.129   4.823   6.676  1.7082 -0.2574 -0.9667
  130OSM    C3F14024   0.964   4.665   6.646  0.0572  0.2129  0.4063
  130OSM    H3F14025   1.021   4.581   6.690  0.2068  0.6764  1.1054
  130OSM    H3G14026   0.912   4.629   6.555  0.9723 -0.7967  0.2718
  130OSM    C4F14027   0.858   4.722   6.742 -0.3727 -0.0614  0.1753
  130OSM    H4F14028   0.771   4.766   6.690  0.7382  2.2465  0.1423
  130OSM    H4G14029   0.894   4.807   6.804 -0.5601  1.5222 -1.8089
  130OSM    C5F14030   0.806   4.608   6.846 -0.5001 -0.0773  0.2807
  130OSM    H5F14031   0.765   4.665   6.932  1.3491  1.0829  0.4483
  130OSM    H5G14032   0.906   4.575   6.879 -0.1766 -0.3498 -0.9056
  130OSM    C6F14033   0.714   4.500   6.787  0.1136 -0.3059 -0.6494
  130OSM    H6F14034   0.780   4.463   6.707  2.8922 -1.8857  2.1449
  130OSM    H6G14035   0.622   4.547   6.747  0.1607 -0.7075 -1.2399
  130OSM    C7F14036   0.678   4.385   6.884  0.3455  0.4031 -0.2241
  130OSM    H7F14037   0.765   4.344   6.940  0.0342 -0.0184 -0.0487
  130OSM    H7G14038   0.641   4.303   6.819  0.5167 -0.4457  0.7341
  130OSM    C8F14039   0.565   4.406   6.991 -0.6615 -0.1940  0.8583
  130OSM    H8F14040   0.490   4.465   6.933  1.2006  1.4046 -0.0667
  130OSM    H8G14041   0.595   4.476   7.072  0.1376  0.0724  0.3403
  130OSM    C9F14042   0.520   4.279   7.059  0.4999 -0.3929 -0.3348
  130OSM    H9F14043   0.462   4.215   6.992  1.1433  0.7508 -2.0642
  130OSM   C10F14044   0.546   4.234   7.178 -1.0356  0.0100 -0.4501
  130OSM   H10F14045   0.502   4.137   7.209 -2.6534  0.6449 -0.6864
  130OSM   C11F14046   0.628   4.311   7.281 -0.3442  0.3128  0.3433
  130OSM   H11F14047   0.715   4.368   7.243  1.1540 -0.4754  2.4252
  130OSM   H11G14048   0.680   4.238   7.346  0.3715 -1.2605 -1.8598
  130OSM   C12F14049   0.543   4.411   7.348 -0.1264 -0.4165 -0.0993
  130OSM   H12F14050   0.506   4.479   7.269 -0.7393 -0.7317 -0.0859
  130OSM   H12G14051   0.612   4.468   7.414 -2.0803  0.4303  1.3114
  130OSM   C13F14052   0.418   4.363   7.425  0.4017 -0.6353 -0.7161
  130OSM   H13F14053   0.450   4.290   7.502 -2.1638 -2.3218 -1.1322
  130OSM   H13G14054   0.362   4.303   7.350  1.5704 -0.3380 -1.8887
  130OSM   C14F14055   0.336   4.470   7.497 -0.6168  0.1864 -0.4838
  130OSM   H14F14056   0.253   4.411   7.543 -0.2164  0.3047  0.4105
  130OSM   H14G14057   0.280   4.537   7.429 -1.4771 -2.0985 -2.1695
  130OSM   C15F14058   0.421   4.541   7.605  0.2123 -0.4374 -0.1731
  130OSM   H15F14059   0.502   4.600   7.556  0.1773 -0.1760  0.0801
  130OSM   H15G14060   0.481   4.466   7.661 -1.1454 -1.2317  0.2770
  130OSM   C16F14061   0.326   4.619   7.698 -0.5028  0.3769  0.5484
  130OSM   H16F14062   0.237   4.557   7.723 -0.2888 -1.6846 -3.0871
  130OSM   H16G14063   0.284   4.705   7.641 -1.2119 -0.1135  0.3166
  130OSM   C17F14064   0.394   4.667   7.824 -0.4070  0.0257  0.3426
  130OSM   H17F14065   0.491   4.711   7.793  0.0763 -0.4302  1.1900
  130OSM   H17G14066   0.425   4.578   7.882  0.1488 -0.6805 -0.9940
  130OSM   C18F14067   0.312   4.766   7.898 -0.1165  0.5462 -0.4493
  130OSM   H18F14068   0.347   4.863   7.858  2.2613 -0.4508 -0.9337
  130OSM   H18G14069   0.342   4.746   8.003 -0.2732 -3.6231 -1.0128
  130OSM   H18H14070   0.205   4.749   7.874  0.2100 -0.2420 -1.3628
  131OSM      N14071   5.025   0.295   5.719 -0.2946 -0.0755 -0.1550
  131OSM    C1514072   4.902   0.205   5.696  0.5541  0.8270  0.2995
  131OSM   H15A14073   4.854   0.238   5.605 -1.4705 -4.7069 -0.9701
  131OSM   H15B14074   4.846   0.199   5.788 -0.8420 -2.0404 -0.6234
  131OSM   H15C14075   4.932   0.106   5.666  2.0474  1.6163 -1.0342
  131OSM    C1414076   5.077   0.260   5.856 -0.3294 -0.2815  0.1380
  131OSM   H14A14077   5.179   0.292   5.868 -0.2159  0.1014 -1.6538
  131OSM   H14B14078   5.069   0.152   5.865  0.8813 -0.4084 -0.2123
  131OSM   H14C14079   5.016   0.302   5.935  1.0489  0.9798  0.5821
  131OSM    C1314080   5.116   0.256   5.610  0.3883  0.0569 -0.6443
  131OSM   H13A14081   5.201   0.320   5.627 -0.3568  0.6335  1.1160
  131OSM   H13B14082   5.084   0.265   5.507 -1.0990 -1.9372 -0.4356
  131OSM   H13C14083   5.146   0.152   5.620 -1.3662 -0.3893  0.2984
  131OSM    C1214084   4.986   0.441   5.705  0.1017  0.5328 -0.0949
  131OSM   H12A14085   4.916   0.470   5.781 -1.3305 -1.8767 -0.3878
  131OSM   H12B14086   4.936   0.465   5.612 -0.9444  1.1498  0.6212
  131OSM    C1114087   5.100   0.551   5.722 -0.2079  0.1089  0.3289
  131OSM   H11A14088   5.064   0.644   5.672  2.2362  1.4232  0.8568
  131OSM   H11B14089   5.190   0.522   5.663  0.5103 -0.1440  1.5227
  131OSM      P14090   5.033   0.645   5.956  0.3941  0.3006 -0.5486
  131OSM    O1314091   5.075   0.788   5.954  0.6553 -0.1329 -0.2653
  131OSM    O1414092   4.895   0.622   5.922  0.6502  0.2832  0.1517
  131OSM    O1114093   5.070   0.594   6.103  0.2663  0.2969  0.4035
  131OSM    O1214094   5.134   0.573   5.859 -0.3902 -0.2841 -0.2147
  131OSM    C1S14095   5.211   0.604   6.130  0.9265 -0.0834 -0.2159
  131OSM    H1S14096   5.258   0.694   6.086 -2.5821  1.4725 -1.0855
  131OSM    H1T14097   5.271   0.525   6.079  0.4988 -0.1254 -0.6719
  131OSM     NF14098   5.391   0.625   6.300  0.3914  1.1356  0.7889
  131OSM    HNF14099   5.446   0.543   6.312 -0.9225  0.4690  2.8113
  131OSM    C2S14100   5.246   0.611   6.287 -1.1511 -0.1782 -0.6082
  131OSM    H2S14101   5.196   0.704   6.319  1.0321  1.1733 -0.8943
  131OSM    C3S14102   5.193   0.483   6.354 -0.1606  0.2713 -0.3599
  131OSM    H3S14103   5.254   0.394   6.326 -0.1007 -0.1206  0.9454
  131OSM     O314104   5.053   0.455   6.325 -0.6538  0.2665  0.3260
  131OSM    HO314105   5.029   0.510   6.249 -1.9988 -1.2730 -0.4163
  131OSM    C4S14106   5.203   0.491   6.505  0.4352 -0.1082 -0.5285
  131OSM    H4S14107   5.123   0.558   6.540  0.6229 -0.3361  0.3657
  131OSM    C5S14108   5.268   0.410   6.598 -0.0155  0.1134 -0.1100
  131OSM    H5S14109   5.338   0.334   6.561  0.8764  0.5333  0.6861
  131OSM    C6S14110   5.258   0.416   6.754 -0.0274  0.7481  0.4088
  131OSM    H6S14111   5.361   0.409   6.795  0.2575 -1.0431 -0.5392
  131OSM    H6T14112   5.214   0.321   6.791  0.6571 -1.0382 -2.9535
  131OSM    C7S14113   5.203   0.537   6.816 -0.4008 -0.1262  0.3990
  131OSM    H7S14114   5.102   0.559   6.775  0.6506  0.2605 -2.1959
  131OSM    H7T14115   5.266   0.623   6.785 -0.3501  0.0512  0.9883
  131OSM    C8S14116   5.184   0.532   6.971 -1.0666 -0.2465  0.5442
  131OSM    H8S14117   5.156   0.635   7.002 -1.0441 -0.0549 -0.0484
  131OSM    H8T14118   5.283   0.531   7.020 -0.2888  0.3169 -0.9398
  131OSM    C9S14119   5.072   0.442   7.025 -0.1364 -0.5494  0.1208
  131OSM    H9S14120   5.100   0.335   7.018 -0.2239 -0.5213 -0.8068
  131OSM    H9T14121   4.989   0.455   6.952  0.4270 -1.8738 -0.7883
  131OSM   C10S14122   5.040   0.456   7.170  0.3243 -0.0610  1.2102
  131OSM   H10S14123   4.963   0.381   7.197  0.4930 -0.9842 -0.7057
  131OSM   H10T14124   5.011   0.561   7.193  0.4877  0.0591  0.8748
  131OSM   C11S14125   5.156   0.420   7.259 -0.2342  0.8370 -0.1148
  131OSM   H11S14126   5.250   0.458   7.215 -0.6217  0.9729 -0.8394
  131OSM   H11T14127   5.170   0.310   7.271 -1.4534  0.7256  0.4709
  131OSM   C12S14128   5.136   0.482   7.401 -0.2726  0.3418 -0.2653
  131OSM   H12S14129   5.091   0.584   7.401 -0.9059  0.1024  1.7585
  131OSM   H12T14130   5.238   0.514   7.429 -0.2388 -0.2645  0.3249
  131OSM   C13S14131   5.059   0.395   7.504 -0.7147  0.0306  0.3564
  131OSM   H13S14132   5.092   0.291   7.483 -0.1503  0.2657  0.0692
  131OSM   H13T14133   4.953   0.408   7.474 -1.0837  1.4357  2.1044
  131OSM   C14S14134   5.096   0.428   7.653  1.0015 -0.2303  0.1551
  131OSM   H14S14135   5.206   0.419   7.666  0.8587 -0.4498  1.3717
  131OSM   H14T14136   5.048   0.354   7.720  0.5018 -0.7775 -0.7947
  131OSM   C15S14137   5.040   0.567   7.681  0.0172 -0.5066 -0.2842
  131OSM   H15S14138   4.929   0.561   7.681 -0.2514  1.0498  3.5133
  131OSM   H15T14139   5.082   0.635   7.604  0.9644  1.7327  2.0479
  131OSM   C16S14140   5.083   0.629   7.815 -0.3014 -0.5237 -0.1468
  131OSM   H16S14141   5.194   0.618   7.815 -0.1645  0.4972  1.5957
  131OSM   H16T14142   5.053   0.561   7.897 -1.5957 -1.1062 -1.0849
  131OSM   C17S14143   5.042   0.776   7.840 -0.1846 -0.6273  0.1288
  131OSM   H17S14144   4.933   0.773   7.857  0.0967  1.3879  2.8189
  131OSM   H17T14145   5.077   0.828   7.748  1.3628 -1.0098  0.4774
  131OSM   C18S14146   5.114   0.830   7.959 -1.0945  0.2886  0.2529
  131OSM   H18S14147   5.098   0.935   7.990 -2.5586  0.6493 -1.5745
  131OSM   H18T14148   5.224   0.816   7.956 -1.0898 -1.0035  3.0160
  131OSM   H18U14149   5.086   0.776   8.053  0.4036 -0.6479  0.1958
  131OSM    C1F14150   5.452   0.736   6.287 -0.2825  0.1837 -0.2188
  131OSM     OF14151   5.390   0.840   6.256  0.1267  0.5962 -0.1930
  131OSM    C2F14152   5.594   0.727   6.332  0.8204 -0.4296  0.2973
  131OSM    H2F14153   5.649   0.769   6.245 -0.9032 -3.9806 -2.8115
  131OSM    H2G14154   5.617   0.621   6.353  2.2503 -1.5792 -5.3351
  131OSM    C3F14155   5.620   0.833   6.443  0.4665 -0.0869  0.2072
  131OSM    H3F14156   5.618   0.934   6.396  1.3554 -0.0541  0.2140
  131OSM    H3G14157   5.724   0.819   6.479  0.3979  0.3358  0.5772
  131OSM    C4F14158   5.529   0.821   6.565 -0.8109  0.3623  0.0231
  131OSM    H4F14159   5.538   0.719   6.608 -0.4336 -0.6062 -2.1935
  131OSM    H4G14160   5.423   0.836   6.536 -0.3261  1.3172 -1.3363
  131OSM    C5F14161   5.569   0.921   6.672  0.2264 -0.9705 -0.8425
  131OSM    H5F14162   5.539   1.024   6.643  2.4256 -0.2699 -0.7969
  131OSM    H5G14163   5.680   0.922   6.682  0.1208  0.8443  0.4393
  131OSM    C6F14164   5.506   0.875   6.802 -0.0932 -0.3852 -0.6615
  131OSM    H6F14165   5.560   0.789   6.848  1.3447  1.4578  1.3008
  131OSM    H6G14166   5.397   0.859   6.788 -0.0013 -0.6580 -1.0768
  131OSM    C7F14167   5.506   0.990   6.902  0.2637  0.0160  0.4468
  131OSM    H7F14168   5.437   1.073   6.874  1.3771  2.2620  3.6769
  131OSM    H7G14169   5.601   1.048   6.906  0.3900 -0.0918 -0.6581
  131OSM    C8F14170   5.461   0.934   7.042 -0.0465  0.3333 -0.4425
  131OSM    H8F14171   5.551   0.889   7.089 -0.8240 -0.6243  0.1910
  131OSM    H8G14172   5.383   0.856   7.032  0.7337 -0.7049  1.2126
  131OSM    C9F14173   5.403   1.036   7.146 -0.2080  0.3244 -0.6461
  131OSM    H9F14174   5.485   1.085   7.200  1.6635 -1.7998 -1.4066
  131OSM   C10F14175   5.268   1.055   7.182  0.2477 -0.0958 -0.3486
  131OSM   H10F14176   5.241   1.121   7.266  2.4580  0.9770 -0.4191
  131OSM   C11F14177   5.142   0.993   7.128  0.2499 -0.0678  0.5266
  131OSM   H11F14178   5.173   0.925   7.046  0.8102  0.0027  0.6761
  131OSM   H11G14179   5.076   1.070   7.083  2.3830  1.1321 -0.7425
  131OSM   C12F14180   5.063   0.910   7.224  0.3247 -0.1217 -0.1844
  131OSM   H12F14181   5.129   0.832   7.268 -0.4748  1.5234  4.5404
  131OSM   H12G14182   4.978   0.861   7.173  0.0696 -1.2011  1.2278
  131OSM   C13F14183   5.011   1.001   7.339 -0.1358 -0.7455  0.3745
  131OSM   H13F14184   4.962   1.087   7.290 -1.3070 -0.5434  1.8117
  131OSM   H13G14185   5.096   1.033   7.403 -0.5587  1.1426  0.0530
  131OSM   C14F14186   4.913   0.927   7.434  0.0748  0.5609 -0.1874
  131OSM   H14F14187   4.956   0.833   7.474  2.1844  1.8495  0.7455
  131OSM   H14G14188   4.830   0.899   7.364  0.4775  0.2792 -0.5583
  131OSM   C15F14189   4.869   1.004   7.549  0.2908 -0.7893  1.0583
  131OSM   H15F14190   4.826   1.101   7.517 -0.5695 -1.3035  0.6105
  131OSM   H15G14191   4.947   1.034   7.623 -0.7036  1.9999  1.0787
  131OSM   C16F14192   4.754   0.938   7.631 -0.2659 -0.1615  0.4024
  131OSM   H16F14193   4.797   0.844   7.674 -1.0956 -1.1726 -0.9031
  131OSM   H16G14194   4.666   0.907   7.572  0.7819 -1.1948 -0.6722
  131OSM   C17F14195   4.704   1.020   7.751  0.3365 -0.3869 -0.1704
  131OSM   H17F14196   4.641   1.099   7.708 -1.3311 -1.6616 -0.1780
  131OSM   H17G14197   4.786   1.062   7.814 -1.2437  1.1485  0.9388
  131OSM   C18F14198   4.615   0.936   7.847  0.2999  0.3630 -0.9684
  131OSM   H18F14199   4.562   0.984   7.931 -0.0218 -1.6055  0.0015
  131OSM   H18G14200   4.685   0.863   7.893 -0.9614 -0.7794 -0.8132
  131OSM   H18H14201   4.546   0.877   7.784  2.9404 -2.3455 -1.5298
  132OSM      N14202   0.396   1.689   6.000  0.0473  0.1270 -0.3018
  132OSM    C1514203   0.376   1.576   5.902 -0.1336  0.0279  0.1861
  132OSM   H15A14204   0.472   1.534   5.875 -0.0187 -0.4914  1.3284
  132OSM   H15B14205   0.334   1.622   5.814 -0.4527  0.4080  0.5357
  132OSM   H15C14206   0.303   1.508   5.943 -1.1307  0.2144 -1.2134
  132OSM    C1414207   0.504   1.783   5.949  0.0645  0.2548 -0.2634
  132OSM   H14A14208   0.601   1.736   5.950  1.1273  2.2846 -0.6270
  132OSM   H14B14209   0.499   1.869   6.014 -0.8350  1.6221 -2.0263
  132OSM   H14C14210   0.489   1.820   5.848  1.8523 -2.2353 -1.5583
  132OSM    C1314211   0.271   1.767   5.998  0.0108  0.1507 -0.8519
  132OSM   H13A14212   0.189   1.720   6.050  0.5181  1.2761  1.0664
  132OSM   H13B14213   0.240   1.797   5.899 -1.0307 -1.3789 -1.0307
  132OSM   H13C14214   0.300   1.854   6.056  0.3609 -0.7519  0.3805
  132OSM    C1214215   0.432   1.645   6.137 -0.1076  0.4936 -1.2280
  132OSM   H12A14216   0.501   1.564   6.116 -1.1945 -0.6395 -0.5569
  132OSM   H12B14217   0.341   1.597   6.170 -0.1706  2.5858  2.0842
  132OSM    C1114218   0.466   1.745   6.248  0.2863  0.3771  0.1692
  132OSM   H11A14219   0.560   1.799   6.222  0.5915  0.9915  2.2966
  132OSM   H11B14220   0.487   1.681   6.337  0.4093  2.4141  1.6876
  132OSM      P14221   0.389   1.992   6.273  0.2258  0.0423  0.3274
  132OSM    O1314222   0.473   2.038   6.159 -0.1004  0.4351  0.2868
  132OSM    O1414223   0.254   2.051   6.272 -0.1194  0.0321  0.1351
  132OSM    O1114224   0.455   2.019   6.409 -0.3227 -0.2285 -0.9669
  132OSM    O1214225   0.354   1.836   6.269 -0.7169  0.5656  0.8532
  132OSM    C1S14226   0.402   1.946   6.522  0.0074 -0.8193  0.0808
  132OSM    H1S14227   0.429   1.840   6.506 -1.5227 -1.3131  0.5974
  132OSM    H1T14228   0.292   1.957   6.534 -0.0162 -2.0739  1.2009
  132OSM     NF14229   0.444   1.914   6.771 -0.7026 -0.0359 -0.4677
  132OSM    HNF14230   0.381   1.949   6.840  0.4173  2.8813 -0.7933
  132OSM    C2S14231   0.461   2.006   6.654 -0.0672 -1.1217 -0.0667
  132OSM    H2S14232   0.571   2.010   6.639 -0.0797 -0.8138 -0.0879
  132OSM    C3S14233   0.402   2.149   6.682  0.5423 -0.1064 -0.9929
  132OSM    H3S14234   0.301   2.140   6.725 -0.0462  1.2557 -1.9950
  132OSM     O314235   0.381   2.231   6.566  0.5422 -0.5267  0.3837
  132OSM    HO314236   0.408   2.174   6.494 -0.0533  1.3857 -1.4511
  132OSM    C4S14237   0.480   2.230   6.779 -0.1887  0.0687  0.0800
  132OSM    H4S14238   0.426   2.227   6.875  0.5523  1.3937  0.5730
  132OSM    C5S14239   0.585   2.309   6.759  0.5281  0.0660  0.5739
  132OSM    H5S14240   0.640   2.306   6.664  1.5008  0.3700  1.1176
  132OSM    C6S14241   0.650   2.393   6.862 -0.3085  0.2362 -0.6619
  132OSM    H6S14242   0.655   2.502   6.839 -1.0073 -0.0005 -2.0343
  132OSM    H6T14243   0.756   2.366   6.880  0.3201  2.9427  0.1838
  132OSM    C7S14244   0.590   2.380   7.000  0.4522 -0.0876 -0.1404
  132OSM    H7S14245   0.598   2.275   7.036  2.9990 -1.5547 -4.3337
  132OSM    H7T14246   0.486   2.418   6.992  1.1969  2.1907  0.0590
  132OSM    C8S14247   0.651   2.478   7.100  0.0493 -0.7371  0.0089
  132OSM    H8S14248   0.625   2.583   7.075 -0.8301 -0.8475  0.4406
  132OSM    H8T14249   0.760   2.460   7.083  0.2122  1.7439 -2.3412
  132OSM    C9S14250   0.602   2.454   7.243 -0.6482  0.1256  0.6229
  132OSM    H9S14251   0.623   2.347   7.265  2.1748  0.3103 -0.7920
  132OSM    H9T14252   0.495   2.480   7.258  0.0085  2.4130  1.9606
  132OSM   C10S14253   0.668   2.534   7.347  0.2909 -0.6070 -0.0804
  132OSM   H10S14254   0.604   2.620   7.375  0.4460 -0.2496 -0.8051
  132OSM   H10T14255   0.765   2.572   7.309 -0.2464  0.5456 -0.3392
  132OSM   C11S14256   0.698   2.466   7.475 -0.2100  0.6394 -0.2572
  132OSM   H11S14257   0.774   2.386   7.464 -0.0871  0.3600  2.1165
  132OSM   H11T14258   0.608   2.432   7.531 -0.8424  3.0363  0.3148
  132OSM   C12S14259   0.756   2.570   7.576  0.5496  0.9847  0.6462
  132OSM   H12S14260   0.672   2.639   7.602 -1.9585 -1.3318 -0.7878
  132OSM   H12T14261   0.842   2.620   7.526  0.0266  2.5693  1.2482
  132OSM   C13S14262   0.813   2.499   7.704 -0.5937 -0.0919 -0.2446
  132OSM   H13S14263   0.858   2.573   7.774  0.1993 -0.2618 -0.5628
  132OSM   H13T14264   0.896   2.427   7.687 -0.2575  0.2067  0.1096
  132OSM   C14S14265   0.695   2.431   7.773  0.1739  0.2395 -0.1747
  132OSM   H14S14266   0.677   2.337   7.717 -0.8312  0.0252  0.4856
  132OSM   H14T14267   0.597   2.483   7.781 -0.9380 -1.7030 -0.6083
  132OSM   C15S14268   0.708   2.408   7.919 -0.1498  0.1972 -0.0295
  132OSM   H15S14269   0.801   2.367   7.963  1.5429  3.2397 -0.4857
  132OSM   H15T14270   0.635   2.328   7.944 -0.7286  0.1490 -1.7414
  132OSM   C16S14271   0.665   2.524   8.009  0.5267 -0.9961 -0.3789
  132OSM   H16S14272   0.558   2.542   7.985 -0.2429 -0.6951  2.8242
  132OSM   H16T14273   0.725   2.616   7.992 -1.4393  0.1323 -1.6741
  132OSM   C17S14274   0.662   2.481   8.156  0.0463 -0.2063  0.1733
  132OSM   H17S14275   0.769   2.460   8.178  0.4715  1.9799  0.4612
  132OSM   H17T14276   0.596   2.393   8.171 -1.4992  1.0013  0.8053
  132OSM   C18S14277   0.598   2.591   8.247 -0.8279  0.2582  0.2677
  132OSM   H18S14278   0.663   2.680   8.251  2.3860 -1.9792  1.8167
  132OSM   H18T14279   0.595   2.548   8.349  1.6600 -0.4912  0.0793
  132OSM   H18U14280   0.498   2.623   8.208 -0.1195  1.7151 -0.4250
  132OSM    C1F14281   0.514   1.802   6.780 -0.6791  0.5257 -0.0331
  132OSM     OF14282   0.582   1.762   6.687  0.0388  0.1209  0.5820
  132OSM    C2F14283   0.487   1.714   6.897  0.1267 -0.0510 -0.1745
  132OSM    H2F14284   0.484   1.607   6.865  0.1505 -0.7114  1.8665
  132OSM    H2G14285   0.387   1.733   6.940  0.3773 -0.6599  0.7153
  132OSM    C3F14286   0.584   1.722   7.018  0.2261 -0.3938  0.2122
  132OSM    H3F14287   0.581   1.828   7.054  2.6911 -0.3774  0.5150
  132OSM    H3G14288   0.686   1.693   6.987  0.7779  0.5141  1.1226
  132OSM    C4F14289   0.536   1.628   7.130 -0.4045 -0.2000 -0.2718
  132OSM    H4F14290   0.598   1.536   7.130  2.0379  1.3166 -2.5586
  132OSM    H4G14291   0.427   1.604   7.124 -0.7603  1.2864 -0.1155
  132OSM    C5F14292   0.576   1.690   7.264  0.7244  0.2403 -0.0393
  132OSM    H5F14293   0.521   1.779   7.302  0.6594  0.6799 -1.1483
  132OSM    H5G14294   0.680   1.714   7.236 -0.2874 -0.2621 -5.3122
  132OSM    C6F14295   0.581   1.582   7.379  0.3065  1.4081 -0.2605
  132OSM    H6F14296   0.690   1.579   7.398  0.3755  2.1904 -0.4766
  132OSM    H6G14297   0.547   1.485   7.336 -0.6828  1.1941  0.9436
  132OSM    C7F14298   0.500   1.617   7.496 -0.2390  0.3364  0.7576
  132OSM    H7F14299   0.398   1.630   7.452 -0.4602  0.5512  1.3189
  132OSM    H7G14300   0.528   1.719   7.530 -0.1766 -0.0390  1.8562
  132OSM    C8F14301   0.519   1.525   7.615 -0.5640 -0.5552  0.8382
  132OSM    H8F14302   0.611   1.544   7.674 -0.6230 -1.1721  1.1324
  132OSM    H8G14303   0.524   1.423   7.573  2.1115  0.1488 -0.7766
  132OSM    C9F14304   0.408   1.528   7.717  1.0232  0.7456 -0.2677
  132OSM    H9F14305   0.307   1.512   7.677  0.4114 -1.2393  1.8506
  132OSM   C10F14306   0.429   1.521   7.852  0.1154 -0.2952 -0.2348
  132OSM   H10F14307   0.347   1.524   7.925  0.4279  0.2389  0.1012
  132OSM   C11F14308   0.557   1.510   7.933 -0.2649 -0.6500  0.0633
  132OSM   H11F14309   0.548   1.538   8.040  1.6969 -0.5939  0.2375
  132OSM   H11G14310   0.629   1.584   7.892  0.4924 -1.4166 -0.0042
  132OSM   C12F14311   0.606   1.367   7.934  0.2638  0.6168 -0.1190
  132OSM   H12F14312   0.691   1.353   8.004 -0.5567 -0.0831  0.7545
  132OSM   H12G14313   0.636   1.331   7.833  0.8830  1.2151 -0.1595
  132OSM   C13F14314   0.505   1.266   7.990  0.5909  0.2556  0.0306
  132OSM   H13F14315   0.410   1.267   7.933 -1.2901 -2.4929  2.7656
  132OSM   H13G14316   0.491   1.306   8.092  1.8400  1.1125 -0.1054
  132OSM   C14F14317   0.555   1.123   7.988 -0.0942 -0.3389 -0.7960
  132OSM   H14F14318   0.656   1.111   8.033  0.0593 -1.0245 -1.3051
  132OSM   H14G14319   0.556   1.076   7.887  1.1518 -2.5966  0.1798
  132OSM   C15F14320   0.466   1.025   8.063 -0.3073 -0.1686 -0.2744
  132OSM   H15F14321   0.361   1.033   8.027 -0.8177 -0.0051  1.1862
  132OSM   H15G14322   0.457   1.067   8.165 -1.4925 -0.4097 -0.2657
  132OSM   C16F14323   0.509   0.873   8.066 -0.1511  0.2047 -0.3071
  132OSM   H16F14324   0.602   0.861   8.125 -2.9053 -2.2605  4.0638
  132OSM   H16G14325   0.527   0.839   7.962  2.1907 -0.9235  0.4105
  132OSM   C17F14326   0.402   0.787   8.130  0.8055  0.2178  0.3125
  132OSM   H17F14327   0.365   0.840   8.220  1.0350  1.0205 -0.0586
  132OSM   H17G14328   0.448   0.690   8.161 -1.5521 -1.4667 -1.1500
  132OSM   C18F14329   0.277   0.755   8.042  0.6176 -0.2503 -0.4200
  132OSM   H18F14330   0.212   0.684   8.097 -1.7054  0.9999 -1.3837
  132OSM   H18G14331   0.308   0.708   7.946 -0.5461 -3.0427  0.4662
  132OSM   H18H14332   0.212   0.844   8.026 -2.3641 -2.3759 -1.0744
  133OSM      N14333   0.957   2.197   5.968 -0.3830  0.5797  0.4814
  133OSM    C1514334   1.086   2.132   5.930 -0.4509  0.3618  0.2549
  133OSM   H15A14335   1.075   2.053   5.857 -1.0988  0.1266  0.6010
  133OSM   H15B14336   1.140   2.087   6.013 -2.6568 -0.4651  1.3069
  133OSM   H15C14337   1.144   2.218   5.898  1.3293 -0.9948 -0.3318
  133OSM    C1414338   0.984   2.305   6.063  0.6040 -0.0903 -1.0613
  133OSM   H14A14339   1.034   2.273   6.153 -1.8569  0.1052  0.4680
  133OSM   H14B14340   0.888   2.344   6.094  1.1905  0.9835 -0.5353
  133OSM   H14C14341   1.044   2.379   6.013  1.5022 -0.9827 -1.3458
  133OSM    C1314342   0.895   2.256   5.838  0.4588  0.0032 -0.1684
  133OSM   H13A14343   0.883   2.189   5.754  1.1296  0.7231 -0.8607
  133OSM   H13B14344   0.952   2.341   5.803 -1.7118  1.2774 -0.8119
  133OSM   H13C14345   0.795   2.293   5.853  0.4582 -0.8467  2.3744
  133OSM    C1214346   0.862   2.091   6.025  0.3212  0.1187 -0.0733
  133OSM   H12A14347   0.856   2.015   5.949  0.2788  1.0768 -1.0558
  133OSM   H12B14348   0.767   2.143   6.025 -0.0493 -0.5484 -0.0539
  133OSM    C1114349   0.889   2.040   6.165 -0.4727  0.3155 -0.0241
  133OSM   H11A14350   0.798   1.979   6.180 -1.4664  1.3085 -1.7292
  133OSM   H11B14351   0.875   2.124   6.236 -1.7070  0.8988 -0.9378
  133OSM      P14352   1.033   1.821   6.162 -0.1285 -0.1912 -0.0422
  133OSM    O1314353   0.916   1.764   6.090 -0.3099 -0.5449  0.3246
  133OSM    O1414354   1.167   1.781   6.113 -0.0557 -0.5448  0.0506
  133OSM    O1114355   1.024   1.789   6.315  0.4032  0.7301 -0.0366
  133OSM    O1214356   1.019   1.979   6.175  0.5864 -0.9405 -0.4598
  133OSM    C1S14357   0.922   1.724   6.388 -0.1301  0.6238 -0.2372
  133OSM    H1S14358   0.919   1.613   6.377  0.3855  0.6294 -0.4599
  133OSM    H1T14359   0.825   1.757   6.344 -0.4507  0.1926  0.1417
  133OSM     NF14360   0.854   1.692   6.624 -0.4968  0.1005 -0.0151
  133OSM    HNF14361   0.759   1.719   6.638 -0.0613  1.4396  0.5419
  133OSM    C2S14362   0.934   1.774   6.539  1.4887 -0.4698 -0.3146
  133OSM    H2S14363   1.041   1.757   6.564  2.2221 -0.8824 -3.3495
  133OSM    C3S14364   0.883   1.918   6.550 -0.4843 -0.0884  0.1281
  133OSM    H3S14365   0.790   1.933   6.492 -1.8017 -1.6689  1.7330
  133OSM     O314366   0.972   2.004   6.473 -0.4586 -0.1668  0.0047
  133OSM    HO314367   1.007   1.948   6.403 -0.8768 -0.8284  0.3142
  133OSM    C4S14368   0.862   1.970   6.690  0.2700 -0.5956 -1.1202
  133OSM    H4S14369   0.768   1.937   6.737  1.2711  0.5235  1.9141
  133OSM    C5S14370   0.943   2.054   6.761  0.2539 -0.0607  0.7132
  133OSM    H5S14371   1.043   2.072   6.721  0.9579 -2.2702  1.3648
  133OSM    C6S14372   0.933   2.104   6.898  0.2093  0.2367  0.1598
  133OSM    H6S14373   0.932   2.215   6.895 -2.0383  0.3230  1.6397
  133OSM    H6T14374   1.023   2.080   6.959 -1.1806 -1.9936  1.4857
  133OSM    C7S14375   0.810   2.055   6.970  0.5766  0.1699 -0.2753
  133OSM    H7S14376   0.808   1.944   6.979 -1.1861  0.3159  1.9256
  133OSM    H7T14377   0.714   2.075   6.917  1.9055  2.5154 -1.9602
  133OSM    C8S14378   0.809   2.100   7.117  0.1111 -0.4649 -0.7726
  133OSM    H8S14379   0.787   2.209   7.127 -1.5013 -0.8535  0.4617
  133OSM    H8T14380   0.910   2.094   7.163 -0.1063 -0.4460 -0.2843
  133OSM    C9S14381   0.714   2.021   7.204 -0.4345 -0.3525  0.0380
  133OSM    H9S14382   0.741   1.916   7.179  3.6396  0.3037  0.9967
  133OSM    H9T14383   0.608   2.049   7.184 -0.2989  1.3446  1.4586
  133OSM   C10S14384   0.745   2.036   7.354  0.3387 -0.8249  0.3385
  133OSM   H10S14385   0.768   2.143   7.374  2.8046 -1.1569 -0.2937
  133OSM   H10T14386   0.842   1.990   7.383  1.4127  1.1872  0.1681
  133OSM   C11S14387   0.632   1.986   7.439 -0.0773  0.6437 -0.1753
  133OSM   H11S14388   0.647   1.877   7.455 -1.6400  0.5601  0.8678
  133OSM   H11T14389   0.534   1.996   7.387  1.2311 -0.1863 -3.0311
  133OSM   C12S14390   0.642   2.052   7.570  0.2813  0.4290 -0.0910
  133OSM   H12S14391   0.601   2.155   7.556 -0.6563  0.0583 -0.1965
  133OSM   H12T14392   0.749   2.065   7.594  0.6433 -1.6748 -0.4175
  133OSM   C13S14393   0.577   1.969   7.686  0.1443 -0.2352  0.0837
  133OSM   H13S14394   0.622   1.868   7.699 -0.2019 -0.2929  0.8796
  133OSM   H13T14395   0.470   1.949   7.667 -0.2574  1.2287  0.6568
  133OSM   C14S14396   0.583   2.051   7.820  0.4199  0.0887 -0.3670
  133OSM   H14S14397   0.538   2.148   7.792  1.3940  0.0455 -2.2385
  133OSM   H14T14398   0.681   2.066   7.870 -1.4393  1.0094  3.3208
  133OSM   C15S14399   0.501   1.984   7.932  0.1350 -0.1596 -0.2181
  133OSM   H15S14400   0.539   1.880   7.938 -1.7750 -0.8407  1.1735
  133OSM   H15T14401   0.399   1.977   7.888 -0.4775  0.7333  0.9956
  133OSM   C16S14402   0.517   2.042   8.079 -0.3139  0.5071 -0.1709
  133OSM   H16S14403   0.496   2.151   8.080  2.5181  1.3202 -4.1400
  133OSM   H16T14404   0.623   2.022   8.107 -0.2008  0.8008 -0.3945
  133OSM   C17S14405   0.423   1.986   8.174  0.5566 -0.9665  0.3443
  133OSM   H17S14406   0.322   2.015   8.138  1.1214 -0.5830 -1.0224
  133OSM   H17T14407   0.446   2.036   8.270 -0.6752  0.1478  0.0958
  133OSM   C18S14408   0.408   1.831   8.192 -0.4313  0.3714  0.3310
  133OSM   H18S14409   0.507   1.794   8.226 -0.5549  0.6065  0.9614
  133OSM   H18T14410   0.373   1.774   8.104  0.1629  1.4913 -0.6472
  133OSM   H18U14411   0.345   1.814   8.282 -4.4958  0.6176 -2.2355
  133OSM    C1F14412   0.901   1.571   6.662  0.2374  0.3547  0.6534
  133OSM     OF14413   1.021   1.542   6.647  0.7080  0.5061 -0.0059
  133OSM    C2F14414   0.798   1.465   6.721 -0.6043  0.0133  0.8114
  133OSM    H2F14415   0.805   1.373   6.660 -2.6103  0.5150 -0.2666
  133OSM    H2G14416   0.696   1.507   6.706 -0.0629  0.7898 -1.0489
  133OSM    C3F14417   0.827   1.413   6.858 -0.5235 -0.0650  0.1489
  133OSM    H3F14418   0.845   1.502   6.921 -1.2745 -0.1508  0.4961
  133OSM    H3G14419   0.919   1.351   6.855  0.3651  1.2094  0.2004
  133OSM    C4F14420   0.712   1.328   6.905 -0.0534  0.0093 -0.6600
  133OSM    H4F14421   0.688   1.246   6.834  0.4963 -0.8282  0.0901
  133OSM    H4G14422   0.623   1.392   6.922  0.4376  0.6185 -0.3539
  133OSM    C5F14423   0.765   1.255   7.030 -0.0334 -0.4105  0.4546
  133OSM    H5F14424   0.804   1.328   7.104  0.7630  0.8704 -1.1539
  133OSM    H5G14425   0.854   1.193   7.004  1.1825  1.1152  0.7735
  133OSM    C6F14426   0.652   1.161   7.084 -0.0008 -0.4040  0.6023
  133OSM    H6F14427   0.615   1.097   7.001 -0.6602  1.2740 -0.4476
  133OSM    H6G14428   0.569   1.225   7.121  0.9894  0.7694  0.8770
  133OSM    C7F14429   0.705   1.070   7.193  1.1049 -0.1109 -0.3579
  133OSM    H7F14430   0.770   0.991   7.150  2.1010 -0.8887  2.3635
  133OSM    H7G14431   0.616   1.013   7.229  0.7223  1.2429  0.9310
  133OSM    C8F14432   0.753   1.131   7.325 -0.0634  0.0933 -0.3336
  133OSM    H8F14433   0.679   1.201   7.369 -0.6930 -2.0148  2.2688
  133OSM    H8G14434   0.847   1.187   7.311 -0.5536  1.4314  1.3882
  133OSM    C9F14435   0.772   1.016   7.421  0.0697 -0.5591 -0.2864
  133OSM    H9F14436   0.872   0.971   7.416  0.6322  0.6746 -0.5165
  133OSM   C10F14437   0.681   0.975   7.508  0.7777  0.7099  0.8421
  133OSM   H10F14438   0.718   0.896   7.576  1.6757  2.5679  2.6058
  133OSM   C11F14439   0.543   1.039   7.527 -0.2662 -0.0402  0.1047
  133OSM   H11F14440   0.489   1.092   7.445 -1.0300 -0.1141  0.5501
  133OSM   H11G14441   0.557   1.119   7.602  1.7196 -0.3915  0.1686
  133OSM   C12F14442   0.446   0.940   7.602 -0.1809  0.8868 -0.7621
  133OSM   H12F14443   0.362   0.999   7.644  0.2674  1.0702 -0.1152
  133OSM   H12G14444   0.497   0.905   7.694  2.7680  0.3737 -2.4534
  133OSM   C13F14445   0.392   0.835   7.505  0.4672  0.0704 -0.2304
  133OSM   H13F14446   0.477   0.788   7.450 -0.3339 -1.1327 -0.4811
  133OSM   H13G14447   0.327   0.888   7.431 -0.5524  0.3119  0.8162
  133OSM   C14F14448   0.303   0.726   7.572  0.5035 -0.2928 -0.1796
  133OSM   H14F14449   0.212   0.777   7.611 -0.5451 -2.4038  0.2868
  133OSM   H14G14450   0.366   0.691   7.657  0.7544 -0.1430 -0.3026
  133OSM   C15F14451   0.256   0.614   7.479  0.1412  0.2089  0.0227
  133OSM   H15F14452   0.341   0.569   7.425  0.5509 -1.1724  1.7337
  133OSM   H15G14453   0.195   0.661   7.399 -1.1351 -1.4768 -0.0416
  133OSM   C16F14454   0.167   0.515   7.541 -0.6298 -0.1221 -0.1556
  133OSM   H16F14455   0.071   0.541   7.592 -0.5955 -2.5344  1.3296
  133OSM   H16G14456   0.236   0.462   7.611  0.0002 -0.3112 -0.9054
  133OSM   C17F14457   0.105   0.414   7.442 -0.4937 -0.8521 -0.6927
  133OSM   H17F14458   0.068   0.340   7.516  2.1082 -1.1372  0.4645
  133OSM   H17G14459   0.185   0.360   7.387  1.1650 -1.6999  2.3145
  133OSM   C18F14460   0.004   0.460   7.335  0.5408  0.7637  0.0785
  133OSM   H18F14461  -0.035   0.367   7.288  1.1767  0.6694 -0.2727
  133OSM   H18G14462   0.036   0.534   7.259 -1.9517  1.9908  0.1247
  133OSM   H18H14463  -0.083   0.499   7.392  0.5482 -1.3383  1.6469
  134OSM      N14464   1.716   5.603   6.494 -0.6008  0.3808  0.5366
  134OSM    C1514465   1.577   5.569   6.470  0.6165  0.1601 -0.2907
  134OSM   H15A14466   1.571   5.462   6.456 -0.5154  0.3837 -1.7643
  134OSM   H15B14467   1.553   5.614   6.375  2.1055  0.1745 -0.6877
  134OSM   H15C14468   1.518   5.583   6.559  1.9410  1.4740  0.4116
  134OSM    C1414469   1.793   5.558   6.373 -0.0598 -0.6349  0.4222
  134OSM   H14A14470   1.791   5.450   6.368 -1.6066 -0.7322  2.1737
  134OSM   H14B14471   1.897   5.585   6.367 -0.2848  0.4090  0.9769
  134OSM   H14C14472   1.741   5.592   6.284 -1.8260 -2.1987  0.7959
  134OSM    C1314473   1.737   5.754   6.503 -0.7190 -0.2111 -0.3216
  134OSM   H13A14474   1.675   5.801   6.579 -0.0398 -0.9522  0.7251
  134OSM   H13B14475   1.713   5.800   6.409  1.1604 -0.2482 -0.8527
  134OSM   H13C14476   1.838   5.773   6.536 -0.3007 -2.3997 -0.2449
  134OSM    C1214477   1.774   5.534   6.621  0.0574 -0.7134  0.0026
  134OSM   H12A14478   1.709   5.573   6.697 -1.4018 -2.4009 -0.3131
  134OSM   H12B14479   1.869   5.583   6.634 -0.7017  1.1998 -1.2493
  134OSM    C1114480   1.794   5.385   6.624 -0.0482  0.7678  0.4901
  134OSM   H11A14481   1.700   5.336   6.590  0.0810  1.3077 -0.6859
  134OSM   H11B14482   1.834   5.349   6.722  0.4178 -0.7122 -0.2073
  134OSM      P14483   1.976   5.227   6.514  0.0158 -0.2795 -0.4033
  134OSM    O1314484   1.972   5.180   6.373 -0.2981  0.5311  0.2784
  134OSM    O1414485   2.114   5.245   6.573  0.5506  0.5090  0.1755
  134OSM    O1114486   1.903   5.120   6.602  0.2509  0.1985  0.3632
  134OSM    O1214487   1.899   5.360   6.529 -0.3624 -0.1766 -0.1102
  134OSM    C1S14488   1.950   5.094   6.735 -0.1858  0.2239 -0.1844
  134OSM    H1S14489   1.884   5.159   6.796 -1.3771  1.5577 -2.7147
  134OSM    H1T14490   2.053   5.120   6.766 -0.3319 -1.6942  2.1798
  134OSM     NF14491   1.970   4.908   6.907  0.0069  0.1753  0.3045
  134OSM    HNF14492   2.063   4.878   6.922  0.1039 -0.4388 -1.3307
  134OSM    C2S14493   1.937   4.939   6.768  0.1029 -0.5212  0.2731
  134OSM    H2S14494   1.831   4.907   6.756  0.1649 -0.5037 -0.3863
  134OSM    C3S14495   2.023   4.861   6.664  0.0413 -0.0446  0.1085
  134OSM    H3S14496   2.121   4.914   6.658 -0.1860  0.2932 -0.6959
  134OSM     O314497   1.969   4.870   6.528  0.2653 -0.0025  0.5373
  134OSM    HO314498   1.897   4.932   6.536  0.4254  0.1001  1.2973
  134OSM    C4S14499   2.033   4.711   6.692  0.0713  0.2150  0.4967
  134OSM    H4S14500   1.950   4.649   6.656  2.3489 -3.2341  0.7833
  134OSM    C5S14501   2.138   4.640   6.732  0.5172 -0.1303 -0.6967
  134OSM    H5S14502   2.229   4.698   6.755  0.4553 -0.7004  1.1408
  134OSM    C6S14503   2.152   4.494   6.747  0.1745 -0.6566  0.3973
  134OSM    H6S14504   2.223   4.456   6.670 -0.6373 -0.4863 -0.4515
  134OSM    H6T14505   2.062   4.434   6.723  0.9762 -1.2099 -1.4099
  134OSM    C7S14506   2.200   4.457   6.881 -0.4437  0.2382 -0.4065
  134OSM    H7S14507   2.294   4.516   6.886 -0.9933  1.3610 -2.3716
  134OSM    H7T14508   2.229   4.351   6.869 -0.4765 -0.0393  1.5329
  134OSM    C8S14509   2.094   4.480   6.995  0.0117  0.5212 -0.2273
  134OSM    H8S14510   1.997   4.429   6.976  0.1773  0.7674 -1.8493
  134OSM    H8T14511   2.067   4.587   7.010  4.8368  1.8222  1.2110
  134OSM    C9S14512   2.154   4.425   7.128 -0.3826 -0.8318  0.0568
  134OSM    H9S14513   2.261   4.451   7.142 -0.0563 -2.8107  1.7771
  134OSM    H9T14514   2.156   4.314   7.121 -0.3272 -0.7377 -1.9418
  134OSM   C10S14515   2.071   4.473   7.247  0.1203 -0.2852 -0.0674
  134OSM   H10S14516   1.970   4.430   7.229 -0.3573 -0.2031  2.1262
  134OSM   H10T14517   2.065   4.584   7.252 -1.3288 -0.3180 -0.5759
  134OSM   C11S14518   2.123   4.436   7.390 -0.0607 -0.4183  0.3867
  134OSM   H11S14519   2.225   4.481   7.389 -0.8724  1.7340 -2.6977
  134OSM   H11T14520   2.119   4.326   7.401 -1.7666 -0.7902 -2.6961
  134OSM   C12S14521   2.056   4.487   7.514  0.0361 -0.4756 -0.4091
  134OSM   H12S14522   1.949   4.458   7.512 -0.2786  0.6636 -0.8110
  134OSM   H12T14523   2.060   4.598   7.509 -1.2774 -0.1287  3.3318
  134OSM   C13S14524   2.125   4.428   7.642 -0.0830 -0.5632 -0.1485
  134OSM   H13S14525   2.233   4.452   7.636  0.1834 -1.6176  0.1667
  134OSM   H13T14526   2.129   4.317   7.643  0.3516 -0.5485  1.4623
  134OSM   C14S14527   2.063   4.476   7.769  0.1554  0.1024  0.0130
  134OSM   H14S14528   1.955   4.478   7.744  0.1482  2.0390 -0.0207
  134OSM   H14T14529   2.088   4.582   7.792  0.2491  0.0080  0.3534
  134OSM   C15S14530   2.103   4.390   7.888  0.0575 -0.0443  0.1643
  134OSM   H15S14531   2.214   4.398   7.891  0.2198 -0.5226 -2.3263
  134OSM   H15T14532   2.092   4.281   7.869  0.0216 -0.2550  1.2913
  134OSM   C16S14533   2.037   4.445   8.017  0.4276  0.1941  0.4000
  134OSM   H16S14534   1.926   4.438   8.018  0.5157 -1.7699  1.1834
  134OSM   H16T14535   2.063   4.552   8.027 -0.9065  0.8473 -2.2837
  134OSM   C17S14536   2.078   4.385   8.158 -0.1464 -0.0421  0.4278
  134OSM   H17S14537   2.184   4.355   8.175 -0.1012 -1.1856 -1.5692
  134OSM   H17T14538   2.027   4.286   8.161 -0.1446 -0.0323  0.8209
  134OSM   C18S14539   2.021   4.468   8.280  0.2365  0.2013 -0.2850
  134OSM   H18S14540   2.047   4.413   8.373 -0.5225  2.2631  1.2194
  134OSM   H18T14541   1.913   4.488   8.262 -0.1643 -1.6869 -0.1708
  134OSM   H18U14542   2.068   4.568   8.284  0.8176 -0.0975  0.5382
  134OSM    C1F14543   1.894   4.935   7.014  0.0642  0.2125  0.3896
  134OSM     OF14544   1.791   4.999   6.997 -0.3614 -0.1050 -0.2653
  134OSM    C2F14545   1.949   4.903   7.152 -0.4111  1.1568  0.6252
  134OSM    H2F14546   2.053   4.942   7.162 -0.1860  0.5976  0.5165
  134OSM    H2G14547   1.964   4.793   7.165  0.0838  1.1739  0.2490
  134OSM    C3F14548   1.862   4.961   7.258 -0.2774 -0.1922 -0.2501
  134OSM    H3F14549   1.756   4.949   7.228  0.2242  1.0939 -2.6890
  134OSM    H3G14550   1.885   5.067   7.278 -4.2182  0.5696  1.0334
  134OSM    C4F14551   1.871   4.895   7.401  0.1672 -0.4016  0.0838
  134OSM    H4F14552   1.979   4.876   7.414  0.2883 -0.8388 -1.4086
  134OSM    H4G14553   1.829   4.792   7.402  0.7845 -0.6562  0.3747
  134OSM    C5F14554   1.810   4.982   7.516 -0.4716  0.3360  0.3692
  134OSM    H5F14555   1.699   4.980   7.509 -0.3612  0.6283 -4.0153
  134OSM    H5G14556   1.840   5.087   7.496 -0.4144 -0.1864 -2.9248
  134OSM    C6F14557   1.861   4.938   7.655 -0.9573  0.1153  0.2438
  134OSM    H6F14558   1.971   4.944   7.668 -0.5986  2.0529 -2.7325
  134OSM    H6G14559   1.840   4.832   7.682  2.5459  0.0905  3.5362
  134OSM    C7F14560   1.792   5.017   7.772 -0.0532 -0.5227  0.5937
  134OSM    H7F14561   1.684   4.993   7.761  0.4833 -2.0787 -2.5631
  134OSM    H7G14562   1.801   5.127   7.766 -0.1833 -0.5639 -0.7204
  134OSM    C8F14563   1.837   4.956   7.909  0.3431  0.3631  0.4102
  134OSM    H8F14564   1.819   4.846   7.917  1.6477  0.1783  1.2390
  134OSM    H8G14565   1.774   5.002   7.988  0.3970  0.9563  0.1098
  134OSM    C9F14566   1.979   4.966   7.946  0.1021 -0.4353 -0.2328
  134OSM    H9F14567   2.048   5.032   7.891  0.2423  2.0183  2.6506
  134OSM   C10F14568   2.049   4.907   8.045 -0.7632  0.5106  0.6234
  134OSM   H10F14569   2.157   4.911   8.025 -1.2525 -0.9254 -3.2071
  134OSM   C11F14570   2.001   4.807   8.146  0.2428  0.3643 -0.0065
  134OSM   H11F14571   2.093   4.778   8.201 -0.5749 -0.0632  1.1743
  134OSM   H11G14572   1.949   4.727   8.091  0.3994  0.3974 -0.2069
  134OSM   C12F14573   1.904   4.876   8.241 -0.1159  0.4629  0.6916
  134OSM   H12F14574   1.816   4.924   8.194 -0.5342 -0.8229  0.1155
  134OSM   H12G14575   1.965   4.954   8.291 -2.2002  0.5240  3.3944
  134OSM   C13F14576   1.859   4.778   8.351  0.8864 -0.1109 -0.0346
  134OSM   H13F14577   1.961   4.737   8.367  0.9897  0.9260  2.4145
  134OSM   H13G14578   1.800   4.700   8.300  0.3070  0.8708 -0.9143
  134OSM   C14F14579   1.777   4.838   8.465 -0.0501  0.3001 -0.3671
  134OSM   H14F14580   1.808   4.943   8.485 -0.9405  0.1248  2.4151
  134OSM   H14G14581   1.797   4.781   8.558  0.7976  1.0317 -0.0818
  134OSM   C15F14582   1.621   4.843   8.451  0.4253 -0.0584  0.2554
  134OSM   H15F14583   1.564   4.753   8.483 -1.2130 -0.1764 -2.5671
  134OSM   H15G14584   1.596   4.862   8.344  2.5539  0.1089 -0.2643
  134OSM   C16F14585   1.558   4.956   8.533 -1.1036  0.1274  0.0107
  134OSM   H16F14586   1.458   4.978   8.490 -1.7456  1.2419  1.9524
  134OSM   H16G14587   1.626   5.045   8.535 -0.3584 -0.4299 -0.0896
  134OSM   C17F14588   1.533   4.924   8.682 -0.0191  0.4162  0.6477
  134OSM   H17F14589   1.449   4.853   8.690 -0.9324  1.3931  0.0673
  134OSM   H17G14590   1.496   5.014   8.737 -1.1654  0.4064 -0.0731
  134OSM   C18F14591   1.645   4.865   8.764  0.3314 -0.1195 -0.6575
  134OSM   H18F14592   1.611   4.865   8.870  0.9374  1.0339 -0.4431
  134OSM   H18G14593   1.727   4.940   8.762  1.4397 -1.2458  0.5011
  134OSM   H18H14594   1.677   4.765   8.728  0.0867 -0.7081  0.7002
  135OSM      N14595   1.654   5.117   6.146  0.3300 -0.0135  0.0947
  135OSM    C1514596   1.639   5.259   6.173 -0.4914 -0.2045 -0.3352
  135OSM   H15A14597   1.691   5.280   6.265 -2.1776  2.3462  0.1442
  135OSM   H15B14598   1.538   5.282   6.206 -0.4002 -0.1429 -0.0962
  135OSM   H15C14599   1.669   5.323   6.091  0.4280 -2.5267 -1.9421
  135OSM    C1414600   1.582   5.091   6.013 -0.6802 -0.1843  0.5464
  135OSM   H14A14601   1.603   5.171   5.944 -0.9456  1.1453  1.9472
  135OSM   H14B14602   1.477   5.067   6.018 -0.6114 -1.3018 -2.1195
  135OSM   H14C14603   1.623   5.001   5.971 -3.3365 -1.0656 -0.3869
  135OSM    C1314604   1.799   5.094   6.129 -0.5050  0.6378  0.7320
  135OSM   H13A14605   1.835   5.155   6.047 -0.7998  2.2098  1.7120
  135OSM   H13B14606   1.821   4.989   6.116 -1.0285  0.4689  1.1662
  135OSM   H13C14607   1.851   5.136   6.214 -0.6345  1.8359  0.2381
  135OSM    C1214608   1.598   5.034   6.258 -0.9339  0.2772 -0.0595
  135OSM   H12A14609   1.635   4.933   6.249  0.3291  0.7285 -0.2054
  135OSM   H12B14610   1.492   5.036   6.239 -0.9311  3.4737 -0.3346
  135OSM    C1114611   1.633   5.081   6.395 -0.2317 -0.6978  0.6380
  135OSM   H11A14612   1.742   5.101   6.393 -0.4765  0.6884 -0.3299
  135OSM   H11B14613   1.627   4.998   6.469 -1.5448  0.4806  1.9350
  135OSM      P14614   1.405   5.195   6.478 -0.0486  0.2982 -0.2523
  135OSM    O1314615   1.356   5.325   6.533  0.4600  0.2020  0.1795
  135OSM    O1414616   1.330   5.129   6.367 -0.3960  0.3693  0.3470
  135OSM    O1114617   1.422   5.098   6.609 -0.2640 -0.0363 -0.4115
  135OSM    O1214618   1.556   5.201   6.434 -0.2651 -0.1218  0.3677
  135OSM    C1S14619   1.522   5.148   6.707 -0.8721  0.3582  0.3460
  135OSM    H1S14620   1.530   5.259   6.705 -1.1874  0.4084  1.2376
  135OSM    H1T14621   1.620   5.099   6.692 -0.6872  0.6293  0.6351
  135OSM     NF14622   1.566   5.187   6.951  0.1653 -0.8808 -0.2216
  135OSM    HNF14623   1.640   5.128   6.982  1.0958  0.9783  1.2594
  135OSM    C2S14624   1.481   5.119   6.855  0.3812 -0.6889 -0.1074
  135OSM    H2S14625   1.377   5.156   6.861  0.9204  0.7526  1.2290
  135OSM    C3S14626   1.458   4.965   6.880 -0.4465 -0.0353 -0.3237
  135OSM    H3S14627   1.558   4.925   6.851 -0.4914 -0.8055  0.5278
  135OSM     O314628   1.373   4.887   6.797 -0.3945  0.4301  0.9295
  135OSM    HO314629   1.345   4.960   6.741  1.2564 -0.6302 -1.5017
  135OSM    C4S14630   1.426   4.925   7.014 -0.0072  0.5679  0.0614
  135OSM    H4S14631   1.320   4.941   7.039 -0.4214  0.9293 -1.7975
  135OSM    C5S14632   1.507   4.876   7.113 -0.2167 -0.4890  0.4972
  135OSM    H5S14633   1.613   4.855   7.099 -0.3496 -0.9536  0.1812
  135OSM    C6S14634   1.454   4.864   7.253 -0.5030  0.2402 -0.4650
  135OSM    H6S14635   1.537   4.807   7.301  1.4149  1.3631 -2.2477
  135OSM    H6T14636   1.359   4.806   7.251  0.2963 -1.1427  0.4095
  135OSM    C7S14637   1.414   4.990   7.335 -0.2776  0.5522 -0.1697
  135OSM    H7S14638   1.347   5.055   7.274 -0.2882 -0.0798 -0.8323
  135OSM    H7T14639   1.507   5.045   7.362  0.2732 -0.7709  0.7633
  135OSM    C8S14640   1.346   4.956   7.466 -0.4837 -0.7431 -0.7872
  135OSM    H8S14641   1.257   4.893   7.443 -1.5690  0.4792 -0.0537
  135OSM    H8T14642   1.301   5.048   7.509 -2.4133 -1.2818 -1.5423
  135OSM    C9S14643   1.443   4.883   7.563 -0.8081  0.1593 -0.1434
  135OSM    H9S14644   1.529   4.941   7.602 -0.2973 -0.6487 -0.0432
  135OSM    H9T14645   1.494   4.796   7.516 -0.8555  0.3727 -0.5898
  135OSM   C10S14646   1.376   4.815   7.687  0.4576 -0.0192 -0.4369
  135OSM   H10S14647   1.449   4.742   7.728 -1.5058 -1.3333  0.8915
  135OSM   H10T14648   1.290   4.761   7.642  0.3851  0.1374 -0.4868
  135OSM   C11S14649   1.330   4.908   7.799  0.0969  0.7104 -0.2053
  135OSM   H11S14650   1.244   4.974   7.773 -0.7453  0.7745  2.4927
  135OSM   H11T14651   1.416   4.973   7.826 -0.3876  1.1312  0.3284
  135OSM   C12S14652   1.289   4.813   7.922  0.2686  0.1632  0.2462
  135OSM   H12S14653   1.286   4.881   8.010  1.5826  0.5789 -0.0078
  135OSM   H12T14654   1.361   4.730   7.937  1.1465  1.0606  1.1714
  135OSM   C13S14655   1.156   4.750   7.895 -0.2664 -0.3848 -0.0943
  135OSM   H13S14656   1.165   4.693   7.799  0.5405 -0.2185 -0.1211
  135OSM   H13T14657   1.080   4.825   7.866 -0.6444 -0.5363  0.4851
  135OSM   C14S14658   1.102   4.668   8.009  0.6237  0.4833 -0.3958
  135OSM   H14S14659   1.175   4.588   8.034  0.3998  0.5406  0.4600
  135OSM   H14T14660   1.007   4.617   7.982  0.8970  0.3382 -1.1268
  135OSM   C15S14661   1.055   4.761   8.130 -0.2111  0.5357  0.1688
  135OSM   H15S14662   0.966   4.819   8.099 -1.5920 -1.0342  1.0203
  135OSM   H15T14663   1.133   4.837   8.151  0.4157  0.1711 -0.7681
  135OSM   C16S14664   1.024   4.680   8.261  0.4112  0.0674  0.4053
  135OSM   H16S14665   0.947   4.605   8.234  1.7602 -0.4963 -2.3182
  135OSM   H16T14666   0.974   4.738   8.341 -0.4642 -0.7148  0.4363
  135OSM   C17S14667   1.146   4.606   8.317  1.0079  0.0164  0.0936
  135OSM   H17S14668   1.221   4.681   8.350  0.2149  0.2241  1.5248
  135OSM   H17T14669   1.199   4.532   8.254  0.7146 -0.4935  0.4394
  135OSM   C18S14670   1.104   4.535   8.448  0.2972 -0.0917  0.3660
  135OSM   H18S14671   1.197   4.495   8.494  0.7923 -1.6245 -1.8098
  135OSM   H18T14672   1.038   4.448   8.425  0.1376  0.4171 -1.1943
  135OSM   H18U14673   1.057   4.599   8.525 -1.1253 -0.1173 -0.4420
  135OSM    C1F14674   1.566   5.314   6.981 -0.2150  0.2194 -0.1829
  135OSM     OF14675   1.491   5.396   6.929 -0.4941 -0.0623  0.2646
  135OSM    C2F14676   1.678   5.367   7.065 -0.2602 -0.3567 -0.3776
  135OSM    H2F14677   1.699   5.467   7.019 -1.5518 -0.3045 -0.9126
  135OSM    H2G14678   1.768   5.303   7.071  0.7772  1.1264  0.3867
  135OSM    C3F14679   1.609   5.381   7.201 -0.3316 -0.3990  0.0260
  135OSM    H3F14680   1.572   5.284   7.241 -0.7157 -0.3930 -0.3059
  135OSM    H3G14681   1.530   5.458   7.190 -0.0162  0.1132  1.2540
  135OSM    C4F14682   1.702   5.444   7.314  0.7339 -0.8271 -0.3213
  135OSM    H4F14683   1.756   5.532   7.273  1.6077 -0.4113  1.6475
  135OSM    H4G14684   1.773   5.364   7.342  2.2922 -0.0694 -1.9365
  135OSM    C5F14685   1.621   5.491   7.433 -0.1613 -0.0989 -0.2304
  135OSM    H5F14686   1.542   5.417   7.461 -1.0798  0.7183 -0.6064
  135OSM    H5G14687   1.567   5.587   7.423 -0.9173 -0.5619 -0.6671
  135OSM    C6F14688   1.706   5.502   7.553 -0.3140 -0.7321  0.9405
  135OSM    H6F14689   1.767   5.594   7.538 -1.6463  0.3040  1.6532
  135OSM    H6G14690   1.782   5.423   7.569  0.9042 -0.3502 -2.2876
  135OSM    C7F14691   1.628   5.550   7.676  0.2320  0.4663  0.5965
  135OSM    H7F14692   1.557   5.627   7.640 -0.5325 -0.9951 -1.2170
  135OSM    H7G14693   1.698   5.602   7.745  2.0570 -0.1485 -0.7188
  135OSM    C8F14694   1.568   5.424   7.750  0.3534  0.1796 -0.4329
  135OSM    H8F14695   1.657   5.377   7.796  0.2809  1.2438  0.8404
  135OSM    H8G14696   1.517   5.351   7.683  0.3716  1.2584 -1.6669
  135OSM    C9F14697   1.478   5.468   7.858 -1.1708  0.3217 -0.0193
  135OSM    H9F14698   1.419   5.556   7.829  0.4333  0.5772 -2.7339
  135OSM   C10F14699   1.450   5.404   7.979 -0.6569 -0.3855 -0.0412
  135OSM   H10F14700   1.373   5.445   8.046  1.1648 -0.8801  2.5011
  135OSM   C11F14701   1.511   5.280   8.033  0.3587 -0.2179 -0.5235
  135OSM   H11F14702   1.516   5.198   7.959 -0.1020  0.3476 -1.1914
  135OSM   H11G14703   1.437   5.237   8.103 -0.7773  0.2825 -1.3907
  135OSM   C12F14704   1.657   5.305   8.097  0.0824 -0.0019  0.7062
  135OSM   H12F14705   1.715   5.366   8.025  0.2554 -2.1079 -1.0399
  135OSM   H12G14706   1.701   5.203   8.096  0.6084  0.1803  2.3029
  135OSM   C13F14707   1.638   5.370   8.239 -0.5055  0.1670  0.2287
  135OSM   H13F14708   1.542   5.328   8.276 -0.4161  1.5992  2.2154
  135OSM   H13G14709   1.621   5.479   8.228  0.9657  0.2157 -2.3641
  135OSM   C14F14710   1.753   5.338   8.346  0.7159 -0.0001 -0.0741
  135OSM   H14F14711   1.843   5.400   8.326  0.8061 -0.2497 -0.4369
  135OSM   H14G14712   1.780   5.231   8.356 -1.0479 -0.5549 -0.7675
  135OSM   C15F14713   1.704   5.376   8.491 -0.5129  0.0151  0.8323
  135OSM   H15F14714   1.714   5.485   8.512 -1.3638  0.2062  0.2771
  135OSM   H15G14715   1.779   5.335   8.563 -0.2826 -0.6429  0.2350
  135OSM   C16F14716   1.568   5.331   8.532  0.7143 -0.4777  0.4067
  135OSM   H16F14717   1.539   5.236   8.482 -0.4379 -0.1410  0.4000
  135OSM   H16G14718   1.501   5.410   8.492 -1.6149 -2.1409  0.7648
  135OSM   C17F14719   1.552   5.314   8.677  0.0211 -0.4124 -0.0676
  135OSM   H17F14720   1.586   5.406   8.730  3.7303 -0.9222 -1.2964
  135OSM   H17G14721   1.604   5.225   8.719 -0.1092 -0.8020 -0.7245
  135OSM   C18F14722   1.409   5.288   8.717 -0.0081 -0.4941  0.7081
  135OSM   H18F14723   1.348   5.375   8.682  0.5216  0.1766  1.4194
  135OSM   H18G14724   1.400   5.273   8.826  0.9742 -0.2345  0.8322
  135OSM   H18H14725   1.374   5.198   8.663  0.2880  1.3229 -2.8209
  136OSM      N14726   5.779   6.626   6.079 -0.0969 -0.0199 -0.4518
  136OSM    C1514727   5.641   6.559   6.096 -0.0872 -0.2738 -0.3632
  136OSM   H15A14728   5.656   6.453   6.081  0.6168 -0.2080 -0.1838
  136OSM   H15B14729   5.574   6.587   6.017  0.5686 -1.1923 -1.2605
  136OSM   H15C14730   5.581   6.582   6.183 -1.7548 -2.1848 -0.9349
  136OSM    C1414731   5.854   6.572   5.957  0.3583 -0.1426  0.2555
  136OSM   H14A14732   5.949   6.624   5.963 -0.1983  0.8947  0.3561
  136OSM   H14B14733   5.803   6.605   5.867  0.4852  0.6591  0.4702
  136OSM   H14C14734   5.873   6.466   5.957 -0.0545 -0.2154  0.2080
  136OSM    C1314735   5.758   6.773   6.064 -0.6131 -0.1420 -0.1335
  136OSM   H13A14736   5.853   6.823   6.052  0.7351 -2.6805 -0.5530
  136OSM   H13B14737   5.704   6.817   6.147 -1.8198 -1.9049  0.0638
  136OSM   H13C14738   5.698   6.793   5.976 -0.9048  0.7170  0.2479
  136OSM    C1214739   5.847   6.596   6.212 -0.4526 -0.0992 -0.8045
  136OSM   H12A14740   5.858   6.489   6.218  1.1367 -0.2254 -3.9316
  136OSM   H12B14741   5.795   6.631   6.300  1.7011  2.3653 -0.3608
  136OSM    C1114742   5.989   6.661   6.237 -0.6354 -0.6996  0.3969
  136OSM   H11A14743   6.014   6.646   6.344 -0.9023  0.1128  0.5789
  136OSM   H11B14744   5.983   6.771   6.225  0.1827 -0.6376  0.5270
  136OSM      P14745   6.247   6.619   6.192  0.3202 -0.2583  0.1000
  136OSM    O1314746   6.333   6.558   6.089  0.4226  0.2002  0.1477
  136OSM    O1414747   6.263   6.759   6.227 -0.5621 -0.4131  0.1588
  136OSM    O1114748   6.258   6.536   6.325  0.0921  0.0926 -0.2448
  136OSM    O1214749   6.092   6.611   6.145  0.2842 -0.0020 -0.4102
  136OSM    C1S14750   6.180   6.414   6.333 -0.7942  0.0325 -0.0847
  136OSM    H1S14751   6.227   6.343   6.262 -1.6702 -0.8276  0.1730
  136OSM    H1T14752   6.073   6.426   6.306 -1.5310 -0.2552  2.4023
  136OSM     NF14753   6.142   6.215   6.490 -0.6231 -0.0302 -0.3491
  136OSM    HNF14754   6.060   6.199   6.544  0.4191  0.1050  1.3433
  136OSM    C2S14755   6.178   6.350   6.480  0.0664 -0.3186  0.3688
  136OSM    H2S14756   6.284   6.351   6.513  0.3836  0.9652 -0.6110
  136OSM    C3S14757   6.106   6.437   6.583  0.5041 -0.0866 -0.4731
  136OSM    H3S14758   6.000   6.455   6.556  0.6747 -0.0304 -1.1264
  136OSM     O314759   6.148   6.572   6.584 -0.1722  0.5522  0.0289
  136OSM    HO314760   6.201   6.564   6.504 -2.5580 -1.9722 -1.4880
  136OSM    C4S14761   6.119   6.382   6.721 -0.5307 -0.2748 -0.6830
  136OSM    H4S14762   6.225   6.373   6.750 -0.9200 -0.0126  0.8720
  136OSM    C5S14763   6.024   6.343   6.811 -0.3739 -0.2572 -0.2524
  136OSM    H5S14764   5.917   6.346   6.785 -0.3655 -0.3739 -0.3006
  136OSM    C6S14765   6.056   6.291   6.948 -0.2077  0.3416  0.0605
  136OSM    H6S14766   6.066   6.181   6.946 -2.5272  0.0372  1.3145
  136OSM    H6T14767   5.967   6.315   7.011  0.4296  0.1111  1.0716
  136OSM    C7S14768   6.171   6.367   7.010 -0.1786  0.0121 -0.4486
  136OSM    H7S14769   6.164   6.478   6.999  1.4055  0.3022  0.9736
  136OSM    H7T14770   6.275   6.340   6.983  0.3780 -0.6039  2.0596
  136OSM    C8S14771   6.174   6.361   7.163  0.1851  0.3449  0.0087
  136OSM    H8S14772   6.279   6.373   7.198  0.5881 -0.8747 -0.7093
  136OSM    H8T14773   6.149   6.258   7.195  3.9056 -0.4622  0.8580
  136OSM    C9S14774   6.080   6.461   7.227  0.2103 -0.0899 -0.5330
  136OSM    H9S14775   5.975   6.451   7.193  0.2705  1.2270 -1.1474
  136OSM    H9T14776   6.103   6.570   7.223  0.9539 -0.2020  0.3886
  136OSM   C10S14777   6.068   6.429   7.372  0.4802 -0.1472 -0.5572
  136OSM   H10S14778   6.163   6.433   7.429 -0.6863  0.6321  1.4676
  136OSM   H10T14779   6.033   6.325   7.389 -0.5966  0.1019 -1.1286
  136OSM   C11S14780   5.977   6.526   7.450 -0.0298 -0.4164  0.2467
  136OSM   H11S14781   5.872   6.531   7.416 -0.3686 -0.6851  1.2164
  136OSM   H11T14782   6.025   6.626   7.445  3.0502 -1.8122 -0.3556
  136OSM   C12S14783   5.966   6.481   7.601  0.3202  0.1278  0.2945
  136OSM   H12S14784   6.066   6.492   7.647  1.0400 -1.8854 -0.6670
  136OSM   H12T14785   5.948   6.372   7.608  0.3909  0.0468 -0.6136
  136OSM   C13S14786   5.862   6.554   7.686  0.4052 -0.3887  0.9580
  136OSM   H13S14787   5.766   6.549   7.630 -0.0313 -0.9038  1.7375
  136OSM   H13T14788   5.877   6.662   7.705  0.3063 -0.5468  2.0136
  136OSM   C14S14789   5.839   6.499   7.832 -0.2604  0.3569  0.1854
  136OSM   H14S14790   5.942   6.483   7.871 -0.4624  1.8931  1.4238
  136OSM   H14T14791   5.796   6.397   7.823 -0.6680  0.4665  0.7917
  136OSM   C15S14792   5.765   6.593   7.931  0.3767 -0.0678  0.7014
  136OSM   H15S14793   5.665   6.608   7.885  0.5081 -1.4664 -0.0824
  136OSM   H15T14794   5.825   6.686   7.923 -1.1122  1.0264  1.6663
  136OSM   C16S14795   5.756   6.544   8.074  0.0522 -0.8859  0.6916
  136OSM   H16S14796   5.693   6.452   8.077 -2.5446  0.8193  2.9873
  136OSM   H16T14797   5.707   6.624   8.133  1.3590 -0.1518  0.8141
  136OSM   C17S14798   5.885   6.531   8.140 -0.0537 -0.2295 -0.5744
  136OSM   H17S14799   5.935   6.630   8.144 -1.5223  0.6162 -1.9893
  136OSM   H17T14800   5.949   6.459   8.085 -1.0504  0.2382 -2.4219
  136OSM   C18S14801   5.869   6.470   8.279 -0.3627  0.9617  0.1562
  136OSM   H18S14802   5.781   6.508   8.335 -0.2793 -0.0811  1.0347
  136OSM   H18T14803   5.953   6.480   8.352  0.0386 -0.8586  0.0072
  136OSM   H18U14804   5.844   6.363   8.262  3.0802  0.0702 -0.0443
  136OSM    C1F14805   6.205   6.111   6.429  0.0965 -0.1989  0.3071
  136OSM     OF14806   6.301   6.126   6.354 -0.1300 -0.6168 -0.5018
  136OSM    C2F14807   6.141   5.980   6.439  0.3455  0.6460 -0.6093
  136OSM    H2F14808   6.143   5.936   6.336  3.8059 -1.1951  0.1040
  136OSM    H2G14809   6.039   5.977   6.484  0.0591  2.0068 -1.1104
  136OSM    C3F14810   6.236   5.888   6.524  0.3901  0.1321  0.3713
  136OSM    H3F14811   6.342   5.912   6.501  0.0954  0.5163 -0.6291
  136OSM    H3G14812   6.237   5.784   6.484  1.7180  0.2837 -0.0533
  136OSM    C4F14813   6.211   5.906   6.673  0.6416  0.1610  0.6318
  136OSM    H4F14814   6.112   5.861   6.694  0.2511  1.7515  2.5131
  136OSM    H4G14815   6.223   6.009   6.714 -0.3746  0.9318 -0.9161
  136OSM    C5F14816   6.300   5.812   6.756  0.0075  0.2380  0.0037
  136OSM    H5F14817   6.283   5.716   6.703 -1.2099  0.6462 -0.3721
  136OSM    H5G14818   6.250   5.810   6.855 -1.5398  3.0997 -0.6059
  136OSM    C6F14819   6.452   5.846   6.764 -0.0955 -0.2954  0.3866
  136OSM    H6F14820   6.453   5.955   6.785 -0.7627 -0.5110  1.6936
  136OSM    H6G14821   6.504   5.841   6.667 -1.0380 -0.8644 -0.1084
  136OSM    C7F14822   6.533   5.754   6.862  0.7910  0.2985  0.9038
  136OSM    H7F14823   6.630   5.736   6.810 -0.0127  0.4861 -0.6959
  136OSM    H7G14824   6.472   5.661   6.863 -0.4828  0.9218 -3.3031
  136OSM    C8F14825   6.562   5.815   6.994 -0.1805 -0.5898 -0.7390
  136OSM    H8F14826   6.597   5.919   6.982 -0.9027 -0.1867  0.5366
  136OSM    H8G14827   6.648   5.758   7.036  1.8439  3.1173  0.5190
  136OSM    C9F14828   6.444   5.806   7.091 -0.5089  0.4050 -0.0620
  136OSM    H9F14829   6.390   5.711   7.096  0.6436 -0.2549  0.5557
  136OSM   C10F14830   6.394   5.899   7.176 -0.0563 -0.3440 -0.5283
  136OSM   H10F14831   6.310   5.869   7.240 -1.1378  2.2284 -0.6402
  136OSM   C11F14832   6.430   6.039   7.208 -0.9502 -1.3867  0.3115
  136OSM   H11F14833   6.345   6.103   7.178  0.1219  0.2160  0.5737
  136OSM   H11G14834   6.513   6.073   7.142 -0.4534  0.7423  1.9369
  136OSM   C12F14835   6.467   6.059   7.358  0.3278  0.7690  0.0523
  136OSM   H12F14836   6.403   6.004   7.430  1.0159  0.8754  0.7615
  136OSM   H12G14837   6.442   6.162   7.391  0.8663  0.4122  1.6705
  136OSM   C13F14838   6.614   6.038   7.406 -0.1286  0.2591  1.0567
  136OSM   H13F14839   6.666   6.085   7.320 -0.2662  2.4299  2.1004
  136OSM   H13G14840   6.632   5.928   7.400 -0.6366  0.1452  1.5404
  136OSM   C14F14841   6.665   6.109   7.531  0.1412  0.3031  0.3301
  136OSM   H14F14842   6.673   6.215   7.498  0.6001 -0.1020 -0.8682
  136OSM   H14G14843   6.770   6.073   7.537 -0.1733 -1.0061 -1.3226
  136OSM   C15F14844   6.576   6.084   7.653  0.4482 -0.0871 -0.3059
  136OSM   H15F14845   6.574   5.975   7.670  0.6760  0.2256  2.0415
  136OSM   H15G14846   6.475   6.126   7.636  0.3970  0.2407  0.7632
  136OSM   C16F14847   6.619   6.159   7.779  0.0244 -0.6929  0.7896
  136OSM   H16F14848   6.606   6.269   7.773 -1.3480 -0.8482  0.5818
  136OSM   H16G14849   6.729   6.145   7.775  0.0380 -0.3608 -0.2911
  136OSM   C17F14850   6.557   6.102   7.905 -0.8331 -0.2440 -0.0139
  136OSM   H17F14851   6.606   6.002   7.910  1.5890  0.8029 -1.0687
  136OSM   H17G14852   6.447   6.092   7.903 -1.0146  0.0535  2.9897
  136OSM   C18F14853   6.590   6.191   8.027  0.1881 -0.3652 -0.3759
  136OSM   H18F14854   6.522   6.279   8.018  3.1460  2.1121  0.0290
  136OSM   H18G14855   6.694   6.230   8.031  0.5336 -1.2724 -0.4677
  136OSM   H18H14856   6.577   6.147   8.128  0.2488  0.8464  0.1880
  137OSM      N14857   2.566   4.016   6.269  0.0050 -0.2291  0.3240
  137OSM    C1514858   2.504   3.893   6.210 -0.5318  0.2159 -0.0149
  137OSM   H15A14859   2.413   3.864   6.260 -2.0027  0.8515 -2.1891
  137OSM   H15B14860   2.573   3.809   6.215  0.2456  0.9112  1.4722
  137OSM   H15C14861   2.478   3.913   6.107 -0.6074 -1.7757 -0.4260
  137OSM    C1414862   2.689   4.044   6.186 -0.7396 -0.2054 -0.0657
  137OSM   H14A14863   2.754   3.959   6.175 -1.1982 -0.6316  0.5018
  137OSM   H14B14864   2.748   4.123   6.231  2.5046 -1.6251 -1.5175
  137OSM   H14C14865   2.676   4.075   6.083  1.1848 -1.6525 -0.7886
  137OSM    C1314866   2.468   4.128   6.255  0.2230 -0.7770  0.2026
  137OSM   H13A14867   2.364   4.104   6.275  0.3821 -1.3916  0.2951
  137OSM   H13B14868   2.478   4.167   6.155  0.8482 -1.0323  0.1618
  137OSM   H13C14869   2.487   4.204   6.329  0.7524 -0.4008 -0.3109
  137OSM    C1214870   2.600   3.992   6.416 -0.1747  0.1419 -0.0072
  137OSM   H12A14871   2.506   3.967   6.462 -0.3166  0.5026 -0.0957
  137OSM   H12B14872   2.625   4.081   6.473 -1.2941 -0.4498  1.4686
  137OSM    C1114873   2.711   3.888   6.443  0.3071  1.4636  0.5782
  137OSM   H11A14874   2.680   3.793   6.396 -0.2707  0.6784  2.4733
  137OSM   H11B14875   2.701   3.857   6.549 -0.0760 -0.2428  0.0622
  137OSM      P14876   2.939   4.013   6.472 -0.2030  0.4547 -0.0825
  137OSM    O1314877   3.073   4.009   6.402  0.0703  0.0762 -0.5873
  137OSM    O1414878   2.876   4.146   6.480  0.0007  0.0352 -1.0388
  137OSM    O1114879   2.956   3.957   6.616 -0.2055 -0.0984 -0.4723
  137OSM    O1214880   2.841   3.911   6.400  0.3615 -0.4169  0.5734
  137OSM    C1S14881   3.004   4.037   6.724 -0.2255 -0.4098  0.3174
  137OSM    H1S14882   2.973   4.143   6.711 -0.9125 -0.8610 -2.2972
  137OSM    H1T14883   3.114   4.023   6.731 -0.1955 -2.2486 -2.5023
  137OSM     NF14884   2.968   4.049   6.983  0.3737 -0.7720 -0.0401
  137OSM    HNF14885   3.031   4.009   7.050  3.3570  2.6199 -0.5124
  137OSM    C2S14886   2.934   3.979   6.855 -0.1204  0.1953 -0.1704
  137OSM    H2S14887   2.826   4.001   6.845 -0.2316 -0.0810  0.3642
  137OSM    C3S14888   2.952   3.827   6.855  0.3748 -0.0928  0.1344
  137OSM    H3S14889   3.063   3.814   6.852  0.5557  1.2240  0.4779
  137OSM     O314890   2.888   3.754   6.746  0.6856 -0.3689 -0.2018
  137OSM    HO314891   2.881   3.825   6.682  1.5663 -0.1677 -0.0800
  137OSM    C4S14892   2.907   3.768   6.986 -0.5329  0.6013  0.3293
  137OSM    H4S14893   2.997   3.768   7.050 -1.1818 -1.4588  1.3568
  137OSM    C5S14894   2.788   3.736   7.032 -0.2227 -0.8395 -0.5373
  137OSM    H5S14895   2.698   3.759   6.972 -0.4286  1.2872  0.4742
  137OSM    C6S14896   2.758   3.698   7.173  0.2410 -1.0336 -0.2489
  137OSM    H6S14897   2.683   3.767   7.217  0.8546 -0.6269  0.1683
  137OSM    H6T14898   2.852   3.711   7.230 -0.0961  2.9696 -0.3646
  137OSM    C7S14899   2.705   3.557   7.193 -0.2255  0.2433  0.1759
  137OSM    H7S14900   2.777   3.483   7.151 -0.0572  0.2712  0.4193
  137OSM    H7T14901   2.611   3.542   7.134 -0.2427  0.7463  0.0770
  137OSM    C8S14902   2.685   3.520   7.349  0.8115 -0.4084  0.1342
  137OSM    H8S14903   2.783   3.495   7.395  1.0418  1.9243  1.0503
  137OSM    H8T14904   2.609   3.439   7.359 -0.7747  1.1154  0.9725
  137OSM    C9S14905   2.611   3.627   7.436 -0.1864  0.4265 -0.3061
  137OSM    H9S14906   2.518   3.633   7.375  1.0435 -0.4440 -2.3751
  137OSM    H9T14907   2.643   3.733   7.435  0.1258  0.3521  0.6233
  137OSM   C10S14908   2.572   3.605   7.577  0.2054  0.1756  0.3438
  137OSM   H10S14909   2.524   3.505   7.580  1.0478 -0.3654 -2.1994
  137OSM   H10T14910   2.494   3.680   7.606 -0.7283 -0.0533 -1.4488
  137OSM   C11S14911   2.692   3.609   7.676  0.8388 -0.0596 -0.1058
  137OSM   H11S14912   2.730   3.713   7.674 -0.7259  0.6687  2.6937
  137OSM   H11T14913   2.771   3.540   7.640 -0.5242 -0.8674 -1.6695
  137OSM   C12S14914   2.668   3.587   7.829 -0.0838  0.0882  0.7664
  137OSM   H12S14915   2.750   3.623   7.895 -0.5691  1.0954  0.8376
  137OSM   H12T14916   2.642   3.480   7.845 -1.3897 -0.3380 -3.0888
  137OSM   C13S14917   2.543   3.665   7.884  0.5346 -0.0911  0.3592
  137OSM   H13S14918   2.453   3.635   7.827  0.7337  1.2199 -0.7034
  137OSM   H13T14919   2.553   3.768   7.844  0.4637 -0.5434 -0.8630
  137OSM   C14S14920   2.515   3.651   8.037 -0.9457 -0.0974 -0.4869
  137OSM   H14S14921   2.503   3.544   8.062 -3.4535  0.5292  1.3875
  137OSM   H14T14922   2.420   3.705   8.059 -2.1655 -1.8051 -1.3438
  137OSM   C15S14923   2.630   3.715   8.116 -0.6539  0.7610 -0.0390
  137OSM   H15S14924   2.631   3.823   8.092 -2.3896  0.3278 -2.4212
  137OSM   H15T14925   2.729   3.669   8.096 -1.1104 -1.1535  1.6415
  137OSM   C16S14926   2.600   3.699   8.264  0.7858 -0.1456  0.2294
  137OSM   H16S14927   2.582   3.599   8.308 -1.5094  0.3690  0.5619
  137OSM   H16T14928   2.509   3.761   8.277  1.3601  0.8952 -0.4982
  137OSM   C17S14929   2.703   3.759   8.348 -0.4069 -0.1634 -0.2805
  137OSM   H17S14930   2.707   3.870   8.348  0.2580 -0.1606  1.1746
  137OSM   H17T14931   2.807   3.736   8.317 -0.4356 -0.2852 -0.2894
  137OSM   C18S14932   2.707   3.734   8.500  0.6482  0.1979 -0.1752
  137OSM   H18S14933   2.772   3.812   8.545 -1.9930  1.2915  1.9846
  137OSM   H18T14934   2.741   3.630   8.520  3.0112  1.2034  1.5354
  137OSM   H18U14935   2.605   3.749   8.540  0.3217  1.8201 -1.5018
  137OSM    C1F14936   2.937   4.178   7.015 -0.0932 -0.3850 -0.0619
  137OSM     OF14937   2.888   4.248   6.931  0.1617  0.1974  0.1429
  137OSM    C2F14938   2.961   4.217   7.156 -0.5295 -0.2803 -0.3504
  137OSM    H2F14939   3.061   4.184   7.193 -0.7360  1.5317  2.0469
  137OSM    H2G14940   2.881   4.163   7.210  1.2361 -1.6439  1.0270
  137OSM    C3F14941   2.941   4.366   7.192  0.2821  0.4373 -0.4376
  137OSM    H3F14942   2.838   4.400   7.167  0.5996  0.4031 -1.8982
  137OSM    H3G14943   3.018   4.417   7.130  2.4396 -0.0735  1.6893
  137OSM    C4F14944   2.974   4.374   7.344  0.1964  0.4463 -0.0134
  137OSM    H4F14945   3.003   4.472   7.389 -0.0704  0.1918  0.7278
  137OSM    H4G14946   3.061   4.310   7.368  0.1787  0.7266  0.8480
  137OSM    C5F14947   2.864   4.332   7.440  0.3641  0.3341 -0.3670
  137OSM    H5F14948   2.835   4.235   7.395 -1.7894  2.1496 -3.2271
  137OSM    H5G14949   2.776   4.398   7.431 -1.6150 -2.0868  0.0992
  137OSM    C6F14950   2.907   4.300   7.591  0.2765  0.3688  0.3613
  137OSM    H6F14951   2.961   4.391   7.623 -0.4895  1.7552 -2.0103
  137OSM    H6G14952   2.984   4.220   7.592  0.8353  0.8997  1.6777
  137OSM    C7F14953   2.779   4.262   7.665  0.0115 -0.1889  1.0473
  137OSM    H7F14954   2.722   4.173   7.631 -0.9709  0.5719  0.6355
  137OSM    H7G14955   2.711   4.350   7.666  0.4163  0.1652  3.1996
  137OSM    C8F14956   2.798   4.238   7.814 -0.0467 -0.1333  0.3060
  137OSM    H8F14957   2.895   4.184   7.815 -0.2247 -0.5961 -1.8725
  137OSM    H8G14958   2.720   4.167   7.849  0.7073 -1.1616 -0.0477
  137OSM    C9F14959   2.804   4.359   7.901 -0.5782 -0.8873 -0.9152
  137OSM    H9F14960   2.887   4.424   7.871  1.3242 -2.7522  0.0501
  137OSM   C10F14961   2.723   4.406   8.001 -0.6452  0.8366 -0.2834
  137OSM   H10F14962   2.761   4.496   8.052 -1.1704  0.2814  1.1621
  137OSM   C11F14963   2.628   4.313   8.068  0.6700  0.0206 -0.1087
  137OSM   H11F14964   2.613   4.217   8.014 -0.0250 -0.0447  0.1829
  137OSM   H11G14965   2.522   4.346   8.078 -0.5117 -3.4406  0.1228
  137OSM   C12F14966   2.661   4.285   8.216 -0.4122  0.9327 -0.7907
  137OSM   H12F14967   2.681   4.383   8.264 -1.6689  0.4053  0.9173
  137OSM   H12G14968   2.756   4.227   8.210  0.4532  2.2153  0.0029
  137OSM   C13F14969   2.547   4.216   8.300 -0.8204 -0.4094 -0.0856
  137OSM   H13F14970   2.522   4.123   8.244 -2.2127  1.2168 -2.3206
  137OSM   H13G14971   2.453   4.274   8.302 -0.2061  0.8576 -2.8396
  137OSM   C14F14972   2.588   4.180   8.449 -0.3293  0.0821  0.1108
  137OSM   H14F14973   2.585   4.276   8.507 -1.1107  1.5803 -2.2770
  137OSM   H14G14974   2.689   4.137   8.465 -1.4558 -2.7090  0.1737
  137OSM   C15F14975   2.479   4.093   8.514  0.2232  0.0051 -0.4544
  137OSM   H15F14976   2.513   4.067   8.616 -1.1627 -0.5551 -0.1185
  137OSM   H15G14977   2.471   4.003   8.449  0.2778 -0.1290 -0.2754
  137OSM   C16F14978   2.340   4.156   8.526  0.0433  0.5831 -0.2970
  137OSM   H16F14979   2.295   4.151   8.425  0.3910 -1.9434 -0.3709
  137OSM   H16G14980   2.357   4.259   8.565 -1.9083  1.8525 -2.5529
  137OSM   C17F14981   2.248   4.084   8.633 -0.1994  0.2195  0.8964
  137OSM   H17F14982   2.284   4.088   8.738 -0.0979 -0.6408  0.8958
  137OSM   H17G14983   2.243   3.978   8.602  0.6636  0.3259  0.3623
  137OSM   C18F14984   2.111   4.155   8.642  0.4173  0.5025 -0.1756
  137OSM   H18F14985   2.056   4.115   8.730 -0.0956  1.9085  0.1590
  137OSM   H18G14986   2.046   4.138   8.553  1.3735 -2.0911 -0.4878
  137OSM   H18H14987   2.127   4.263   8.658 -0.9632  0.9498 -1.5331
  138OSM      N14988   3.126   6.197   5.878 -0.5265 -0.7384 -0.2297
  138OSM    C1514989   3.123   6.225   5.730  0.0268  0.2459 -0.2925
  138OSM   H15A14990   3.018   6.228   5.705 -0.3088 -0.5722  0.9342
  138OSM   H15B14991   3.163   6.143   5.671 -0.1069 -0.5241  0.6549
  138OSM   H15C14992   3.186   6.308   5.701 -0.6889 -0.0536 -2.9845
  138OSM    C1414993   3.041   6.084   5.918  1.0433 -0.0731 -0.6276
  138OSM   H14A14994   3.064   6.054   6.018 -1.5651 -0.3088 -0.0128
  138OSM   H14B14995   3.066   5.996   5.861 -0.0912 -1.1928  0.5431
  138OSM   H14C14996   2.937   6.113   5.922  1.7349  2.5305  1.5997
  138OSM    C1314997   3.262   6.166   5.917 -0.8821 -0.0617 -0.1738
  138OSM   H13A14998   3.293   6.089   5.848  0.6782 -2.0531  2.5153
  138OSM   H13B14999   3.259   6.115   6.013  0.3300  0.8217  0.3571
  138OSM   H13C15000   3.321   6.256   5.913 -1.7209  0.4543 -2.8895
  138OSM    C1215001   3.073   6.320   5.957  0.1623 -1.2781 -0.2928
  138OSM   H12A15002   3.097   6.299   6.060  0.6490  0.5735  0.0008
  138OSM   H12B15003   2.966   6.329   5.954  0.3015  3.5943  0.5424
  138OSM    C1115004   3.121   6.468   5.921 -0.5279  0.7355 -0.0215
  138OSM   H11A15005   3.081   6.536   5.999 -0.3211 -1.4270  2.1051
  138OSM   H11B15006   3.088   6.501   5.820 -2.7846  1.9176  1.0312
  138OSM      P15007   3.358   6.532   6.023 -0.0439 -0.0228  0.3741
  138OSM    O1315008   3.448   6.427   6.071 -0.6140  0.3063  0.1150
  138OSM    O1415009   3.427   6.648   5.962  0.1967  0.2801 -0.4253
  138OSM    O1115010   3.258   6.564   6.140  0.3717 -0.4697 -0.1725
  138OSM    O1215011   3.260   6.475   5.911  0.2947 -0.0292 -0.1556
  138OSM    C1S15012   3.210   6.484   6.246 -0.0853 -0.2083  0.8608
  138OSM    H1S15013   3.254   6.382   6.249 -0.3394 -0.2879  1.9472
  138OSM    H1T15014   3.101   6.470   6.227  0.2807 -1.0777 -0.7981
  138OSM     NF15015   3.191   6.456   6.486 -0.8029 -0.1736 -0.0397
  138OSM    HNF15016   3.115   6.499   6.534 -1.1107  0.4252 -1.0464
  138OSM    C2S15017   3.232   6.554   6.378 -0.0422  0.7789  0.6594
  138OSM    H2S15018   3.342   6.563   6.394 -0.0156 -0.9386  1.7685
  138OSM    C3S15019   3.163   6.682   6.390 -0.7983  0.4589  0.7185
  138OSM    H3S15020   3.056   6.651   6.398 -0.1295 -2.2386  0.0881
  138OSM     O315021   3.164   6.781   6.280  0.2760 -0.1591 -0.1065
  138OSM    HO315022   3.215   6.737   6.212 -0.6340  0.2681 -1.0993
  138OSM    C4S15023   3.201   6.750   6.516  0.1240  0.7706  0.4208
  138OSM    H4S15024   3.307   6.775   6.530  0.0732  0.9343  0.5174
  138OSM    C5S15025   3.111   6.806   6.594 -0.1618  0.5607 -0.5196
  138OSM    H5S15026   3.003   6.799   6.576 -0.6507  0.3597  2.1159
  138OSM    C6S15027   3.130   6.877   6.720  0.7862 -0.2975 -0.9057
  138OSM    H6S15028   3.028   6.872   6.765  0.8906 -0.5277 -0.6892
  138OSM    H6T15029   3.165   6.980   6.702  1.5270 -0.3056  0.3574
  138OSM    C7S15030   3.231   6.812   6.819  0.3953 -0.3910 -0.1298
  138OSM    H7S15031   3.334   6.851   6.804 -0.9008  2.7109 -1.9601
  138OSM    H7T15032   3.230   6.701   6.818  0.3668 -0.4011  0.3806
  138OSM    C8S15033   3.202   6.848   6.967 -0.1146 -0.1282 -0.1073
  138OSM    H8S15034   3.108   6.815   7.016 -0.7856 -0.0567 -1.2927
  138OSM    H8T15035   3.205   6.958   6.953  0.7666 -0.3581 -2.0191
  138OSM    C9S15036   3.310   6.808   7.062 -0.1521 -0.6178  0.1808
  138OSM    H9S15037   3.408   6.846   7.027 -0.9801  0.2132 -1.3277
  138OSM    H9T15038   3.316   6.697   7.066 -2.5801 -0.7590  1.5749
  138OSM   C10S15039   3.276   6.871   7.197 -0.4996 -0.4694  0.2281
  138OSM   H10S15040   3.171   6.840   7.220  0.0382 -2.0619  0.6871
  138OSM   H10T15041   3.277   6.982   7.193 -0.2888 -0.3742  2.1864
  138OSM   C11S15042   3.363   6.828   7.320 -0.4392 -0.0533 -0.5067
  138OSM   H11S15043   3.470   6.837   7.292 -0.2084 -1.5712 -0.2071
  138OSM   H11T15044   3.347   6.719   7.338  1.4236 -0.3040 -0.2048
  138OSM   C12S15045   3.309   6.898   7.447 -0.4268  0.3933 -0.2134
  138OSM   H12S15046   3.202   6.876   7.466 -0.9280  1.0057 -2.0495
  138OSM   H12T15047   3.318   7.009   7.440 -0.6114  0.4293  0.1063
  138OSM   C13S15048   3.386   6.852   7.573  0.6534 -0.4194  0.1402
  138OSM   H13S15049   3.494   6.878   7.562  0.0514  1.9269 -0.7426
  138OSM   H13T15050   3.362   6.745   7.589 -0.0197 -0.4055 -0.7408
  138OSM   C14S15051   3.335   6.910   7.702 -0.7025 -0.6100 -0.5391
  138OSM   H14S15052   3.226   6.897   7.721 -0.3467  0.3088  2.9338
  138OSM   H14T15053   3.346   7.020   7.689 -0.4694 -0.4767  0.6693
  138OSM   C15S15054   3.421   6.873   7.824 -0.1782  0.0096 -0.2185
  138OSM   H15S15055   3.380   6.927   7.911 -3.6241 -0.8684 -1.1460
  138OSM   H15T15056   3.525   6.903   7.799  0.4123  0.1522  2.1682
  138OSM   C16S15057   3.435   6.724   7.863 -0.3203  0.8708  0.2527
  138OSM   H16S15058   3.453   6.657   7.776  1.8213  0.0692  1.2364
  138OSM   H16T15059   3.335   6.691   7.898 -0.1804  1.1363  0.9137
  138OSM   C17S15060   3.551   6.695   7.968 -0.3239 -0.4098  0.2456
  138OSM   H17S15061   3.548   6.779   8.040 -0.0940 -1.1698  1.1640
  138OSM   H17T15062   3.646   6.696   7.909 -1.5339 -2.0330 -1.8682
  138OSM   C18S15063   3.544   6.564   8.041  0.1010  0.6982 -0.5446
  138OSM   H18S15064   3.638   6.509   8.060 -0.8225 -1.3329 -1.5627
  138OSM   H18T15065   3.470   6.507   7.982 -2.3345  1.9072  1.1587
  138OSM   H18U15066   3.494   6.583   8.139  2.2920  2.2408  0.3482
  138OSM    C1F15067   3.258   6.345   6.530 -0.3874  0.2308 -0.0818
  138OSM     OF15068   3.367   6.317   6.472 -0.2488  0.7739  0.5755
  138OSM    C2F15069   3.188   6.263   6.639 -0.5683  0.1589 -0.2973
  138OSM    H2F15070   3.081   6.249   6.611 -1.0971  1.0287  1.1937
  138OSM    H2G15071   3.204   6.319   6.733  0.5800  0.7761 -0.8477
  138OSM    C3F15072   3.264   6.127   6.645  0.4638  0.8476  0.3869
  138OSM    H3F15073   3.363   6.140   6.695 -0.0491  1.5689  1.2300
  138OSM    H3G15074   3.280   6.069   6.552 -1.4444  0.3636  0.3344
  138OSM    C4F15075   3.170   6.023   6.723 -0.1283 -0.1237 -0.3043
  138OSM    H4F15076   3.221   5.924   6.715 -1.0932 -0.5907 -0.8557
  138OSM    H4G15077   3.068   6.005   6.684 -1.5425 -1.7891  3.6419
  138OSM    C5F15078   3.142   6.057   6.867 -0.1328 -0.3574 -0.0987
  138OSM    H5F15079   3.098   6.158   6.875  0.9693  0.1502 -0.2343
  138OSM    H5G15080   3.239   6.053   6.921  0.0080  0.0520 -0.3240
  138OSM    C6F15081   3.048   5.947   6.933  0.1198 -0.1903 -0.2763
  138OSM    H6F15082   3.098   5.848   6.930  0.9127  0.1977 -0.1566
  138OSM    H6G15083   2.963   5.937   6.862  0.3634  0.8630 -0.7357
  138OSM    C7F15084   2.995   5.995   7.067  0.0825  0.0492 -0.5631
  138OSM    H7F15085   2.916   5.927   7.106  0.6277 -1.4226 -1.9247
  138OSM    H7G15086   2.952   6.097   7.053  3.6383  1.9240  1.0729
  138OSM    C8F15087   3.098   6.023   7.181 -0.4737  0.5665 -0.3005
  138OSM    H8F15088   3.042   6.050   7.273  1.3969  1.8484  0.5086
  138OSM    H8G15089   3.149   6.117   7.153  0.9328 -0.3345 -0.8660
  138OSM    C9F15090   3.187   5.903   7.209 -0.8349  0.4404 -0.1054
  138OSM    H9F15091   3.180   5.814   7.145 -2.7436 -0.1087  0.8116
  138OSM   C10F15092   3.255   5.880   7.325 -0.1599  0.0684 -0.1644
  138OSM   H10F15093   3.300   5.783   7.349 -0.9036 -0.5559 -1.1901
  138OSM   C11F15094   3.269   5.974   7.439  0.2509  0.3838  0.0067
  138OSM   H11F15095   3.172   5.982   7.492  1.4577  0.2125  2.3731
  138OSM   H11G15096   3.287   6.075   7.396  2.2586  1.3113  2.7155
  138OSM   C12F15097   3.373   5.957   7.547  0.0358 -0.6316 -0.2913
  138OSM   H12F15098   3.392   6.050   7.604 -0.9592  0.4636 -1.6498
  138OSM   H12G15099   3.465   5.926   7.492  1.6172  0.3373  1.6852
  138OSM   C13F15100   3.330   5.849   7.648  0.1344  0.0365 -0.1951
  138OSM   H13F15101   3.300   5.753   7.600 -1.8671  0.6916 -0.3444
  138OSM   H13G15102   3.238   5.886   7.699  0.3008  1.2541 -0.7408
  138OSM   C14F15103   3.428   5.822   7.762  0.0436 -0.3825  0.3394
  138OSM   H14F15104   3.418   5.903   7.837 -0.5925 -0.6835  0.5926
  138OSM   H14G15105   3.529   5.818   7.716  0.6082 -0.4865  1.5237
  138OSM   C15F15106   3.390   5.686   7.823 -0.1598  0.0653 -0.7093
  138OSM   H15F15107   3.381   5.617   7.736 -0.7172 -0.1866 -0.4555
  138OSM   H15G15108   3.288   5.685   7.869  0.7331 -0.7484  1.3827
  138OSM   C16F15109   3.506   5.633   7.908 -0.3332  0.5247  0.0341
  138OSM   H16F15110   3.515   5.698   7.997 -2.1896  0.5012  0.2772
  138OSM   H16G15111   3.602   5.639   7.852 -0.1895 -0.7954  0.1090
  138OSM   C17F15112   3.479   5.487   7.957  0.1545  0.5956  0.8913
  138OSM   H17F15113   3.431   5.443   7.867  0.4658 -0.1172  1.0697
  138OSM   H17G15114   3.405   5.481   8.040 -0.6887 -2.5405  0.0539
  138OSM   C18F15115   3.597   5.400   7.988  0.3393 -0.1482  0.0415
  138OSM   H18F15116   3.633   5.341   7.901 -0.9422 -0.9921  0.0578
  138OSM   H18G15117   3.564   5.339   8.075  3.2993 -0.4083  1.0956
  138OSM   H18H15118   3.688   5.453   8.024 -0.0496  1.0046 -0.6090
  139OSM      N15119   2.759   0.550   6.065 -0.2448 -0.7765  0.2918
  139OSM    C1515120   2.668   0.506   5.950 -0.8544 -0.0121  0.1862
  139OSM   H15A15121   2.564   0.535   5.958 -0.6507  0.5598  0.9602
  139OSM   H15B15122   2.675   0.400   5.932  0.6047  0.2563 -0.9949
  139OSM   H15C15123   2.713   0.552   5.864  1.8801 -0.2216  1.4074
  139OSM    C1415124   2.898   0.527   6.027  0.2841  0.2238 -0.5355
  139OSM   H14A15125   2.964   0.574   6.098  1.9861 -0.8736 -1.3227
  139OSM   H14B15126   2.940   0.555   5.932  1.6321 -1.6045 -0.5198
  139OSM   H14C15127   2.912   0.420   6.024 -0.9925  0.0503 -1.8849
  139OSM    C1315128   2.743   0.695   6.078 -0.5566 -0.7049 -0.4744
  139OSM   H13A15129   2.770   0.753   5.991  3.0388 -0.7686  0.4684
  139OSM   H13B15130   2.807   0.728   6.158 -2.7327 -0.3161  1.2263
  139OSM   H13C15131   2.642   0.724   6.103 -0.4890  0.0706 -1.0687
  139OSM    C1215132   2.731   0.482   6.195  0.0313 -0.8796 -0.3169
  139OSM   H12A15133   2.802   0.530   6.261  0.0153  0.6099 -1.3290
  139OSM   H12B15134   2.746   0.376   6.179  2.7741 -0.3151 -2.1847
  139OSM    C1115135   2.585   0.512   6.249  0.2427  0.4502  0.1512
  139OSM   H11A15136   2.566   0.621   6.255 -1.2047  0.2864 -0.9750
  139OSM   H11B15137   2.575   0.475   6.354  2.3900 -0.4752  0.0822
  139OSM      P15138   2.449   0.310   6.153 -0.0224  0.0212  0.3328
  139OSM    O1315139   2.371   0.281   6.030 -0.1664 -0.3232  0.3046
  139OSM    O1415140   2.573   0.230   6.173  0.5553 -0.7037  0.3867
  139OSM    O1115141   2.354   0.287   6.277 -0.0400  0.3086 -0.1241
  139OSM    O1215142   2.485   0.465   6.165  0.0723 -0.1703  0.1894
  139OSM    C1S15143   2.377   0.323   6.411 -0.6459  0.3128 -0.0755
  139OSM    H1S15144   2.381   0.433   6.419  0.9985  0.2605  0.0512
  139OSM    H1T15145   2.471   0.278   6.449 -0.7738  0.0161 -0.1004
  139OSM     NF15146   2.290   0.332   6.634 -0.3919  0.0655 -0.1722
  139OSM    HNF15147   2.310   0.268   6.708 -1.2276  0.2723  0.2430
  139OSM    C2S15148   2.263   0.275   6.511  0.4536  0.5551  0.8919
  139OSM    H2S15149   2.176   0.323   6.463 -0.0710 -0.5553  0.6930
  139OSM    C3S15150   2.257   0.121   6.519 -0.0377  0.1519  0.4889
  139OSM    H3S15151   2.347   0.088   6.574  1.3428  2.6382 -0.1132
  139OSM     O315152   2.271   0.069   6.388 -0.2601  0.5034  0.6371
  139OSM    HO315153   2.318   0.140   6.342 -0.7294 -0.3304 -1.2533
  139OSM    C4S15154   2.119   0.079   6.575 -0.3689  0.6337 -0.1810
  139OSM    H4S15155   2.050   0.051   6.494 -0.7705 -0.6105  0.5601
  139OSM    C5S15156   2.075   0.086   6.700 -0.2620  0.3819  0.3814
  139OSM    H5S15157   2.142   0.108   6.785  0.7985 -0.7388 -0.1391
  139OSM    C6S15158   1.939   0.048   6.740 -0.0631  0.7813  0.7764
  139OSM    H6S15159   1.937  -0.063   6.748  0.4369  0.5768 -1.4493
  139OSM    H6T15160   1.863   0.075   6.665  0.0769  0.5428  0.5463
  139OSM    C7S15161   1.906   0.100   6.878  0.5814  0.3288  0.4278
  139OSM    H7S15162   1.993   0.088   6.946  0.9240  0.7428  0.0692
  139OSM    H7T15163   1.820   0.045   6.922  1.5313 -1.1014  0.5496
  139OSM    C8S15164   1.852   0.244   6.872  0.0999 -0.0770 -0.0560
  139OSM    H8S15165   1.754   0.245   6.819  0.0928  1.8986 -0.0948
  139OSM    H8T15166   1.925   0.298   6.807 -1.6841  1.4540 -0.9270
  139OSM    C9S15167   1.851   0.320   7.006  0.4358 -0.1332 -0.0626
  139OSM    H9S15168   1.832   0.249   7.089  1.1252  1.1480  1.2472
  139OSM    H9T15169   1.759   0.383   7.005  0.5809  0.1003  0.6135
  139OSM   C10S15170   1.971   0.412   7.027 -0.3305  0.1100 -0.1480
  139OSM   H10S15171   1.942   0.486   7.104 -0.7934 -0.6445  0.4162
  139OSM   H10T15172   1.993   0.468   6.934  0.9589 -1.0441 -0.5799
  139OSM   C11S15173   2.109   0.356   7.057  0.2646 -0.3171  0.1779
  139OSM   H11S15174   2.193   0.426   7.040 -0.5814  0.2652 -1.9402
  139OSM   H11T15175   2.124   0.295   6.965 -2.0059  0.2369 -0.6218
  139OSM   C12S15176   2.119   0.268   7.188 -0.3996 -0.0995  0.2688
  139OSM   H12S15177   2.211   0.206   7.178 -1.1323 -1.4076  1.2264
  139OSM   H12T15178   2.028   0.203   7.189  0.3372 -1.1836 -0.8561
  139OSM   C13S15179   2.117   0.356   7.319  0.5099 -0.8078 -0.3808
  139OSM   H13S15180   2.018   0.404   7.338 -0.4364 -3.6509  2.7447
  139OSM   H13T15181   2.190   0.437   7.299 -0.6701  0.2445 -0.5907
  139OSM   C14S15182   2.141   0.278   7.445  0.5003  0.1522 -0.0521
  139OSM   H14S15183   2.234   0.222   7.421 -0.0059 -1.6612  1.8805
  139OSM   H14T15184   2.060   0.205   7.468 -0.5542  0.0580 -3.4702
  139OSM   C15S15185   2.173   0.380   7.552 -0.6611 -0.3768  0.3078
  139OSM   H15S15186   2.095   0.459   7.550  0.3723  0.6603 -0.8305
  139OSM   H15T15187   2.263   0.429   7.510 -1.4609  0.0367 -0.9638
  139OSM   C16S15188   2.205   0.322   7.696 -0.6256 -0.6670 -0.0967
  139OSM   H16S15189   2.244   0.218   7.704 -1.3054 -0.8439  1.2723
  139OSM   H16T15190   2.110   0.319   7.752  0.6820  0.1798  2.3168
  139OSM   C17S15191   2.303   0.396   7.785 -0.2092 -1.0362  0.2308
  139OSM   H17S15192   2.267   0.500   7.798  2.8649 -0.0476  1.7399
  139OSM   H17T15193   2.401   0.386   7.734 -0.0856 -0.4827  0.3572
  139OSM   C18S15194   2.310   0.334   7.921 -0.5784 -0.2071  0.5046
  139OSM   H18S15195   2.212   0.327   7.972 -0.3033 -1.0642  0.9451
  139OSM   H18T15196   2.382   0.394   7.982  2.2521 -1.6832 -1.1761
  139OSM   H18U15197   2.349   0.230   7.921 -1.1758 -0.4464 -0.6005
  139OSM    C1F15198   2.283   0.460   6.659  0.7880 -0.5320 -0.1111
  139OSM     OF15199   2.232   0.532   6.573  0.2790  0.0852  0.1573
  139OSM    C2F15200   2.319   0.513   6.798 -0.6979  0.8950  0.3372
  139OSM    H2F15201   2.404   0.452   6.834  0.4124  2.1762 -0.0342
  139OSM    H2G15202   2.231   0.526   6.864 -2.2997 -0.6797 -1.3579
  139OSM    C3F15203   2.393   0.649   6.778  0.7152  0.3508 -0.3766
  139OSM    H3F15204   2.321   0.720   6.733 -0.2545 -1.1475 -1.2917
  139OSM    H3G15205   2.481   0.644   6.709  0.3400 -0.2179 -0.8295
  139OSM    C4F15206   2.438   0.711   6.909 -0.7861 -0.1577  0.2684
  139OSM    H4F15207   2.356   0.695   6.983 -0.0927  0.9026  1.2892
  139OSM    H4G15208   2.453   0.821   6.902 -1.3538 -0.0138  1.1582
  139OSM    C5F15209   2.576   0.657   6.959  0.3552  0.4741  0.0896
  139OSM    H5F15210   2.647   0.704   6.889  0.5403  2.0899  1.3130
  139OSM    H5G15211   2.590   0.547   6.945  4.7241  0.9830 -0.9543
  139OSM    C6F15212   2.602   0.719   7.094 -0.3975 -0.3186 -0.5554
  139OSM    H6F15213   2.627   0.826   7.079  0.7814 -0.4320  0.4523
  139OSM    H6G15214   2.702   0.683   7.129 -0.2415 -0.7274 -1.3746
  139OSM    C7F15215   2.500   0.698   7.207 -0.3818 -0.0491  0.5568
  139OSM    H7F15216   2.455   0.598   7.195 -1.4708  0.6988 -2.7978
  139OSM    H7G15217   2.407   0.757   7.193 -1.8805 -2.6035 -0.9597
  139OSM    C8F15218   2.551   0.723   7.337 -0.3498 -0.1341 -0.2725
  139OSM    H8F15219   2.463   0.743   7.402 -0.6667  0.0796 -0.7577
  139OSM    H8G15220   2.609   0.818   7.328  1.0228 -0.9771 -0.6669
  139OSM    C9F15221   2.643   0.622   7.396  0.9397 -0.5347  0.4172
  139OSM    H9F15222   2.695   0.550   7.331  0.0841  0.2478 -1.1864
  139OSM   C10F15223   2.670   0.600   7.528  0.0315  0.4370 -0.0414
  139OSM   H10F15224   2.723   0.505   7.546  1.6875  1.2029 -0.6541
  139OSM   C11F15225   2.630   0.683   7.647 -0.2349  0.1499 -0.2144
  139OSM   H11F15226   2.524   0.673   7.677 -0.1204  1.0243  0.5453
  139OSM   H11G15227   2.635   0.792   7.626 -0.6066  0.0719 -0.7111
  139OSM   C12F15228   2.722   0.643   7.768  0.8845  0.1206  0.0948
  139OSM   H12F15229   2.818   0.698   7.756  2.8260 -3.1794 -0.6444
  139OSM   H12G15230   2.748   0.536   7.775 -1.0217 -0.3484  0.7413
  139OSM   C13F15231   2.650   0.671   7.903 -0.2688 -0.4694 -0.2336
  139OSM   H13F15232   2.547   0.633   7.888 -0.1027  0.1591 -3.8539
  139OSM   H13G15233   2.650   0.780   7.926  0.4431 -0.0293 -2.1147
  139OSM   C14F15234   2.725   0.618   8.021 -0.3511 -0.8593  0.3991
  139OSM   H14F15235   2.818   0.676   8.041 -0.6745  0.4828 -1.6506
  139OSM   H14G15236   2.755   0.513   7.997 -0.3288 -0.9998  1.0204
  139OSM   C15F15237   2.649   0.626   8.160  0.3006 -0.0302  0.1630
  139OSM   H15F15238   2.565   0.555   8.149  0.5128 -0.3335  0.5002
  139OSM   H15G15239   2.611   0.731   8.171 -0.1004  0.3102 -3.3195
  139OSM   C16F15240   2.732   0.586   8.279 -0.2813 -0.9389 -0.0145
  139OSM   H16F15241   2.786   0.489   8.270 -0.5429 -1.0441 -0.4512
  139OSM   H16G15242   2.670   0.593   8.371  0.5560  0.6851  0.4602
  139OSM   C17F15243   2.826   0.708   8.296  0.2874  0.0168  0.3045
  139OSM   H17F15244   2.792   0.803   8.249  0.1042  1.4935  3.2278
  139OSM   H17G15245   2.922   0.694   8.242 -0.0579 -0.2226 -0.2542
  139OSM   C18F15246   2.855   0.744   8.439  0.3934 -0.4771  0.3687
  139OSM   H18F15247   2.931   0.826   8.437  1.5751 -1.5517 -0.2211
  139OSM   H18G15248   2.877   0.659   8.507 -2.0482 -1.0706  0.5026
  139OSM   H18H15249   2.758   0.784   8.477  1.2784 -0.5012  2.8189
  140OSM      N15250   2.426   2.332   6.232 -0.5048 -0.1978 -0.6010
  140OSM    C1515251   2.424   2.183   6.238  0.3221  0.7393 -0.1765
  140OSM   H15A15252   2.338   2.153   6.295  0.3172  0.7001 -0.2047
  140OSM   H15B15253   2.521   2.144   6.267  0.0114  1.7806  2.5385
  140OSM   H15C15254   2.410   2.151   6.136  0.3276  2.6012 -0.7996
  140OSM    C1415255   2.542   2.360   6.155 -0.1622  0.5151  0.6733
  140OSM   H14A15256   2.576   2.461   6.172  1.4005  0.3848 -1.3132
  140OSM   H14B15257   2.527   2.349   6.049 -1.8384  0.0948  0.9367
  140OSM   H14C15258   2.626   2.298   6.182 -1.2334 -1.3266 -0.1015
  140OSM    C1315259   2.298   2.379   6.163 -0.8570  0.0358  0.1794
  140OSM   H13A15260   2.209   2.360   6.221  1.1573 -0.5826  3.3238
  140OSM   H13B15261   2.285   2.327   6.069  0.7598 -4.0462  1.9284
  140OSM   H13C15262   2.314   2.484   6.149  1.6021 -0.2014  0.6839
  140OSM    C1215263   2.445   2.387   6.370 -0.0702  0.1902 -0.1593
  140OSM   H12A15264   2.530   2.340   6.418  0.4824 -0.2917 -1.5667
  140OSM   H12B15265   2.362   2.366   6.436  0.2848 -1.2874 -0.1501
  140OSM    C1115266   2.470   2.537   6.376 -0.5161 -0.2299 -0.2903
  140OSM   H11A15267   2.456   2.565   6.483 -1.3617  0.2580 -0.5268
  140OSM   H11B15268   2.394   2.597   6.322 -0.0657  1.4327  0.8309
  140OSM      P15269   2.732   2.580   6.408 -0.1910  0.1264  0.1527
  140OSM    O1315270   2.846   2.534   6.330  0.1810  0.2940  0.3473
  140OSM    O1415271   2.749   2.717   6.461 -0.0253  0.0149  0.7393
  140OSM    O1115272   2.691   2.487   6.534  0.0913 -0.1635  0.4383
  140OSM    O1215273   2.599   2.573   6.315  0.2700 -1.2096  0.3123
  140OSM    C1S15274   2.753   2.355   6.548  0.0812 -0.3910 -0.6275
  140OSM    H1S15275   2.855   2.354   6.506 -0.2884 -0.8264 -1.5436
  140OSM    H1T15276   2.701   2.267   6.503 -1.9513  0.6067 -0.3645
  140OSM     NF15277   2.859   2.221   6.739 -0.1066  0.2384  0.1928
  140OSM    HNF15278   2.828   2.126   6.742 -0.7079  0.3510 -1.3595
  140OSM    C2S15279   2.762   2.318   6.703 -0.2950  0.0327  0.0568
  140OSM    H2S15280   2.805   2.412   6.743 -1.9098  0.7153  0.2561
  140OSM    C3S15281   2.621   2.297   6.756  0.0230  0.1309  0.1023
  140OSM    H3S15282   2.565   2.219   6.698 -0.3497  1.8251 -1.9369
  140OSM     O315283   2.540   2.418   6.747  0.0295  0.2322  0.5154
  140OSM    HO315284   2.589   2.466   6.680 -0.1575  1.2096  1.0576
  140OSM    C4S15285   2.623   2.264   6.905  0.6197  0.0657  0.0599
  140OSM    H4S15286   2.684   2.335   6.962 -0.2198  0.3298  0.6502
  140OSM    C5S15287   2.557   2.159   6.959 -0.3266  0.4496  0.1595
  140OSM    H5S15288   2.498   2.087   6.900 -1.1221 -0.7864  2.3043
  140OSM    C6S15289   2.539   2.141   7.106  0.3470 -0.0612  0.0860
  140OSM    H6S15290   2.432   2.116   7.121  0.0069 -0.5226 -2.5644
  140OSM    H6T15291   2.536   2.239   7.158 -0.0946  0.6198 -1.1718
  140OSM    C7S15292   2.637   2.060   7.185 -0.3571  0.3789 -0.0409
  140OSM    H7S15293   2.729   2.118   7.207 -0.1048  0.0595 -0.2374
  140OSM    H7T15294   2.670   1.968   7.133  1.8742  2.2183 -2.1548
  140OSM    C8S15295   2.584   2.023   7.328  0.8471  0.1527 -0.0875
  140OSM    H8S15296   2.660   1.948   7.358  1.7070  0.4684 -1.3635
  140OSM    H8T15297   2.484   1.974   7.321  2.0978 -2.5477 -0.3508
  140OSM    C9S15298   2.601   2.134   7.437  0.1135 -0.1043  0.1712
  140OSM    H9S15299   2.540   2.218   7.400  0.8688  0.2396 -0.3347
  140OSM    H9T15300   2.706   2.170   7.435  0.5974 -1.4054 -2.1019
  140OSM   C10S15301   2.543   2.093   7.572 -0.3212 -0.1142  0.3040
  140OSM   H10S15302   2.591   1.998   7.604 -0.1817 -0.0269  0.3529
  140OSM   H10T15303   2.436   2.075   7.545  0.0007  1.6956 -2.6204
  140OSM   C11S15304   2.559   2.193   7.696 -0.1922 -0.1728  0.6517
  140OSM   H11S15305   2.507   2.282   7.654  0.4861  0.2701  0.7397
  140OSM   H11T15306   2.665   2.219   7.716  0.2293 -1.5058  0.2432
  140OSM   C12S15307   2.492   2.143   7.823 -0.4975 -1.1349  0.3243
  140OSM   H12S15308   2.483   2.033   7.834 -2.8691 -1.1876 -1.3023
  140OSM   H12T15309   2.385   2.173   7.810  0.0225 -0.3427 -2.9781
  140OSM   C13S15310   2.554   2.212   7.951  0.1950 -0.6642 -0.0061
  140OSM   H13S15311   2.536   2.322   7.952 -3.5558 -1.0259 -2.8756
  140OSM   H13T15312   2.664   2.195   7.948  0.5825  1.6155 -0.9753
  140OSM   C14S15313   2.511   2.154   8.085 -0.2868  0.0037  0.0204
  140OSM   H14S15314   2.598   2.180   8.149  1.8410  1.2386 -3.1384
  140OSM   H14T15315   2.511   2.043   8.075  1.6042 -0.1160  1.0374
  140OSM   C15S15316   2.397   2.229   8.147 -0.5381  0.3430  0.0616
  140OSM   H15S15317   2.387   2.318   8.081 -1.1529 -0.5113 -1.0454
  140OSM   H15T15318   2.426   2.261   8.249  1.4588 -1.8347  0.2570
  140OSM   C16S15319   2.260   2.150   8.158 -0.4240 -0.8067 -0.0911
  140OSM   H16S15320   2.272   2.056   8.215  1.6681 -2.5314 -3.0774
  140OSM   H16T15321   2.233   2.112   8.057 -1.2017 -0.9804  0.1830
  140OSM   C17S15322   2.149   2.235   8.220  0.5896  0.3059 -0.6117
  140OSM   H17S15323   2.152   2.343   8.193 -2.5044  0.5699 -0.2661
  140OSM   H17T15324   2.159   2.232   8.330  2.2522  0.9974 -0.7065
  140OSM   C18S15325   2.014   2.174   8.170  1.0088  0.3324  0.2267
  140OSM   H18S15326   2.005   2.196   8.062  0.7965  1.4423  0.4604
  140OSM   H18T15327   1.927   2.221   8.222 -0.7513 -1.4645 -0.9291
  140OSM   H18U15328   2.002   2.066   8.194 -0.6980  0.7712  1.5486
  140OSM    C1F15329   2.987   2.249   6.736  0.3035  0.5338  0.3746
  140OSM     OF15330   3.026   2.344   6.676  0.1547 -0.0875 -0.2488
  140OSM    C2F15331   3.080   2.160   6.812  0.1662 -0.2249 -0.1272
  140OSM    H2F15332   3.170   2.218   6.841 -0.0739  0.5327 -0.8674
  140OSM    H2G15333   3.128   2.079   6.753  0.6783 -1.3388  1.7353
  140OSM    C3F15334   3.025   2.105   6.943 -0.5514 -0.1439  0.0534
  140OSM    H3F15335   3.101   2.043   6.995 -1.1915  0.7680  2.1898
  140OSM    H3G15336   2.936   2.041   6.927 -0.9915  0.7907 -1.4488
  140OSM    C4F15337   2.991   2.209   7.048 -0.0009 -0.1323  0.3777
  140OSM    H4F15338   2.957   2.147   7.134  2.0344 -1.5556  0.2354
  140OSM    H4G15339   2.903   2.264   7.010 -0.1552 -0.7906 -0.2353
  140OSM    C5F15340   3.106   2.302   7.097  0.3772  0.1290  0.3838
  140OSM    H5F15341   3.155   2.349   7.009  0.7896 -1.1241 -0.0818
  140OSM    H5G15342   3.185   2.237   7.140  1.4441  0.7965 -0.5163
  140OSM    C6F15343   3.065   2.399   7.201  0.6036  0.2595 -0.0032
  140OSM    H6F15344   3.010   2.475   7.142  1.2423  2.2479  1.8231
  140OSM    H6G15345   3.164   2.443   7.228  1.2613  0.2505 -2.2602
  140OSM    C7F15346   2.998   2.339   7.317  0.6551 -0.3826 -0.2498
  140OSM    H7F15347   3.066   2.260   7.354  2.4895  1.9059  1.5853
  140OSM    H7G15348   2.900   2.299   7.285 -0.7272  3.5894 -1.6019
  140OSM    C8F15349   2.963   2.438   7.431 -0.5019  0.8628 -0.5129
  140OSM    H8F15350   2.878   2.388   7.483  3.2823 -4.0909  1.7789
  140OSM    H8G15351   2.912   2.529   7.393 -1.5411  0.7827  0.6007
  140OSM    C9F15352   3.083   2.464   7.525 -0.2873  0.6626 -0.9209
  140OSM    H9F15353   3.159   2.529   7.478 -0.8112  1.4371 -0.7047
  140OSM   C10F15354   3.098   2.408   7.648  0.3483  0.1676 -0.1389
  140OSM   H10F15355   3.200   2.417   7.689 -0.0414  3.4316  0.4210
  140OSM   C11F15356   3.007   2.307   7.716  0.2052 -0.6150  0.3302
  140OSM   H11F15357   2.938   2.280   7.633  1.5869 -0.2953 -0.9744
  140OSM   H11G15358   2.945   2.353   7.796  1.2081  1.2357  0.1072
  140OSM   C12F15359   3.101   2.194   7.756 -0.4185 -0.1188  0.1323
  140OSM   H12F15360   3.176   2.162   7.681 -1.0995 -0.0565 -0.5933
  140OSM   H12G15361   3.032   2.112   7.787  0.5468 -0.3357  1.8308
  140OSM   C13F15362   3.176   2.231   7.890  0.2410  0.6663  0.8705
  140OSM   H13F15363   3.135   2.323   7.938 -1.6709  0.6538 -0.6379
  140OSM   H13G15364   3.281   2.244   7.855 -0.6417  0.7101 -1.9953
  140OSM   C14F15365   3.178   2.114   7.992  0.3351 -0.2078 -0.4441
  140OSM   H14F15366   3.219   2.029   7.932  0.6764  0.7355 -1.5842
  140OSM   H14G15367   3.073   2.093   8.019  0.5340  1.4357  1.8564
  140OSM   C15F15368   3.258   2.154   8.118  0.4418 -0.3216  0.2479
  140OSM   H15F15369   3.236   2.262   8.132  0.2750 -0.4272  0.8593
  140OSM   H15G15370   3.365   2.139   8.091  0.9510  0.1164  1.9369
  140OSM   C16F15371   3.240   2.070   8.244 -0.6442 -0.4630 -0.3598
  140OSM   H16F15372   3.256   1.963   8.220 -0.8930 -0.6536  0.3127
  140OSM   H16G15373   3.138   2.082   8.286 -2.1145 -3.0820 -2.7983
  140OSM   C17F15374   3.335   2.110   8.360 -0.2038  0.0447  0.4815
  140OSM   H17F15375   3.316   2.214   8.394 -2.2464  0.2832 -1.1608
  140OSM   H17G15376   3.431   2.118   8.305  0.2183 -2.3824  0.7457
  140OSM   C18F15377   3.336   1.998   8.465 -0.0422 -0.1189  0.4676
  140OSM   H18F15378   3.394   2.041   8.549  0.7782 -0.4119  0.0588
  140OSM   H18G15379   3.386   1.911   8.419  0.6493  0.6916 -0.3331
  140OSM   H18H15380   3.232   1.976   8.500 -1.0757  1.8920 -1.1061
  141OSM      N15381   1.684   3.701   6.209  0.4788  1.0620  0.1094
  141OSM    C1515382   1.645   3.826   6.270 -0.5457 -0.6040 -0.6036
  141OSM   H15A15383   1.575   3.881   6.209  0.1980 -1.3009 -2.1502
  141OSM   H15B15384   1.734   3.888   6.271 -0.7083 -0.3664  0.6172
  141OSM   H15C15385   1.610   3.818   6.371  0.0783  2.4685 -0.0443
  141OSM    C1415386   1.760   3.623   6.310 -0.1650 -0.0763  0.2791
  141OSM   H14A15387   1.864   3.651   6.315  0.1787 -1.2934  0.2074
  141OSM   H14B15388   1.768   3.520   6.280  0.9255  0.3612 -1.0376
  141OSM   H14C15389   1.715   3.614   6.408  0.2910  0.4726  0.5471
  141OSM    C1315390   1.554   3.628   6.172  0.8858 -0.1440 -0.5718
  141OSM   H13A15391   1.576   3.524   6.149 -1.0685 -0.4107 -1.4920
  141OSM   H13B15392   1.504   3.683   6.094  0.1477  3.9660  2.4436
  141OSM   H13C15393   1.497   3.642   6.263  3.6738  2.7208  0.9265
  141OSM    C1215394   1.764   3.727   6.085 -0.5695  0.7398  0.0196
  141OSM   H12A15395   1.711   3.797   6.023 -0.4265  0.1076 -0.8209
  141OSM   H12B15396   1.789   3.634   6.038  1.4966  1.1843  0.1368
  141OSM    C1115397   1.901   3.792   6.106  0.1421 -0.7913 -0.1114
  141OSM   H11A15398   1.893   3.873   6.182 -1.2492  0.0344 -1.1048
  141OSM   H11B15399   1.923   3.841   6.009  0.9637  0.3482  0.6220
  141OSM      P15400   2.132   3.722   6.216 -0.0015 -0.2105 -0.0867
  141OSM    O1315401   2.216   3.603   6.215 -0.1760  0.3360  0.3143
  141OSM    O1415402   2.190   3.844   6.155 -0.0268 -0.4539 -0.2587
  141OSM    O1115403   2.083   3.749   6.368 -0.1681 -0.2461 -0.0438
  141OSM    O1215404   2.000   3.697   6.138 -0.6379 -0.1584 -0.5425
  141OSM    C1S15405   2.181   3.769   6.468 -0.4925 -0.1451  0.7027
  141OSM    H1S15406   2.283   3.790   6.428 -0.0823  0.7713  2.1442
  141OSM    H1T15407   2.199   3.673   6.521  1.1513 -0.7598 -0.8498
  141OSM     NF15408   2.234   3.863   6.685 -0.2705 -0.2955 -0.4484
  141OSM    HNF15409   2.208   3.807   6.763 -0.7892 -0.7455 -0.9321
  141OSM    C2S15410   2.143   3.880   6.566 -0.3648 -0.4891  0.5271
  141OSM    H2S15411   2.161   3.979   6.519 -2.1123 -0.4490 -0.1390
  141OSM    C3S15412   1.990   3.871   6.588 -0.1331 -0.3370  0.2518
  141OSM    H3S15413   1.949   3.768   6.596  0.0800 -0.9056 -3.7319
  141OSM     O315414   1.912   3.921   6.475  0.6611 -0.4031  0.0937
  141OSM    HO315415   1.971   3.928   6.399  0.2060  1.6926 -0.1160
  141OSM    C4S15416   1.961   3.935   6.723 -0.4276 -0.6948 -0.7672
  141OSM    H4S15417   2.007   3.876   6.804  0.3190 -0.0420 -0.7117
  141OSM    C5S15418   1.895   4.051   6.754 -1.3163 -0.1001  0.4173
  141OSM    H5S15419   1.858   4.100   6.663 -0.2478 -1.4465 -0.7972
  141OSM    C6S15420   1.874   4.111   6.892 -0.1520  0.7063 -0.5531
  141OSM    H6S15421   1.767   4.138   6.904 -0.8636 -1.8248 -0.6746
  141OSM    H6T15422   1.934   4.204   6.890 -0.1571  0.7338  0.3423
  141OSM    C7S15423   1.917   4.025   7.019  0.2165  0.2289 -0.7783
  141OSM    H7S15424   2.024   3.996   7.017  0.5083  0.8527  1.7211
  141OSM    H7T15425   1.866   3.926   7.024  0.7830 -0.0426 -0.1387
  141OSM    C8S15426   1.892   4.104   7.152 -0.0015 -0.3827  0.4992
  141OSM    H8S15427   1.783   4.126   7.158 -0.1767 -1.3271  0.9409
  141OSM    H8T15428   1.944   4.201   7.139 -1.4648  0.5395  1.2452
  141OSM    C9S15429   1.933   4.026   7.279 -0.2343 -0.1047 -0.0350
  141OSM    H9S15430   2.041   4.009   7.262 -0.3896 -0.1043 -1.0895
  141OSM    H9T15431   1.889   3.924   7.290  0.9017 -0.4237  2.1546
  141OSM   C10S15432   1.902   4.099   7.414 -0.5453 -0.1356 -0.3106
  141OSM   H10S15433   1.794   4.122   7.417 -0.6578 -0.6419 -0.3811
  141OSM   H10T15434   1.950   4.198   7.432  0.0414 -0.7372  1.7524
  141OSM   C11S15435   1.938   4.018   7.538  0.7034  0.0118  0.2343
  141OSM   H11S15436   2.048   4.010   7.544  0.6544 -2.2942 -0.7497
  141OSM   H11T15437   1.900   3.913   7.543  1.6849 -0.3615  0.0034
  141OSM   C12S15438   1.886   4.101   7.662  0.4264  0.6283 -0.8104
  141OSM   H12S15439   1.777   4.114   7.644  0.5920  1.8343 -1.0700
  141OSM   H12T15440   1.945   4.195   7.668 -1.3123  1.6718  2.0530
  141OSM   C13S15441   1.887   4.023   7.789 -0.5229  0.6458  0.5374
  141OSM   H13S15442   1.993   3.997   7.809 -0.4578 -0.7891 -1.4113
  141OSM   H13T15443   1.827   3.930   7.777 -2.7210  1.8794  1.3205
  141OSM   C14S15444   1.821   4.083   7.910  0.4072 -0.6706 -0.0769
  141OSM   H14S15445   1.713   4.104   7.896  0.5515 -0.0727 -0.3478
  141OSM   H14T15446   1.875   4.178   7.928  1.0759 -1.1162  0.3008
  141OSM   C15S15447   1.829   3.992   8.039 -0.0094 -0.4438 -0.0842
  141OSM   H15S15448   1.872   4.055   8.120 -0.0233  0.0533 -0.4552
  141OSM   H15T15449   1.908   3.917   8.017  0.1568 -0.0251 -0.9684
  141OSM   C16S15450   1.704   3.928   8.078 -0.3422  0.2228 -0.5472
  141OSM   H16S15451   1.677   3.856   7.998 -0.7285 -0.0229 -0.2056
  141OSM   H16T15452   1.625   4.007   8.086 -0.3602  0.1418  0.0919
  141OSM   C17S15453   1.725   3.844   8.200  0.8004 -0.0904 -0.4171
  141OSM   H17S15454   1.808   3.771   8.191 -0.7948 -1.9013 -1.2088
  141OSM   H17T15455   1.639   3.776   8.217  1.5969 -0.4799  2.7086
  141OSM   C18S15456   1.735   3.924   8.327 -0.4769  0.3199  0.2709
  141OSM   H18S15457   1.843   3.949   8.340 -0.1712 -1.4467  1.4875
  141OSM   H18T15458   1.713   3.872   8.423  0.5664 -1.8218 -0.5692
  141OSM   H18U15459   1.679   4.019   8.320 -1.6366 -0.3651 -0.0189
  141OSM    C1F15460   2.363   3.911   6.684  0.1746  0.0485  0.4937
  141OSM     OF15461   2.391   3.986   6.591 -0.3203  0.4101 -0.5825
  141OSM    C2F15462   2.452   3.849   6.785  0.4110  0.3949  0.4039
  141OSM    H2F15463   2.553   3.884   6.755 -0.0647  0.7039 -0.9142
  141OSM    H2G15464   2.445   3.739   6.776  2.0117  0.3473 -0.4755
  141OSM    C3F15465   2.409   3.898   6.922  0.0731 -0.5593 -0.4081
  141OSM    H3F15466   2.473   3.847   6.997 -1.2878 -0.0632  1.1396
  141OSM    H3G15467   2.309   3.860   6.949  1.1243 -1.7802  2.0356
  141OSM    C4F15468   2.411   4.051   6.934 -0.2720 -0.9913  0.3678
  141OSM    H4F15469   2.340   4.100   6.865 -1.5218 -0.3529  2.0417
  141OSM    H4G15470   2.515   4.081   6.907  0.7861 -1.9410  2.9827
  141OSM    C5F15471   2.396   4.102   7.074 -0.0927  0.0224  0.5471
  141OSM    H5F15472   2.290   4.082   7.103 -0.8576 -0.9894 -2.5719
  141OSM    H5G15473   2.402   4.213   7.075 -2.3221  0.2439  2.9938
  141OSM    C6F15474   2.495   4.040   7.181 -0.0514 -0.4087  0.3745
  141OSM    H6F15475   2.600   4.052   7.147 -0.6196  0.1706 -1.2569
  141OSM    H6G15476   2.469   3.933   7.190 -0.4904 -0.3239  0.1307
  141OSM    C7F15477   2.503   4.117   7.316 -0.0610 -0.3932 -0.2779
  141OSM    H7F15478   2.550   4.215   7.293 -4.6677  1.6896 -2.0853
  141OSM    H7G15479   2.570   4.059   7.383 -0.8444 -1.0051 -0.0145
  141OSM    C8F15480   2.361   4.139   7.380 -0.7666  0.7298 -0.1225
  141OSM    H8F15481   2.304   4.045   7.393  0.4747 -0.3389 -1.9646
  141OSM    H8G15482   2.307   4.192   7.298  1.5869  2.0862 -0.8984
  141OSM    C9F15483   2.386   4.221   7.513  0.7008 -0.3261  0.0746
  141OSM    H9F15484   2.379   4.330   7.503  1.0881 -0.2585  0.5036
  141OSM   C10F15485   2.419   4.169   7.634  0.2728  0.0240  0.4634
  141OSM   H10F15486   2.447   4.245   7.709 -0.7064  0.7692  0.0931
  141OSM   C11F15487   2.410   4.024   7.674  0.3418  0.2399 -0.5411
  141OSM   H11F15488   2.505   3.976   7.704 -0.6446 -1.0396  0.6690
  141OSM   H11G15489   2.384   3.960   7.586 -0.8942  1.0953 -0.8200
  141OSM   C12F15490   2.323   4.012   7.803 -0.4075 -0.5905  0.7133
  141OSM   H12F15491   2.319   3.905   7.830  0.7325 -0.6385  0.7206
  141OSM   H12G15492   2.220   4.044   7.777  0.6679  0.9562 -2.0738
  141OSM   C13F15493   2.377   4.072   7.932  0.5442 -0.7472 -0.3725
  141OSM   H13F15494   2.405   4.179   7.917  0.1633 -0.4754  0.7414
  141OSM   H13G15495   2.466   4.020   7.972  1.3693  0.2843 -0.8154
  141OSM   C14F15496   2.279   4.075   8.050 -0.0333  0.1432  0.0843
  141OSM   H14F15497   2.178   4.107   8.017  0.7775  1.0823 -1.6406
  141OSM   H14G15498   2.321   4.147   8.122  0.5302  1.6474 -1.6598
  141OSM   C15F15499   2.259   3.932   8.111  0.1925 -0.4924  0.1473
  141OSM   H15F15500   2.355   3.889   8.146  1.5819  1.5377 -0.9765
  141OSM   H15G15501   2.218   3.863   8.034 -0.0423 -2.7497  2.1738
  141OSM   C16F15502   2.161   3.930   8.228 -0.5981  0.3420  0.0121
  141OSM   H16F15503   2.074   3.992   8.195 -0.4647 -0.9246 -3.0532
  141OSM   H16G15504   2.196   3.975   8.323  0.6879  0.7196 -0.6160
  141OSM   C17F15505   2.115   3.787   8.265  0.4356  0.3139 -0.4663
  141OSM   H17F15506   2.078   3.731   8.176 -0.1496 -0.8125  0.4488
  141OSM   H17G15507   2.038   3.804   8.344  0.4173  0.6901 -0.5662
  141OSM   C18F15508   2.222   3.693   8.324  0.2071  0.1946 -0.2932
  141OSM   H18F15509   2.306   3.696   8.251  0.8717  2.1059  0.4955
  141OSM   H18G15510   2.191   3.586   8.328  0.7283 -0.0420 -1.8581
  141OSM   H18H15511   2.266   3.728   8.419  0.3908 -0.5201 -0.1086
  142OSM      N15512   2.304   5.383   6.223  0.0722 -0.5265 -0.6817
  142OSM    C1515513   2.388   5.265   6.199 -0.7904  0.1271  0.2041
  142OSM   H15A15514   2.491   5.283   6.227 -0.0961  0.8236 -2.5313
  142OSM   H15B15515   2.378   5.215   6.104 -0.5895  1.1465 -0.3574
  142OSM   H15C15516   2.367   5.183   6.267 -0.3493 -0.7980 -0.7500
  142OSM    C1415517   2.345   5.490   6.125  0.2748  0.1100  0.6334
  142OSM   H14A15518   2.447   5.517   6.148  1.3443 -3.2654  0.3784
  142OSM   H14B15519   2.281   5.577   6.123  2.2205  1.6084 -0.1663
  142OSM   H14C15520   2.348   5.461   6.021  2.8788  0.9721  0.4094
  142OSM    C1315521   2.159   5.350   6.188  0.2522  0.2863  0.6849
  142OSM   H13A15522   2.137   5.252   6.227 -0.4430 -0.5684 -1.6818
  142OSM   H13B15523   2.148   5.348   6.081  0.0069 -1.2788  0.7215
  142OSM   H13C15524   2.082   5.423   6.209 -1.7762 -1.2153 -1.1990
  142OSM    C1215525   2.318   5.431   6.367  0.3253  0.2674  0.0302
  142OSM   H12A15526   2.422   5.452   6.387  0.0599  1.6864 -0.0016
  142OSM   H12B15527   2.281   5.355   6.434  0.8562  1.1672  1.3875
  142OSM    C1115528   2.227   5.549   6.415  0.2298  0.1377  0.1298
  142OSM   H11A15529   2.232   5.546   6.526  1.5064 -1.1468  0.0782
  142OSM   H11B15530   2.126   5.524   6.376  0.0814 -0.5504  0.9399
  142OSM      P15531   2.168   5.799   6.360 -0.7193  0.0529 -0.0170
  142OSM    O1315532   2.246   5.918   6.318  0.1626 -0.3983 -0.1015
  142OSM    O1415533   2.037   5.769   6.303 -0.1489  0.0689 -1.1800
  142OSM    O1115534   2.146   5.807   6.514  0.2533 -0.3414  0.1023
  142OSM    O1215535   2.272   5.675   6.358  0.4640 -0.1312 -0.2361
  142OSM    C1S15536   2.248   5.865   6.598  0.4080  0.0523  0.5486
  142OSM    H1S15537   2.271   5.968   6.561  0.2396  0.6571  2.0509
  142OSM    H1T15538   2.337   5.802   6.583  0.5570 -0.0742  1.8226
  142OSM     NF15539   2.324   5.894   6.827  0.9041 -0.2582 -0.3189
  142OSM    HNF15540   2.383   5.825   6.868  1.8644 -0.2939 -1.6636
  142OSM    C2S15541   2.208   5.858   6.748 -0.0500 -0.0394  1.5578
  142OSM    H2S15542   2.125   5.929   6.765  1.7351  3.3436 -2.1032
  142OSM    C3S15543   2.153   5.715   6.783 -0.2030  0.7112  0.3963
  142OSM    H3S15544   2.237   5.644   6.769  0.0483  1.2848 -1.0566
  142OSM     O315545   2.051   5.653   6.698  0.2907  0.6680 -0.1356
  142OSM    HO315546   2.058   5.694   6.612 -1.5216 -1.9297 -1.6380
  142OSM    C4S15547   2.114   5.716   6.928 -0.1989  0.3246 -0.3436
  142OSM    H4S15548   2.209   5.722   6.983 -0.6384  1.1463  0.3357
  142OSM    C5S15549   1.996   5.717   6.991  0.0679  0.3109  0.3119
  142OSM    H5S15550   1.900   5.725   6.937 -0.1319  0.5225  0.6993
  142OSM    C6S15551   1.978   5.698   7.137  0.1264  0.5224  0.0595
  142OSM    H6S15552   1.930   5.601   7.166 -2.0111  0.9831 -1.6921
  142OSM    H6T15553   1.900   5.772   7.166 -1.5972 -0.8160 -0.9515
  142OSM    C7S15554   2.099   5.717   7.223  0.1634  0.0690 -0.7191
  142OSM    H7S15555   2.140   5.820   7.233  0.2486 -0.1114  1.1943
  142OSM    H7T15556   2.180   5.645   7.202 -0.8900 -1.6083  0.6933
  142OSM    C8S15557   2.063   5.698   7.368 -0.4263 -0.1754 -0.3371
  142OSM    H8S15558   2.027   5.596   7.392  0.5267 -0.1576  1.3869
  142OSM    H8T15559   1.999   5.781   7.405  1.2507  1.7685 -1.5304
  142OSM    C9S15560   2.192   5.718   7.455  0.0709  0.3234  0.4364
  142OSM    H9S15561   2.246   5.807   7.415  0.9685 -0.6448 -0.5436
  142OSM    H9T15562   2.257   5.629   7.454  0.2158  0.3887 -2.4396
  142OSM   C10S15563   2.160   5.752   7.597  0.6077 -0.1754  0.4024
  142OSM   H10S15564   2.107   5.663   7.637 -2.3943  1.4818  0.3854
  142OSM   H10T15565   2.087   5.835   7.598  1.0170  0.1891  1.2033
  142OSM   C11S15566   2.286   5.775   7.676  0.5281  0.1756 -0.2786
  142OSM   H11S15567   2.347   5.853   7.625 -0.7455 -0.4118 -2.8707
  142OSM   H11T15568   2.347   5.682   7.670 -1.9179 -1.6543  1.5720
  142OSM   C12S15569   2.252   5.803   7.819 -0.6814 -0.1343  0.3697
  142OSM   H12S15570   2.199   5.723   7.875 -1.7952  1.1214  1.1631
  142OSM   H12T15571   2.187   5.893   7.820 -1.8522 -0.9254 -1.1854
  142OSM   C13S15572   2.381   5.809   7.901 -0.2288  0.2541  0.4202
  142OSM   H13S15573   2.458   5.863   7.843 -1.1399  0.8770 -0.2315
  142OSM   H13T15574   2.419   5.704   7.905 -0.5920  0.0296 -1.2633
  142OSM   C14S15575   2.371   5.865   8.043 -0.4902 -1.1671 -0.1584
  142OSM   H14S15576   2.317   5.962   8.041  0.1448 -0.8134 -0.3565
  142OSM   H14T15577   2.477   5.886   8.067 -0.4766  0.1151 -1.2056
  142OSM   C15S15578   2.316   5.767   8.142  0.4518 -0.0414 -0.5739
  142OSM   H15S15579   2.374   5.673   8.134  2.9653  1.5645 -2.7633
  142OSM   H15T15580   2.210   5.739   8.123 -0.0718 -0.9539  2.9279
  142OSM   C16S15581   2.334   5.808   8.297 -0.1364 -0.1781 -0.8589
  142OSM   H16S15582   2.294   5.912   8.304  3.6977  1.6978 -3.1879
  142OSM   H16T15583   2.439   5.818   8.331 -0.9150  2.8960  1.0429
  142OSM   C17S15584   2.273   5.701   8.392 -0.7744  0.2233  0.6462
  142OSM   H17S15585   2.344   5.622   8.425 -1.0604  0.7076  2.5519
  142OSM   H17T15586   2.190   5.651   8.339 -0.4313  1.1997 -0.8781
  142OSM   C18S15587   2.228   5.755   8.523  0.6343 -0.3099  0.5424
  142OSM   H18S15588   2.318   5.779   8.584  1.1931 -1.2417  0.0975
  142OSM   H18T15589   2.156   5.686   8.572 -0.2753  0.6278  0.5688
  142OSM   H18U15590   2.187   5.858   8.524 -0.8156 -0.8352 -0.5122
  142OSM    C1F15591   2.363   6.019   6.837  0.9066  0.4291 -0.1584
  142OSM     OF15592   2.316   6.105   6.767 -0.0636 -0.5632  0.5657
  142OSM    C2F15593   2.454   6.053   6.948 -0.2404  0.1912  0.2389
  142OSM    H2F15594   2.558   6.032   6.916  0.3636  0.9522  1.5942
  142OSM    H2G15595   2.443   5.990   7.039  0.8808 -3.1138 -1.7329
  142OSM    C3F15596   2.432   6.205   6.985 -0.3588  0.0867 -0.4114
  142OSM    H3F15597   2.342   6.199   7.049  1.1253 -0.0894  1.7657
  142OSM    H3G15598   2.420   6.271   6.897 -1.4966  1.2245  0.5603
  142OSM    C4F15599   2.550   6.269   7.063  0.5932 -0.3083  0.3271
  142OSM    H4F15600   2.516   6.372   7.089 -0.2059  0.2062 -2.4460
  142OSM    H4G15601   2.645   6.288   7.010  0.3587 -0.8995 -0.3267
  142OSM    C5F15602   2.574   6.195   7.191  0.3428 -0.4979  0.4054
  142OSM    H5F15603   2.593   6.087   7.173 -0.9103 -0.8951  1.2494
  142OSM    H5G15604   2.472   6.203   7.235  0.7551  1.2888  1.1190
  142OSM    C6F15605   2.675   6.272   7.273 -0.5327  0.3933  0.0707
  142OSM    H6F15606   2.626   6.367   7.302 -0.9732 -0.2440  1.5011
  142OSM    H6G15607   2.762   6.294   7.206  0.4568 -0.9034  0.8716
  142OSM    C7F15608   2.715   6.199   7.403  0.1799  0.4114  0.3438
  142OSM    H7F15609   2.799   6.253   7.451  1.1314 -0.6690 -0.0833
  142OSM    H7G15610   2.767   6.104   7.381  0.7398  1.0011 -0.9347
  142OSM    C8F15611   2.598   6.202   7.506 -0.5233 -0.0892 -0.2677
  142OSM    H8F15612   2.510   6.134   7.494 -1.0512 -0.2202  3.3972
  142OSM    H8G15613   2.557   6.305   7.516 -0.3444  0.3561 -3.1848
  142OSM    C9F15614   2.642   6.151   7.645 -0.2770 -0.7811  1.0853
  142OSM    H9F15615   2.735   6.091   7.649 -0.8252 -2.0458 -2.0517
  142OSM   C10F15616   2.576   6.171   7.766  0.1273  0.2629  0.5085
  142OSM   H10F15617   2.621   6.132   7.858  3.3979  1.7401 -0.3370
  142OSM   C11F15618   2.454   6.260   7.793  0.2366 -0.3309 -0.1837
  142OSM   H11F15619   2.362   6.204   7.820 -0.9017  0.2310 -2.6259
  142OSM   H11G15620   2.417   6.302   7.698  0.7778 -0.1710 -0.3272
  142OSM   C12F15621   2.476   6.365   7.903  0.3266 -0.7772 -0.4665
  142OSM   H12F15622   2.395   6.440   7.901  1.9338  1.0409 -0.1670
  142OSM   H12G15623   2.573   6.419   7.897  0.1043 -0.1610  1.1486
  142OSM   C13F15624   2.475   6.309   8.048  0.1388 -0.9530 -0.8220
  142OSM   H13F15625   2.492   6.390   8.123 -0.7704 -2.0047  0.5854
  142OSM   H13G15626   2.558   6.235   8.056  1.3558  0.3911 -0.4015
  142OSM   C14F15627   2.347   6.249   8.099 -0.3157 -0.1648  0.1117
  142OSM   H14F15628   2.327   6.151   8.051 -3.0210  1.4211 -2.3308
  142OSM   H14G15629   2.265   6.307   8.052 -1.8232 -3.1379 -1.1968
  142OSM   C15F15630   2.315   6.251   8.245 -0.5402 -0.0150 -0.4929
  142OSM   H15F15631   2.207   6.230   8.258 -0.5764  1.3098  1.7408
  142OSM   H15G15632   2.315   6.353   8.289  0.4190 -1.5609  3.4243
  142OSM   C16F15633   2.420   6.161   8.327 -0.1234 -0.1040  0.6781
  142OSM   H16F15634   2.512   6.222   8.334  0.7614 -1.4334  1.0678
  142OSM   H16G15635   2.445   6.070   8.268 -2.4115  0.4790 -1.3329
  142OSM   C17F15636   2.359   6.124   8.461 -1.4076 -0.1682  0.0230
  142OSM   H17F15637   2.265   6.064   8.454 -1.8771  0.4562  0.8177
  142OSM   H17G15638   2.350   6.226   8.504  1.5627  0.9859 -1.8038
  142OSM   C18F15639   2.468   6.056   8.543 -0.3098  0.4203  0.6480
  142OSM   H18F15640   2.551   6.127   8.565  1.1085 -0.9168 -0.1985
  142OSM   H18G15641   2.513   5.975   8.484 -2.2434 -0.8538  0.8286
  142OSM   H18H15642   2.415   6.016   8.633 -0.5472 -0.5758  0.0699
  143OSM      N15643   3.420   1.324   5.987  0.2847  0.0390 -0.0091
  143OSM    C1515644   3.323   1.434   5.964 -0.3541 -0.3480  0.4493
  143OSM   H15A15645   3.366   1.526   6.000 -2.4919  1.1008 -0.4347
  143OSM   H15B15646   3.224   1.417   6.004  0.1550 -0.4741  1.6970
  143OSM   H15C15647   3.311   1.454   5.858 -2.9978  2.0069  1.0622
  143OSM    C1415648   3.350   1.202   5.939 -0.5088 -0.4142 -0.5156
  143OSM   H14A15649   3.421   1.121   5.946  1.7030  1.4446  0.1173
  143OSM   H14B15650   3.318   1.217   5.837  0.8398  0.5932 -0.8190
  143OSM   H14C15651   3.260   1.180   5.994 -0.8312  0.1533 -0.8099
  143OSM    C1315652   3.533   1.351   5.890  0.2720 -0.4681  0.3003
  143OSM   H13A15653   3.491   1.345   5.791 -1.5329  0.4444  0.9714
  143OSM   H13B15654   3.605   1.271   5.897 -0.8059 -1.8134 -2.4938
  143OSM   H13C15655   3.575   1.448   5.911 -2.4820  0.4687  1.9539
  143OSM    C1215656   3.466   1.312   6.138  0.0134  0.0481  0.5829
  143OSM   H12A15657   3.376   1.289   6.193 -0.5675 -0.4136 -0.5295
  143OSM   H12B15658   3.497   1.410   6.174  0.5325 -0.4048  1.4016
  143OSM    C1115659   3.583   1.219   6.154  0.8292 -0.0586  0.1623
  143OSM   H11A15660   3.570   1.135   6.082 -0.0340  1.3590 -1.4100
  143OSM   H11B15661   3.569   1.188   6.259  1.9136  0.9093  0.6101
  143OSM      P15662   3.763   1.391   6.220 -0.4123  0.1706  0.1334
  143OSM    O1315663   3.902   1.414   6.176 -0.1564 -0.5172 -0.0785
  143OSM    O1415664   3.669   1.505   6.210  0.2104 -0.5465  0.3652
  143OSM    O1115665   3.756   1.327   6.359  0.4476  0.0260  0.4924
  143OSM    O1215666   3.710   1.278   6.120  0.4145 -0.0082 -0.2373
  143OSM    C1S15667   3.839   1.214   6.381 -0.5400  0.0673 -0.6436
  143OSM    H1S15668   3.944   1.248   6.373 -0.6396  0.7372  0.6312
  143OSM    H1T15669   3.815   1.130   6.312 -3.2826 -1.2235  1.6856
  143OSM     NF15670   3.947   1.091   6.560  0.0478 -0.7471 -0.0030
  143OSM    HNF15671   3.943   0.993   6.578  1.6061 -0.9193 -0.4412
  143OSM    C2S15672   3.825   1.168   6.527 -0.0516 -0.6879  0.4021
  143OSM    H2S15673   3.819   1.254   6.596 -1.4588 -0.6979  0.3214
  143OSM    C3S15674   3.680   1.108   6.541 -0.2870  0.5051 -0.7134
  143OSM    H3S15675   3.682   1.023   6.470  0.6940  0.2722 -0.4135
  143OSM     O315676   3.577   1.199   6.501  0.2446 -0.3613 -0.3904
  143OSM    HO315677   3.635   1.266   6.462  1.4929 -1.8551 -1.2199
  143OSM    C4S15678   3.656   1.043   6.683  0.2029 -0.6226  0.9535
  143OSM    H4S15679   3.716   0.954   6.705  2.9260  1.3432  1.9718
  143OSM    C5S15680   3.573   1.099   6.779 -0.6607  0.1914  0.3334
  143OSM    H5S15681   3.521   1.193   6.758 -0.7315 -0.0603 -0.6538
  143OSM    C6S15682   3.557   1.042   6.914  0.0677 -0.7707 -0.0133
  143OSM    H6S15683   3.622   0.952   6.926 -0.9770 -1.4071  1.0816
  143OSM    H6T15684   3.456   0.996   6.913 -0.3962  0.2011  0.6447
  143OSM    C7S15685   3.560   1.135   7.034 -0.4342 -0.0576 -0.7292
  143OSM    H7S15686   3.480   1.210   7.018 -1.2435 -0.8439 -0.4319
  143OSM    H7T15687   3.661   1.180   7.045 -0.9516  0.6892  1.5737
  143OSM    C8S15688   3.517   1.063   7.159 -0.4892  0.5535 -0.4029
  143OSM    H8S15689   3.592   0.985   7.182  0.7671  1.7013 -0.4899
  143OSM    H8T15690   3.422   1.011   7.137 -1.1865  1.1384  1.0562
  143OSM    C9S15691   3.494   1.150   7.281 -0.6869 -0.1335  0.5850
  143OSM    H9S15692   3.387   1.139   7.305 -0.5135  1.4419  2.2285
  143OSM    H9T15693   3.511   1.254   7.247 -1.8307 -0.5464 -1.4486
  143OSM   C10S15694   3.581   1.114   7.404  0.5826  0.5285 -0.0098
  143OSM   H10S15695   3.688   1.140   7.385  1.0401 -0.4972  1.0408
  143OSM   H10T15696   3.579   1.004   7.415 -0.6052  0.5025 -0.3870
  143OSM   C11S15697   3.518   1.175   7.521 -0.0196 -0.7648  0.2599
  143OSM   H11S15698   3.426   1.122   7.552 -0.0910 -0.1073  1.2318
  143OSM   H11T15699   3.491   1.281   7.497  1.5074 -0.0914  1.3307
  143OSM   C12S15700   3.620   1.177   7.642  0.8573 -0.6954 -0.0465
  143OSM   H12S15701   3.717   1.227   7.619  1.3318 -1.9300 -0.8031
  143OSM   H12T15702   3.639   1.072   7.671  1.0409 -0.2708  1.4604
  143OSM   C13S15703   3.550   1.245   7.763  0.3428 -0.2410  0.0515
  143OSM   H13S15704   3.440   1.226   7.755  0.6549 -2.4389  0.3928
  143OSM   H13T15705   3.560   1.354   7.747 -0.9402 -0.1463 -0.2568
  143OSM   C14S15706   3.610   1.204   7.901  0.2924 -0.5018 -0.3798
  143OSM   H14S15707   3.572   1.282   7.971 -0.9350  1.7196 -3.2726
  143OSM   H14T15708   3.721   1.200   7.898  0.3089 -0.9885  0.5361
  143OSM   C15S15709   3.558   1.069   7.943 -1.1631  0.4671 -0.7822
  143OSM   H15S15710   3.589   0.986   7.876  0.8236  1.2781 -0.9167
  143OSM   H15T15711   3.447   1.064   7.942 -1.1671  0.5785 -1.4980
  143OSM   C16S15712   3.618   1.029   8.075  0.2569  0.2284 -0.0676
  143OSM   H16S15713   3.729   1.029   8.073  0.4120  1.7165  2.5979
  143OSM   H16T15714   3.584   0.925   8.095 -0.9447  0.4503 -0.8688
  143OSM   C17S15715   3.557   1.107   8.200  0.9591  0.0251  0.3909
  143OSM   H17S15716   3.446   1.099   8.203  0.6881  2.8849  0.8755
  143OSM   H17T15717   3.601   1.209   8.204  3.6553 -1.1022  1.5956
  143OSM   C18S15718   3.606   1.038   8.331  0.6116  0.5535 -0.0766
  143OSM   H18S15719   3.564   0.935   8.336 -1.3857  1.2417 -1.4318
  143OSM   H18T15720   3.572   1.103   8.414 -0.6765  0.8547 -0.8070
  143OSM   H18U15721   3.717   1.033   8.341  0.3903 -0.6994  2.6618
  143OSM    C1F15722   4.056   1.162   6.601 -0.3723  0.2216  0.8577
  143OSM     OF15723   4.068   1.288   6.602  0.2933  0.0254  0.4374
  143OSM    C2F15724   4.172   1.083   6.649  0.5802 -0.2634 -0.0382
  143OSM    H2F15725   4.232   1.089   6.555 -0.0383 -1.6462 -0.5419
  143OSM    H2G15726   4.145   0.979   6.675  0.4921  0.0792  1.3164
  143OSM    C3F15727   4.236   1.155   6.767  0.7079  0.0765  0.7099
  143OSM    H3F15728   4.277   1.257   6.752  1.5509 -0.4035 -0.4304
  143OSM    H3G15729   4.331   1.102   6.789 -0.0495 -2.1675 -1.0356
  143OSM    C4F15730   4.148   1.156   6.897  0.3240  0.2650  0.8316
  143OSM    H4F15731   4.092   1.060   6.896  1.1230 -0.2003 -0.0619
  143OSM    H4G15732   4.066   1.228   6.881  1.4219  1.4439  0.4124
  143OSM    C5F15733   4.217   1.181   7.025 -1.1746  0.0122 -0.4344
  143OSM    H5F15734   4.266   1.281   7.024 -0.5889 -0.2489  0.8038
  143OSM    H5G15735   4.294   1.104   7.044 -0.1821  0.9335 -0.6099
  143OSM    C6F15736   4.125   1.194   7.150 -0.2318 -0.8562 -0.8800
  143OSM    H6F15737   4.189   1.191   7.241 -0.1231  0.6726 -0.8849
  143OSM    H6G15738   4.054   1.108   7.152 -0.5396 -0.6070 -0.9834
  143OSM    C7F15739   4.048   1.323   7.167  0.9077 -0.0341 -0.1045
  143OSM    H7F15740   3.998   1.347   7.071 -0.1642  1.1765  0.7178
  143OSM    H7G15741   4.119   1.406   7.191  0.6869  0.1804 -0.1929
  143OSM    C8F15742   3.943   1.314   7.274 -0.1619  0.7666  0.1235
  143OSM    H8F15743   3.871   1.231   7.263 -0.6492  1.3791 -1.5391
  143OSM    H8G15744   3.876   1.402   7.266 -0.5889  0.6536  1.9759
  143OSM    C9F15745   4.015   1.294   7.403 -0.3364  0.4825  0.1877
  143OSM    H9F15746   4.067   1.201   7.429 -0.3303  0.5554  0.4379
  143OSM   C10F15747   4.021   1.387   7.499  0.3485  0.6265 -0.4609
  143OSM   H10F15748   4.074   1.361   7.592  0.6372  0.4671 -0.6671
  143OSM   C11F15749   3.954   1.523   7.504  0.1360  0.1154  0.2004
  143OSM   H11F15750   3.933   1.570   7.405  1.1111 -0.4914 -0.3150
  143OSM   H11G15751   4.017   1.601   7.552  1.7794 -1.1239  0.1652
  143OSM   C12F15752   3.814   1.515   7.573  0.2140  0.7572  0.0119
  143OSM   H12F15753   3.819   1.488   7.681 -0.1043  1.0119  0.0931
  143OSM   H12G15754   3.762   1.432   7.522  0.8441 -0.5830  1.4741
  143OSM   C13F15755   3.729   1.644   7.567  0.0371 -0.3829  0.0922
  143OSM   H13F15756   3.790   1.733   7.593  1.5737 -0.6752 -2.1985
  143OSM   H13G15757   3.656   1.630   7.649  1.2474 -0.5964  1.1669
  143OSM   C14F15758   3.658   1.667   7.428  0.8442 -0.0305  0.2988
  143OSM   H14F15759   3.595   1.581   7.397 -0.0929  0.9096 -0.4782
  143OSM   H14G15760   3.731   1.669   7.344  1.3471 -4.7271  0.3579
  143OSM   C15F15761   3.566   1.788   7.430  0.0153  0.2164  0.6690
  143OSM   H15F15762   3.615   1.888   7.428  0.2972  0.1030  1.4695
  143OSM   H15G15763   3.502   1.774   7.520 -1.7129 -0.2275 -0.5682
  143OSM   C16F15764   3.448   1.772   7.325  0.0254 -0.5756 -0.6248
  143OSM   H16F15765   3.421   1.665   7.314 -2.1067 -0.0507 -1.0453
  143OSM   H16G15766   3.481   1.813   7.227 -1.5832 -0.1485 -1.0130
  143OSM   C17F15767   3.317   1.846   7.360  0.2120 -0.1701  0.0477
  143OSM   H17F15768   3.337   1.954   7.381 -1.3214  0.0850  0.2809
  143OSM   H17G15769   3.278   1.813   7.458  0.8720  1.8496  1.0547
  143OSM   C18F15770   3.215   1.841   7.248  0.4397  0.5150 -0.2140
  143OSM   H18F15771   3.139   1.919   7.269 -1.1595 -0.8740 -0.6112
  143OSM   H18G15772   3.167   1.741   7.242  1.7859 -0.1031 -1.5995
  143OSM   H18H15773   3.268   1.872   7.155  0.6943  1.8643  0.3574
  144OSM      N15774   2.143   0.708   6.218  0.0083 -0.0741  0.1051
  144OSM    C1515775   2.132   0.839   6.145  0.0734  0.7352 -0.3281
  144OSM   H15A15776   2.114   0.818   6.040  3.0036 -1.8023 -0.4554
  144OSM   H15B15777   2.223   0.896   6.146 -0.0479  0.9651 -1.4291
  144OSM   H15C15778   2.052   0.900   6.185 -0.1182 -1.0189  2.2208
  144OSM    C1415779   2.012   0.642   6.227  0.0278  0.5543 -0.4988
  144OSM   H14A15780   2.007   0.570   6.307 -0.1648 -0.9011 -1.7723
  144OSM   H14B15781   2.002   0.579   6.140 -0.0224  4.9613 -4.0072
  144OSM   H14C15782   1.926   0.706   6.218  0.2242  0.6179 -2.4049
  144OSM    C1315783   2.246   0.624   6.141  0.8050  0.6837 -0.0663
  144OSM   H13A15784   2.342   0.671   6.122  1.8652 -0.5897  1.7252
  144OSM   H13B15785   2.197   0.604   6.047 -0.7582  0.9387  0.6786
  144OSM   H13C15786   2.279   0.535   6.193  2.0396  1.2547  0.1618
  144OSM    C1215787   2.187   0.750   6.358 -0.1872  0.2470  0.4971
  144OSM   H12A15788   2.191   0.660   6.418  1.9928 -1.1456 -1.5696
  144OSM   H12B15789   2.120   0.825   6.395 -2.8358 -1.0360 -1.3607
  144OSM    C1115790   2.336   0.802   6.374 -0.3350 -0.6474  0.4035
  144OSM   H11A15791   2.406   0.726   6.333  0.4248 -0.0432  0.5641
  144OSM   H11B15792   2.364   0.803   6.482  0.4423 -2.0917  0.2496
  144OSM      P15793   2.466   0.981   6.235 -0.2541 -0.2399  0.1709
  144OSM    O1315794   2.482   0.868   6.132  0.4188  0.2467 -0.4053
  144OSM    O1415795   2.440   1.113   6.177  0.1131  0.5971 -0.1819
  144OSM    O1115796   2.587   0.980   6.327 -0.1327  0.4120 -0.1857
  144OSM    O1215797   2.349   0.939   6.334  0.3240  0.0357  0.1187
  144OSM    C1S15798   2.588   1.035   6.458  0.0521  0.2097  0.1058
  144OSM    H1S15799   2.489   1.074   6.487 -0.4467  1.0723 -2.5331
  144OSM    H1T15800   2.658   1.121   6.459  0.0562  0.3211 -2.4507
  144OSM     NF15801   2.644   0.998   6.690 -0.2535 -0.1759  0.2110
  144OSM    HNF15802   2.733   1.018   6.729 -0.8604  4.3448 -0.2123
  144OSM    C2S15803   2.640   0.929   6.558 -0.0453 -0.0870 -0.0743
  144OSM    H2S15804   2.566   0.846   6.563 -1.1128  0.7002 -2.1397
  144OSM    C3S15805   2.782   0.876   6.519 -0.3920  0.3630 -0.2121
  144OSM    H3S15806   2.859   0.956   6.524  0.3714 -0.2826 -1.1528
  144OSM     O315807   2.798   0.825   6.385  0.1341 -0.3440 -0.4386
  144OSM    HO315808   2.722   0.864   6.341 -1.3126 -0.0704  2.1557
  144OSM    C4S15809   2.823   0.772   6.623  0.7040 -0.1029  0.0333
  144OSM    H4S15810   2.860   0.813   6.718  0.2450  0.9344 -0.2151
  144OSM    C5S15811   2.830   0.641   6.601 -0.1253  0.2470 -0.1310
  144OSM    H5S15812   2.804   0.614   6.498  1.1280  0.4984 -0.5304
  144OSM    C6S15813   2.877   0.526   6.688 -0.4314  0.0038  0.7638
  144OSM    H6S15814   2.958   0.466   6.642  0.6507  2.2953 -0.4887
  144OSM    H6T15815   2.790   0.460   6.710 -0.7991  0.0883 -0.3541
  144OSM    C7S15816   2.923   0.585   6.826  0.1265  0.2402  0.1814
  144OSM    H7S15817   2.855   0.663   6.867 -0.4629  0.4347 -1.1277
  144OSM    H7T15818   3.022   0.633   6.812 -1.0552  2.3480 -1.5941
  144OSM    C8S15819   2.931   0.464   6.921  0.5792 -0.4344  0.1762
  144OSM    H8S15820   2.986   0.380   6.874 -0.0479 -1.0401  0.5047
  144OSM    H8T15821   2.825   0.443   6.945 -0.1548  2.1197 -0.5700
  144OSM    C9S15822   3.017   0.492   7.046 -0.4653 -0.4568 -0.0049
  144OSM    H9S15823   2.991   0.592   7.085 -0.4844 -0.8627  1.0603
  144OSM    H9T15824   3.124   0.506   7.019 -0.9484  2.1714 -0.8881
  144OSM   C10S15825   2.984   0.403   7.163  0.0661  0.2464  0.2797
  144OSM   H10S15826   3.015   0.301   7.133  0.7502 -0.3837  2.8831
  144OSM   H10T15827   2.874   0.411   7.176 -0.1201  0.0596 -1.0551
  144OSM   C11S15828   3.058   0.455   7.294 -0.4918  0.2313  0.2298
  144OSM   H11S15829   3.020   0.559   7.293  0.7976  0.8717 -4.1955
  144OSM   H11T15830   3.166   0.452   7.270 -0.9538  0.4283 -2.1708
  144OSM   C12S15831   3.011   0.397   7.433 -0.3477  0.1761  0.2282
  144OSM   H12S15832   3.022   0.288   7.444 -0.5613  0.1171 -0.1208
  144OSM   H12T15833   2.909   0.435   7.458  0.5410  1.6427  1.8992
  144OSM   C13S15834   3.082   0.471   7.546 -0.1114 -0.2089 -0.0741
  144OSM   H13S15835   3.046   0.575   7.532  1.8828  0.7257  1.4273
  144OSM   H13T15836   3.193   0.475   7.552 -0.0793  2.0824 -1.2936
  144OSM   C14S15837   3.039   0.414   7.679  0.4213  0.1142  0.7121
  144OSM   H14S15838   3.070   0.308   7.673  1.4088  0.3496  1.4022
  144OSM   H14T15839   2.929   0.423   7.693  0.5224 -0.0092  1.6251
  144OSM   C15S15840   3.110   0.469   7.794 -0.3883  0.0590  0.6703
  144OSM   H15S15841   3.107   0.580   7.799 -0.2667  0.0264  2.3122
  144OSM   H15T15842   3.213   0.429   7.792 -0.9781 -1.4896 -0.2208
  144OSM   C16S15843   3.049   0.421   7.928 -0.6767 -0.1075 -0.3471
  144OSM   H16S15844   2.938   0.419   7.918 -0.5759  0.7421 -1.9662
  144OSM   H16T15845   3.082   0.484   8.013 -0.1656 -0.1150 -0.5361
  144OSM   C17S15846   3.093   0.277   7.970  0.1810  0.4861 -0.7080
  144OSM   H17S15847   3.200   0.279   7.999 -0.1480 -1.4000  0.7981
  144OSM   H17T15848   3.084   0.211   7.881  1.0185  1.6451 -1.7075
  144OSM   C18S15849   3.019   0.229   8.097  0.3275 -0.2124 -0.4999
  144OSM   H18S15850   3.003   0.316   8.164 -3.7138 -1.0507 -0.1319
  144OSM   H18T15851   3.079   0.155   8.154  0.9145  0.5156 -0.1624
  144OSM   H18U15852   2.916   0.200   8.069  0.3731  1.4748 -2.6877
  144OSM    C1F15853   2.538   1.041   6.757 -0.0030 -0.2565  0.1698
  144OSM     OF15854   2.423   1.024   6.717  0.0158  0.2108  0.3748
  144OSM    C2F15855   2.568   1.115   6.886 -1.0822 -0.4268 -0.0981
  144OSM    H2F15856   2.571   1.224   6.868 -0.9872 -0.4583 -0.2753
  144OSM    H2G15857   2.665   1.093   6.935 -1.1696 -2.1820 -0.6276
  144OSM    C3F15858   2.463   1.094   6.992  0.9935  0.2245 -1.0904
  144OSM    H3F15859   2.451   0.986   7.015  0.7470  0.5222  0.2807
  144OSM    H3G15860   2.362   1.113   6.950 -0.9562 -0.3444  2.9083
  144OSM    C4F15861   2.478   1.191   7.121  0.6827 -0.0551  0.6911
  144OSM    H4F15862   2.376   1.194   7.165 -0.1129 -3.3690 -0.5991
  144OSM    H4G15863   2.504   1.289   7.076 -1.2277 -1.4365 -4.0003
  144OSM    C5F15864   2.569   1.152   7.237  0.2113  0.3774  0.3637
  144OSM    H5F15865   2.661   1.158   7.176  2.1181  1.2014  3.1520
  144OSM    H5G15866   2.555   1.048   7.273  1.5436 -0.5760 -1.7101
  144OSM    C6F15867   2.576   1.254   7.343 -0.7712  0.5971 -0.3194
  144OSM    H6F15868   2.484   1.265   7.404 -0.0082 -1.7586  1.4112
  144OSM    H6G15869   2.583   1.358   7.303  0.2388  0.2152 -1.1948
  144OSM    C7F15870   2.699   1.226   7.439 -0.8269 -0.1165  0.2799
  144OSM    H7F15871   2.741   1.321   7.478 -1.6569  1.1438 -1.7418
  144OSM    H7G15872   2.787   1.191   7.382 -1.7597 -2.2915  0.0688
  144OSM    C8F15873   2.671   1.133   7.558  0.1719 -0.1992  1.2944
  144OSM    H8F15874   2.760   1.096   7.613  1.6539 -0.0442 -0.8742
  144OSM    H8G15875   2.615   1.047   7.516 -0.8687 -0.9270  3.9939
  144OSM    C9F15876   2.571   1.197   7.649 -0.6650  0.8985  0.0755
  144OSM    H9F15877   2.469   1.188   7.610 -0.1931  1.3270 -1.3306
  144OSM   C10F15878   2.589   1.231   7.778  0.6591  0.1060 -0.3054
  144OSM   H10F15879   2.500   1.257   7.836  0.6384 -0.5985 -0.0119
  144OSM   C11F15880   2.724   1.219   7.845  0.2561  0.0121  0.2402
  144OSM   H11F15881   2.798   1.160   7.788  1.5685  0.9026  0.9738
  144OSM   H11G15882   2.711   1.163   7.940  1.5994  0.4937  0.7258
  144OSM   C12F15883   2.796   1.349   7.881  0.2687 -0.0589 -0.0607
  144OSM   H12F15884   2.734   1.411   7.950  0.2882  0.0633 -0.1527
  144OSM   H12G15885   2.802   1.415   7.792  1.6631  0.8696  0.6803
  144OSM   C13F15886   2.930   1.317   7.945 -0.0224  0.3715 -0.0504
  144OSM   H13F15887   2.983   1.415   7.944  1.4068 -0.3716 -1.7013
  144OSM   H13G15888   2.989   1.248   7.881 -0.2229 -1.4076  1.5750
  144OSM   C14F15889   2.918   1.241   8.079  0.5782  0.0417  0.1435
  144OSM   H14F15890   2.879   1.141   8.051  3.4382 -0.3413 -3.3324
  144OSM   H14G15891   2.847   1.297   8.143  2.5639  4.0254 -0.7725
  144OSM   C15F15892   3.054   1.228   8.154 -0.2708 -0.3158 -0.1973
  144OSM   H15F15893   3.095   1.331   8.163  0.5538 -0.7001  0.6480
  144OSM   H15G15894   3.114   1.168   8.081  0.1283  0.1336 -0.2399
  144OSM   C16F15895   3.032   1.149   8.281 -0.0166  0.6635  0.0405
  144OSM   H16F15896   2.995   1.047   8.259  0.0410  0.7042 -0.2490
  144OSM   H16G15897   2.960   1.196   8.352  0.6052  0.9703  0.4759
  144OSM   C17F15898   3.165   1.138   8.366  0.5399  0.3437 -0.3197
  144OSM   H17F15899   3.237   1.076   8.310  2.0087  1.4252  0.3155
  144OSM   H17G15900   3.140   1.089   8.463  0.5109 -2.2679 -1.5722
  144OSM   C18F15901   3.236   1.268   8.393  0.0453  0.0338 -0.0549
  144OSM   H18F15902   3.184   1.330   8.469 -1.6250  1.2772 -2.0680
  144OSM   H18G15903   3.235   1.331   8.301 -1.4473  1.0397  0.6108
  144OSM   H18H15904   3.341   1.258   8.427  0.1510  1.2673  0.0020
  145SAPE     N15905   0.883   1.556  10.918 -0.7221  0.9835 -0.1064
  145SAPE   HN115906   0.795   1.574  10.969 -0.2453 -1.1528  1.6359
  145SAPE   HN215907   0.891   1.452  10.914 -0.8244  0.9954 -0.8552
  145SAPE   HN315908   0.971   1.589  10.962  0.5879 -0.4008 -1.5294
  145SAPE   C1215909   0.884   1.622  10.780  0.7690 -0.4042 -0.1773
  145SAPE  H12A15910   0.824   1.715  10.793  0.5938 -0.3758 -1.1059
  145SAPE  H12B15911   0.824   1.556  10.714  1.1958 -0.2631 -0.7143
  145SAPE   C1115912   1.024   1.645  10.726  0.1138 -0.7786  0.4381
  145SAPE  H11A15913   1.084   1.699  10.803  2.2689  0.8387 -2.1890
  145SAPE  H11B15914   1.016   1.706  10.633 -0.6007 -0.5681  0.6322
  145SAPE     P15915   1.087   1.457  10.561 -0.2673 -0.1756 -0.2750
  145SAPE   O1315916   1.203   1.363  10.557 -0.3993 -0.1182  0.0639
  145SAPE   O1415917   0.953   1.406  10.528 -0.2794  0.7650 -0.6052
  145SAPE   O1215918   1.089   1.521  10.712 -0.2990  0.6172  0.1676
  145SAPE   O1115919   1.113   1.574  10.454  0.6244 -0.7076 -0.4869
  145SAPE    C115920   1.244   1.627  10.419  0.0996 -0.3599 -0.2140
  145SAPE    HA15921   1.254   1.724  10.471 -2.9108  0.1129 -0.3474
  145SAPE    HB15922   1.325   1.560  10.458  2.1076  0.9834 -1.8735
  145SAPE    C215923   1.249   1.641  10.263 -0.3127 -0.1976  0.5530
  145SAPE    HS15924   1.352   1.678  10.248 -0.2043  0.6306  2.9989
  145SAPE   O2115925   1.159   1.737  10.208 -0.5591  0.3297  0.1692
  145SAPE   C2115926   1.189   1.862  10.240 -0.0138 -0.3687 -0.0684
  145SAPE   O2215927   1.285   1.901  10.298  0.0223  0.3315  0.4534
  145SAPE   C2215928   1.083   1.951  10.172  0.2792 -0.2799 -0.2398
  145SAPE   H2R15929   1.035   1.889  10.093  1.1792 -1.8019  0.3556
  145SAPE   H2S15930   1.017   1.970  10.260  1.2076 -3.2139  1.2420
  145SAPE    C315931   1.227   1.506  10.193  0.4425 -0.6104 -0.9799
  145SAPE    HX15932   1.125   1.476  10.226  0.3707 -0.9290 -1.4696
  145SAPE    HY15933   1.289   1.426  10.239  1.0653  1.5091  2.2137
  145SAPE   O3115934   1.224   1.526  10.052 -0.4819  0.3992  0.7833
  145SAPE   C3115935   1.342   1.533   9.995  0.0275 -0.4107  0.4270
  145SAPE   O3215936   1.451   1.523  10.052  0.0957  0.0321  0.4442
  145SAPE   C3215937   1.311   1.540   9.843  0.5860  0.6683 -0.1382
  145SAPE   H2X15938   1.215   1.589   9.813 -0.1211 -1.2821 -1.2617
  145SAPE   H2Y15939   1.286   1.435   9.818  1.1127  0.0387  1.8273
  145SAPE   C2315940   1.131   2.083  10.104 -0.0359  0.0018 -0.1990
  145SAPE   H3R15941   1.195   2.133  10.180 -0.7328 -0.1198  0.4802
  145SAPE   H3S15942   1.060   2.166  10.083  0.3538  0.5454  0.5528
  145SAPE   C2415943   1.241   2.057   9.991 -0.4161 -0.4506 -0.1759
  145SAPE   H4R15944   1.202   2.016   9.896 -1.6641  0.0028  0.1166
  145SAPE   H4S15945   1.324   2.001  10.038  0.2821 -0.1902 -1.0824
  145SAPE   C2515946   1.295   2.192   9.946  0.2883  0.3240 -0.3638
  145SAPE   H5R15947   1.224   2.264   9.903  1.4760  0.2220 -2.6988
  145SAPE   C2615948   1.421   2.237   9.961 -0.5638  0.2745  0.8614
  145SAPE   H6R15949   1.454   2.332   9.918  1.2066 -0.3715  0.7195
  145SAPE   C2715950   1.534   2.172  10.030  0.1541 -0.3509 -0.1734
  145SAPE   H7R15951   1.628   2.188   9.974  0.3720  1.2259  0.5957
  145SAPE   H7S15952   1.518   2.062  10.041 -0.9385 -0.2630 -0.7722
  145SAPE   C2815953   1.552   2.235  10.163  0.6611  0.1982  0.3510
  145SAPE   H8R15954   1.470   2.230  10.236  2.0379 -1.6472  1.8739
  145SAPE   C2915955   1.670   2.279  10.210 -0.0139 -0.0180  0.6357
  145SAPE   H9R15956   1.672   2.331  10.307 -0.0943  1.5870 -0.1859
  145SAPE  C21015957   1.794   2.317  10.134 -0.4921 -0.9872 -0.0634
  145SAPE  H10R15958   1.826   2.250  10.051 -0.4906 -0.1621 -0.7363
  145SAPE  H10S15959   1.879   2.309  10.205 -0.7387  0.0616  0.3652
  145SAPE  C21115960   1.790   2.464  10.102 -0.0889 -0.0653 -0.3673
  145SAPE  H11R15961   1.761   2.531  10.184 -1.4320  0.2896 -1.0951
  145SAPE  C21215962   1.780   2.519   9.981 -0.6981  0.2186  0.1705
  145SAPE  H12R15963   1.769   2.628   9.974  0.7942  0.4556  1.3297
  145SAPE  C21315964   1.773   2.437   9.854 -0.5376 -0.2407  1.5549
  145SAPE  H13R15965   1.775   2.328   9.876 -1.4860 -0.3452  1.1593
  145SAPE  H13S15966   1.863   2.448   9.790 -0.7326 -0.6754  1.2013
  145SAPE  C21415967   1.662   2.475   9.757  0.3208 -0.6973 -0.3462
  145SAPE  H14R15968   1.612   2.572   9.771  1.6434 -0.2136  1.4520
  145SAPE  C21515969   1.636   2.396   9.648  0.6891  0.3799 -0.3700
  145SAPE  H15R15970   1.550   2.419   9.584 -0.7534 -0.2642  1.2458
  145SAPE  C21615971   1.711   2.276   9.602  0.0735 -0.8126 -0.0895
  145SAPE  H16R15972   1.761   2.231   9.690  0.9095  1.2460  0.5525
  145SAPE  H16S15973   1.773   2.306   9.514 -2.2551 -0.1670 -1.6001
  145SAPE  C21715974   1.619   2.181   9.523  0.3948 -0.4307 -0.4026
  145SAPE  H17R15975   1.672   2.095   9.478 -0.7371 -0.6292 -1.4077
  145SAPE  H17S15976   1.572   2.232   9.436 -1.8471  0.8720  1.4380
  145SAPE  C21815977   1.505   2.129   9.611  0.7416  0.3296  0.1920
  145SAPE  H18R15978   1.437   2.210   9.645  0.0682 -0.1867  0.1075
  145SAPE  H18S15979   1.544   2.078   9.701 -0.2616 -2.9240 -1.0536
  145SAPE  C21915980   1.419   2.024   9.533 -0.7299 -0.2153  0.1428
  145SAPE  H19R15981   1.497   1.947   9.516 -1.8035 -2.4825  4.2244
  145SAPE  H19S15982   1.399   2.071   9.435 -1.2460 -1.2471 -0.2624
  145SAPE  C22015983   1.310   1.964   9.614 -0.0588 -0.4868 -0.0850
  145SAPE  H20R15984   1.343   1.924   9.712 -0.9259  1.4937  1.0799
  145SAPE  H20S15985   1.269   1.883   9.550  1.3898 -1.2256 -0.1223
  145SAPE  H20T15986   1.228   2.038   9.621  1.4832  1.3434 -0.6847
  145SAPE   C3315987   1.429   1.567   9.765 -0.3850 -0.2460 -0.5967
  145SAPE   H3X15988   1.527   1.518   9.784  1.1799  1.4377 -3.5655
  145SAPE   H3Y15989   1.459   1.671   9.791  2.7072 -1.3028  0.4688
  145SAPE   C3415990   1.415   1.562   9.617  0.4786 -0.1833  0.6037
  145SAPE   H4X15991   1.503   1.615   9.574  1.0849 -0.7980  1.0695
  145SAPE   H4Y15992   1.329   1.619   9.575  0.5278 -0.9168 -0.5182
  145SAPE   C3515993   1.423   1.425   9.551  0.0448  0.5123 -0.5024
  145SAPE   H5X15994   1.353   1.351   9.595 -1.0723  1.6399 -0.3225
  145SAPE   H5Y15995   1.526   1.386   9.554 -0.2791 -0.3049  1.2365
  145SAPE   C3615996   1.399   1.436   9.404  0.6919  0.2595  0.3586
  145SAPE   H6X15997   1.459   1.526   9.378  1.8017 -0.3614  0.6613
  145SAPE   H6Y15998   1.290   1.446   9.387  0.0061  0.3407  3.9936
  145SAPE   C3715999   1.459   1.318   9.321  0.0988  0.5315  0.5155
  145SAPE   H7X16000   1.420   1.220   9.354 -0.9555  1.1728  1.2490
  145SAPE   H7Y16001   1.570   1.312   9.326  0.2362  0.2936 -1.7161
  145SAPE   C3816002   1.421   1.334   9.170  0.5062  0.5468 -0.5732
  145SAPE   H8X16003   1.313   1.360   9.171  0.8925  2.4307  1.7514
  145SAPE   H8Y16004   1.431   1.237   9.117  0.0393  0.5382 -0.6545
  145SAPE   C3916005   1.492   1.451   9.090 -0.5825  0.1399  0.2606
  145SAPE   H9X16006   1.600   1.432   9.109 -0.6031  2.1678  2.9304
  145SAPE   H9Y16007   1.472   1.547   9.142  0.8936  0.4771  0.2536
  145SAPE  C31016008   1.465   1.464   8.939  0.7228  0.3195  0.0275
  145SAPE  H10X16009   1.360   1.454   8.905  1.2297 -1.3771 -1.2006
  145SAPE  H10Y16010   1.507   1.375   8.887 -1.4243 -0.7454  0.0150
  145SAPE  C31116011   1.530   1.592   8.873  0.6581  0.3671  0.6123
  145SAPE  H11X16012   1.618   1.631   8.929  1.2868 -0.0707 -0.0391
  145SAPE  H11Y16013   1.463   1.679   8.888  2.1591  1.3485  1.9559
  145SAPE  C31216014   1.547   1.552   8.727  0.0208  0.2899  0.9419
  145SAPE  H12X16015   1.444   1.549   8.685 -0.4773 -0.0947  2.1271
  145SAPE  H12Y16016   1.598   1.456   8.703  1.9372  1.2364  1.0159
  145SAPE  C31316017   1.622   1.657   8.649  0.3450  0.0527  0.2479
  145SAPE  H13X16018   1.729   1.662   8.680  0.1156 -0.5392  1.1850
  145SAPE  H13Y16019   1.577   1.753   8.680  0.7100  1.2683 -2.7391
  145SAPE  C31416020   1.609   1.634   8.498  0.0922 -0.5368  0.2757
  145SAPE  H14X16021   1.512   1.676   8.464 -0.8261 -1.1822  1.9548
  145SAPE  H14Y16022   1.608   1.524   8.478 -0.0144 -0.3864 -0.5723
  145SAPE  C31516023   1.722   1.699   8.424 -0.0333  0.9951 -0.4924
  145SAPE  H15X16024   1.821   1.681   8.472 -1.0944 -2.3948  0.7539
  145SAPE  H15Y16025   1.706   1.809   8.423 -2.7070  0.6676 -1.0483
  145SAPE  C31616026   1.725   1.645   8.282 -0.3612  0.8488  0.6389
  145SAPE  H16X16027   1.629   1.674   8.233 -0.0314  0.8633 -0.0183
  145SAPE  H16Y16028   1.729   1.533   8.283 -0.1325  0.8541  0.4082
  145SAPE  C31716029   1.844   1.697   8.197  0.5245  0.5045  0.1211
  145SAPE  H17X16030   1.937   1.663   8.248  0.1908 -0.2246  0.2589
  145SAPE  H17Y16031   1.834   1.807   8.197 -0.7413  0.4299  1.7995
  145SAPE  C31816032   1.857   1.648   8.052 -0.0000  0.2824  0.9806
  145SAPE  H18X16033   1.881   1.540   8.041  0.3084  0.3287  1.1647
  145SAPE  H18Y16034   1.947   1.704   8.018  0.8588 -2.1389 -1.1102
  145SAPE  H18Z16035   1.769   1.671   7.989  2.6893 -1.5647 -4.0630
  146SAPE     N16036   0.361   2.843  10.979 -0.0558  0.2496 -0.3401
  146SAPE   HN116037   0.378   2.891  11.070 -1.7180 -1.9609  1.2310
  146SAPE   HN216038   0.259   2.851  10.964 -0.2564 -0.8694  0.3890
  146SAPE   HN316039   0.403   2.750  10.997  0.7145  0.5047 -0.7523
  146SAPE   C1216040   0.438   2.921  10.875 -0.6805  0.0205 -0.3158
  146SAPE  H12A16041   0.541   2.881  10.875  0.0605  1.7447  2.0041
  146SAPE  H12B16042   0.453   3.026  10.906 -0.0359 -0.9059  2.8735
  146SAPE   C1116043   0.376   2.903  10.743 -0.2623 -0.5264  0.6597
  146SAPE  H11A16044   0.371   2.798  10.705  2.3481 -0.9560  1.3331
  146SAPE  H11B16045   0.438   2.959  10.671  1.0541 -2.8675 -0.1428
  146SAPE     P16046   0.129   2.894  10.661  0.0484 -0.3083 -0.5097
  146SAPE   O1316047   0.153   2.749  10.658 -0.2377 -0.7245 -0.2221
  146SAPE   O1416048   0.005   2.931  10.734  0.4680 -0.1209 -0.1303
  146SAPE   O1216049   0.248   2.971  10.738 -0.3031 -0.3681 -0.4896
  146SAPE   O1116050   0.131   2.961  10.517 -0.7789  0.6189  0.3168
  146SAPE    C116051   0.136   3.106  10.511  0.5352  0.1541 -0.6626
  146SAPE    HA16052   0.035   3.143  10.540  0.6223  0.0743 -0.2563
  146SAPE    HB16053   0.210   3.154  10.579 -0.5513  1.7329 -0.5149
  146SAPE    C216054   0.167   3.135  10.362  0.6702 -0.3661 -0.2450
  146SAPE    HS16055   0.142   3.241  10.338  1.5374  0.0368  0.5413
  146SAPE   O2116056   0.097   3.053  10.269  0.1528 -0.3426  0.1052
  146SAPE   C2116057  -0.032   3.082  10.262 -0.0208 -0.3921 -1.0036
  146SAPE   O2216058  -0.093   3.176  10.312  0.0642 -0.1291  0.1834
  146SAPE   C2216059  -0.103   2.982  10.170  0.6362  0.0318 -0.8406
  146SAPE   H2R16060  -0.029   2.905  10.139  1.8032  0.7625  0.0593
  146SAPE   H2S16061  -0.185   2.937  10.230  1.5938 -2.6838 -1.4133
  146SAPE    C316062   0.322   3.117  10.342  0.9467  0.2522 -0.7699
  146SAPE    HX16063   0.347   3.027  10.402 -1.0208 -1.1736 -1.9622
  146SAPE    HY16064   0.366   3.212  10.380  1.4688 -0.5465  0.7215
  146SAPE   O3116065   0.338   3.098  10.204 -0.4563 -0.1075 -0.3665
  146SAPE   C3116066   0.446   3.031  10.170 -0.0196 -0.3600 -0.0748
  146SAPE   O3216067   0.526   2.979  10.248  0.2947 -0.2471  0.5296
  146SAPE   C3216068   0.448   3.027  10.015 -0.0165  0.3547  0.0987
  146SAPE   H2X16069   0.410   3.126   9.981 -2.4606 -0.4808  0.1713
  146SAPE   H2Y16070   0.369   2.955   9.984 -1.3183  0.2681  3.2835
  146SAPE   C2316071  -0.174   3.058  10.057  0.3700 -0.4151  1.2103
  146SAPE   H3R16072  -0.216   3.158  10.077 -1.2476 -0.4604 -1.5311
  146SAPE   H3S16073  -0.275   3.014  10.043 -0.9567  2.9072 -0.5834
  146SAPE   C2416074  -0.104   3.056   9.919 -0.3912 -0.0655 -0.4170
  146SAPE   H4R16075  -0.161   3.096   9.833  0.6917 -1.1080 -1.6586
  146SAPE   H4S16076  -0.088   2.950   9.888  1.5411 -0.5806  1.9982
  146SAPE   C2516077   0.031   3.119   9.924 -0.8151 -0.2005 -0.1146
  146SAPE   H5R16078   0.066   3.170  10.015 -1.8804  0.7515 -0.2162
  146SAPE   C2616079   0.123   3.113   9.824  1.1218  0.2522  0.0991
  146SAPE   H6R16080   0.226   3.130   9.857  0.8986  0.7996  0.5305
  146SAPE   C2716081   0.113   3.034   9.695  0.2901  0.5766  0.0015
  146SAPE   H7R16082   0.188   3.076   9.624  3.2719 -2.1499  1.2662
  146SAPE   H7S16083   0.024   3.056   9.632  1.1497  0.3928 -1.3316
  146SAPE   C2816084   0.136   2.887   9.710  0.6228 -0.7632 -0.0581
  146SAPE   H8R16085   0.079   2.843   9.793 -1.4251  0.8111 -0.5568
  146SAPE   C2916086   0.218   2.806   9.636  0.4584 -0.4563  0.5267
  146SAPE   H9R16087   0.220   2.701   9.670 -0.4837 -0.4319  0.6932
  146SAPE  C21016088   0.305   2.848   9.516  0.2874  0.5916 -0.6174
  146SAPE  H10R16089   0.318   2.959   9.511  0.8408  0.5630  0.1338
  146SAPE  H10S16090   0.258   2.818   9.420  1.2727  0.5201 -1.0915
  146SAPE  C21116091   0.436   2.779   9.525 -0.0176 -0.0844  0.3797
  146SAPE  H11R16092   0.481   2.777   9.626  1.9575  0.3879 -0.4542
  146SAPE  C21216093   0.510   2.747   9.420 -0.7260  0.2465  0.1428
  146SAPE  H12R16094   0.609   2.714   9.454 -1.5165 -0.2241  2.1357
  146SAPE  C21316095   0.471   2.776   9.278  0.0927  0.4402  0.7752
  146SAPE  H13R16096   0.455   2.884   9.255  0.8879  0.2918 -0.5784
  146SAPE  H13S16097   0.382   2.713   9.255  0.9784 -0.4937 -0.1859
  146SAPE  C21416098   0.572   2.720   9.178 -0.4402  0.4010  0.1288
  146SAPE  H14R16099   0.649   2.652   9.217 -1.0529  0.1334  0.9175
  146SAPE  C21516100   0.576   2.747   9.051 -0.6385 -0.8961 -0.4419
  146SAPE  H15R16101   0.653   2.702   8.986  0.1322  1.9182 -1.6052
  146SAPE  C21616102   0.485   2.839   8.968 -0.0271  0.3587  0.1183
  146SAPE  H16R16103   0.418   2.900   9.031 -0.6780  0.8835 -1.0581
  146SAPE  H16S16104   0.415   2.781   8.904 -1.4613  3.0034 -0.8168
  146SAPE  C21716105   0.574   2.924   8.881 -0.3405  0.1644  0.3770
  146SAPE  H17R16106   0.661   2.968   8.936  0.6435 -1.2705  0.0382
  146SAPE  H17S16107   0.525   3.015   8.841  1.4243 -0.0152 -2.4562
  146SAPE  C21816108   0.639   2.854   8.757  0.1604  0.1346 -0.0459
  146SAPE  H18R16109   0.709   2.773   8.788 -1.6481 -1.6556 -0.4280
  146SAPE  H18S16110   0.707   2.930   8.713 -0.2441  0.4991 -0.0403
  146SAPE  C21916111   0.532   2.803   8.663 -0.3103  0.5243  0.3741
  146SAPE  H19R16112   0.449   2.875   8.648  0.2461  1.3760  1.3651
  146SAPE  H19S16113   0.485   2.711   8.703  2.9535 -1.7880 -0.6345
  146SAPE  C22016114   0.594   2.775   8.524  0.1410 -0.7133  0.4700
  146SAPE  H20R16115   0.626   2.874   8.484 -0.9106  0.1787  1.7447
  146SAPE  H20S16116   0.513   2.728   8.464 -0.6467 -2.5670  2.8575
  146SAPE  H20T16117   0.685   2.712   8.529 -0.6111 -1.8003  0.9840
  146SAPE   C3316118   0.588   2.993   9.958  0.6041  0.1277 -0.0775
  146SAPE   H3X16119   0.590   2.882   9.949 -0.2360 -0.1647  2.4350
  146SAPE   H3Y16120   0.668   3.019  10.030  0.8563  0.0477 -0.3279
  146SAPE   C3416121   0.610   3.055   9.821  0.0770  0.1700  0.5327
  146SAPE   H4X16122   0.539   3.012   9.747  0.8885  0.0030 -0.1634
  146SAPE   H4Y16123   0.713   3.023   9.793  0.0397 -1.8645  2.3932
  146SAPE   C3516124   0.617   3.210   9.816 -0.4136 -0.0798 -0.2815
  146SAPE   H5X16125   0.679   3.245   9.902 -1.9107 -0.2110  0.8867
  146SAPE   H5Y16126   0.519   3.260   9.835  0.2879  0.6602  1.7046
  146SAPE   C3616127   0.672   3.262   9.681  0.5050 -0.4412  0.1825
  146SAPE   H6X16128   0.777   3.230   9.663  0.8977  0.8912 -0.0252
  146SAPE   H6Y16129   0.667   3.373   9.692 -2.2381 -0.5547  0.5857
  146SAPE   C3716130   0.599   3.223   9.553  0.0621 -0.0443 -0.1667
  146SAPE   H7X16131   0.489   3.238   9.562  0.2375  0.2630  2.0274
  146SAPE   H7Y16132   0.626   3.116   9.537 -2.7073 -0.9324  0.4127
  146SAPE   C3816133   0.651   3.308   9.440 -0.1292  0.9200  0.0350
  146SAPE   H8X16134   0.758   3.278   9.429 -0.0632 -0.4692  3.3026
  146SAPE   H8Y16135   0.659   3.413   9.475  2.7201  1.4835 -1.8926
  146SAPE   C3916136   0.572   3.283   9.315  0.2622 -0.2775  0.3451
  146SAPE   H9X16137   0.465   3.303   9.336 -0.1834 -1.3505 -0.7930
  146SAPE   H9Y16138   0.561   3.180   9.276 -3.7207  0.2937 -0.4046
  146SAPE  C31016139   0.589   3.374   9.188  0.5901 -0.3500 -0.0784
  146SAPE  H10X16140   0.697   3.380   9.162  0.2847  0.2369 -1.2470
  146SAPE  H10Y16141   0.557   3.475   9.219 -1.2920 -0.4557 -1.5180
  146SAPE  C31116142   0.526   3.316   9.059 -0.4548  0.3906 -0.3661
  146SAPE  H11X16143   0.418   3.319   9.082 -0.8282 -1.3304 -1.6871
  146SAPE  H11Y16144   0.564   3.214   9.034  1.7526  0.9619  0.3942
  146SAPE  C31216145   0.538   3.418   8.943 -0.0312 -0.4090  0.0582
  146SAPE  H12X16146   0.500   3.521   8.963 -3.0764 -1.1407 -1.2620
  146SAPE  H12Y16147   0.473   3.379   8.861 -0.4429  2.1968 -0.9603
  146SAPE  C31316148   0.677   3.420   8.880 -0.1960  0.8664 -0.1115
  146SAPE  H13X16149   0.705   3.313   8.870  1.0375  1.1777 -0.0797
  146SAPE  H13Y16150   0.750   3.473   8.944  0.3213 -0.0188  0.0567
  146SAPE  C31416151   0.679   3.467   8.735 -0.2733 -0.0313 -0.6058
  146SAPE  H14X16152   0.651   3.573   8.721 -0.6965 -0.0500  0.0605
  146SAPE  H14Y16153   0.589   3.418   8.692 -1.7929  2.8270 -0.8801
  146SAPE  C31516154   0.802   3.417   8.656  0.0832 -0.3409  0.3157
  146SAPE  H15X16155   0.754   3.405   8.557 -1.4683 -1.0504  1.1178
  146SAPE  H15Y16156   0.835   3.320   8.699  0.7876 -0.4624 -0.4824
  146SAPE  C31616157   0.917   3.514   8.657  0.6006  0.1340 -0.4093
  146SAPE  H16X16158   0.956   3.525   8.760 -3.2800 -0.1487  1.2873
  146SAPE  H16Y16159   0.868   3.612   8.641 -1.6885 -0.6650  1.1661
  146SAPE  C31716160   1.028   3.494   8.555  0.2369  0.0145  0.1848
  146SAPE  H17X16161   0.982   3.468   8.457  1.5827 -0.3505 -0.3742
  146SAPE  H17Y16162   1.087   3.402   8.573 -0.5454 -0.5294  0.0571
  146SAPE  C31816163   1.112   3.619   8.541 -0.2134 -0.3203 -0.2611
  146SAPE  H18X16164   1.188   3.609   8.461 -0.7157  0.9489 -0.9366
  146SAPE  H18Y16165   1.166   3.629   8.637 -2.0303 -0.8702  0.8695
  146SAPE  H18Z16166   1.053   3.709   8.515 -1.6146 -0.8365  1.0311
  147SAPE     N16167   1.724   5.823  11.071 -0.2737 -0.0419 -0.1205
  147SAPE   HN116168   1.623   5.837  11.094 -0.9449 -1.1314 -2.1409
  147SAPE   HN216169   1.753   5.735  11.118  0.5437  1.1728  1.7674
  147SAPE   HN316170   1.774   5.904  11.111  1.0412  1.3956 -4.1691
  147SAPE   C1216171   1.743   5.838  10.921  0.8190 -0.8787 -0.1381
  147SAPE  H12A16172   1.703   5.746  10.873 -0.1240  0.5634 -2.2938
  147SAPE  H12B16173   1.851   5.846  10.895  0.1932  1.2964 -2.5251
  147SAPE   C1116174   1.671   5.961  10.864 -0.4932 -0.3553  0.0453
  147SAPE  H11A16175   1.671   5.958  10.753  0.7705  1.0015 -0.0272
  147SAPE  H11B16176   1.731   6.054  10.876 -0.2731 -0.4633 -0.2090
  147SAPE     P16177   1.440   6.059  10.842  0.3914  0.2400  0.1589
  147SAPE   O1316178   1.317   6.076  10.923 -0.4923 -0.4836 -0.5088
  147SAPE   O1416179   1.519   6.175  10.799  0.2372  0.2049  0.5218
  147SAPE   O1216180   1.535   5.964  10.915  0.8802 -0.2501  0.0407
  147SAPE   O1116181   1.407   5.977  10.716 -0.1525 -0.0315  1.1831
  147SAPE    C116182   1.328   5.858  10.724 -0.0368 -0.4739  0.1311
  147SAPE    HA16183   1.283   5.841  10.824  0.6281  0.3903  0.5857
  147SAPE    HB16184   1.239   5.866  10.657  0.0153  0.5887  0.1807
  147SAPE    C216185   1.416   5.739  10.681  0.1839  0.1455  0.5485
  147SAPE    HS16186   1.471   5.702  10.770 -1.7323  0.8174  2.0653
  147SAPE   O2116187   1.500   5.785  10.572  0.2083 -0.2111 -0.0072
  147SAPE   C2116188   1.624   5.734  10.570 -0.0109 -0.4464  0.0413
  147SAPE   O2216189   1.680   5.666  10.649  0.0787  0.1980 -0.0215
  147SAPE   C2216190   1.685   5.770  10.432  0.3005 -0.3827  1.2986
  147SAPE   H2R16191   1.634   5.702  10.360  4.0418  0.9703 -3.0800
  147SAPE   H2S16192   1.656   5.873  10.404  1.5217 -0.2181  0.5696
  147SAPE    C316193   1.327   5.617  10.637 -0.3553  0.0461  0.3850
  147SAPE    HX16194   1.273   5.660  10.550 -1.6541 -2.4558 -0.1538
  147SAPE    HY16195   1.249   5.585  10.709  0.4035 -3.0120 -0.0104
  147SAPE   O3116196   1.406   5.501  10.595  0.4579  0.1176 -0.6307
  147SAPE   C3116197   1.468   5.441  10.695  0.0310 -0.0134  1.0765
  147SAPE   O3216198   1.456   5.464  10.809  0.3078 -0.7208 -0.1402
  147SAPE   C3216199   1.559   5.328  10.635  0.4888 -0.7479 -0.3486
  147SAPE   H2X16200   1.663   5.351  10.666  0.1155  0.0401  0.3509
  147SAPE   H2Y16201   1.554   5.348  10.525 -2.2943 -0.3059 -0.2081
  147SAPE   C2316202   1.844   5.773  10.425  0.0656 -0.1001 -0.4368
  147SAPE   H3R16203   1.882   5.668  10.423 -0.7706 -0.4175 -0.1568
  147SAPE   H3S16204   1.876   5.802  10.527  0.5532 -2.2353  0.0860
  147SAPE   C2416205   1.915   5.848  10.313 -0.5245 -0.1876  0.6660
  147SAPE   H4R16206   2.026   5.849  10.321 -0.6020  0.1716  1.7599
  147SAPE   H4S16207   1.885   5.952  10.338  0.8878  0.3890  0.0990
  147SAPE   C2516208   1.855   5.813  10.173 -1.0192  0.1650  0.2966
  147SAPE   H5R16209   1.755   5.766  10.165 -0.3139 -1.0296 -2.8150
  147SAPE   C2616210   1.904   5.829  10.051 -0.4581  0.2874 -0.4874
  147SAPE   H6R16211   1.851   5.789   9.964 -3.3304 -3.8068  2.7169
  147SAPE   C2716212   2.042   5.900  10.038 -0.3238  0.1291  0.3080
  147SAPE   H7R16213   2.083   5.892  10.141 -2.9737 -1.6938  1.3426
  147SAPE   H7S16214   2.022   6.008  10.026  0.4557  0.1820 -0.6820
  147SAPE   C2816215   2.138   5.842   9.939 -0.1889  0.1721 -0.3164
  147SAPE   H8R16216   2.223   5.789   9.986  1.2268  0.3322 -2.5692
  147SAPE   C2916217   2.127   5.834   9.806  0.3721 -0.2048  0.1807
  147SAPE   H9R16218   2.205   5.787   9.744 -1.7120  0.6301 -3.3290
  147SAPE  C21016219   2.026   5.892   9.716 -0.2386 -0.3422 -0.5280
  147SAPE  H10R16220   2.050   5.988   9.665  0.1039 -0.6549 -0.9642
  147SAPE  H10S16221   1.936   5.918   9.775 -0.9134  2.1510 -2.4545
  147SAPE  C21116222   1.979   5.787   9.618 -0.2858  0.3934 -0.3742
  147SAPE  H11R16223   1.889   5.735   9.651  0.4255 -0.2028  0.6698
  147SAPE  C21216224   2.033   5.757   9.500  0.2352  0.0016 -0.1594
  147SAPE  H12R16225   1.995   5.669   9.446 -1.4632  0.6641 -0.1099
  147SAPE  C21316226   2.153   5.821   9.430 -0.2361 -0.4764 -0.0598
  147SAPE  H13R16227   2.240   5.824   9.498 -0.3370 -5.1171  0.5744
  147SAPE  H13S16228   2.125   5.924   9.397 -0.2522 -0.4176  0.1362
  147SAPE  C21416229   2.198   5.747   9.306 -0.2341  0.5167  0.7680
  147SAPE  H14R16230   2.279   5.675   9.325  0.7307  1.2673 -0.3145
  147SAPE  C21516231   2.140   5.767   9.178  0.3357  0.1330  0.5155
  147SAPE  H15R16232   2.191   5.706   9.102  0.6468 -0.2925  1.0515
  147SAPE  C21616233   2.020   5.846   9.140 -0.2414  0.0655 -0.0812
  147SAPE  H16R16234   2.040   5.896   9.043  0.1954 -1.4003 -0.7727
  147SAPE  H16S16235   2.019   5.926   9.218  0.8460 -0.2021  0.2154
  147SAPE  C21716236   1.896   5.753   9.138  0.3983 -0.0827 -0.0907
  147SAPE  H17R16237   1.807   5.815   9.114 -0.2907 -0.9253  0.2220
  147SAPE  H17S16238   1.875   5.703   9.236 -0.7470 -1.8831 -1.2010
  147SAPE  C21816239   1.904   5.642   9.035  0.0089 -0.7365 -0.8447
  147SAPE  H18R16240   1.816   5.574   9.043  0.6089 -1.6674 -1.7974
  147SAPE  H18S16241   1.989   5.577   9.067 -1.3087 -2.2581 -0.2666
  147SAPE  C21916242   1.908   5.688   8.889 -0.3882 -0.3950  0.1779
  147SAPE  H19R16243   1.998   5.751   8.872 -2.7197  2.8328 -1.0133
  147SAPE  H19S16244   1.819   5.751   8.870 -0.9805  0.0512  3.7214
  147SAPE  C22016245   1.909   5.564   8.790  0.8625  0.3242 -0.8094
  147SAPE  H20R16246   1.899   5.591   8.683 -1.9159 -0.9737 -0.9647
  147SAPE  H20S16247   1.820   5.501   8.808  1.5226 -0.6420 -0.8475
  147SAPE  H20T16248   1.998   5.498   8.800  0.4657 -0.2485 -1.0503
  147SAPE   C3316249   1.513   5.186  10.666 -0.9772 -0.3435  0.1128
  147SAPE   H3X16250   1.405   5.177  10.644 -1.0795  2.3323 -0.8191
  147SAPE   H3Y16251   1.522   5.173  10.776 -1.4352 -0.5037  0.1324
  147SAPE   C3416252   1.595   5.077  10.588  0.2091  0.5970 -0.3710
  147SAPE   H4X16253   1.599   4.979  10.641  0.8377  0.0424 -1.4092
  147SAPE   H4Y16254   1.701   5.106  10.576  0.6826 -0.6679  0.5752
  147SAPE   C3516255   1.544   5.056  10.441  0.2551 -0.1580 -0.3907
  147SAPE   H5X16256   1.553   5.158  10.397 -0.5146  0.7956  1.5213
  147SAPE   H5Y16257   1.435   5.035  10.440  0.3075 -1.2042 -5.0781
  147SAPE   C3616258   1.606   4.941  10.373 -0.0388  0.8968  0.1832
  147SAPE   H6X16259   1.596   4.845  10.428 -4.3811  1.8024  1.3592
  147SAPE   H6Y16260   1.715   4.961  10.372 -0.1643  2.5107  3.6810
  147SAPE   C3716261   1.564   4.912  10.226 -0.0131  0.1530  0.4883
  147SAPE   H7X16262   1.454   4.916  10.211  0.2937  1.5905 -2.1555
  147SAPE   H7Y16263   1.589   4.807  10.200 -1.4657  0.2970 -1.8671
  147SAPE   C3816264   1.638   4.992  10.115  0.1815 -0.2102 -0.6342
  147SAPE   H8X16265   1.748   4.974  10.120  0.2322  0.2864  0.1280
  147SAPE   H8Y16266   1.629   5.099  10.145  0.5960  0.0182 -1.3103
  147SAPE   C3916267   1.565   4.962   9.981  0.2294 -1.0784 -0.0570
  147SAPE   H9X16268   1.594   5.038   9.905  0.4131 -1.1587 -0.0688
  147SAPE   H9Y16269   1.456   4.973   9.995  0.3884  0.1035  0.3994
  147SAPE  C31016270   1.600   4.825   9.920 -0.1857  0.4524 -0.2689
  147SAPE  H10X16271   1.564   4.742   9.984  1.4027 -0.4778 -0.5394
  147SAPE  H10Y16272   1.710   4.812   9.924 -0.3173 -0.9570 -0.7461
  147SAPE  C31116273   1.547   4.826   9.778  0.5164 -0.1554  0.3284
  147SAPE  H11X16274   1.610   4.883   9.706 -1.2074 -1.4957 -2.4367
  147SAPE  H11Y16275   1.448   4.873   9.763  0.5444 -0.6685 -1.8605
  147SAPE  C31216276   1.523   4.687   9.715 -0.7480 -0.1803  0.0770
  147SAPE  H12X16277   1.452   4.631   9.779  0.2182 -0.4823  0.9208
  147SAPE  H12Y16278   1.620   4.634   9.711  0.4732  1.8566  1.0646
  147SAPE  C31316279   1.479   4.690   9.563  0.1576 -0.9897 -0.0952
  147SAPE  H13X16280   1.380   4.739   9.556  1.2178  1.6160  1.5711
  147SAPE  H13Y16281   1.463   4.585   9.528 -1.9958 -0.5213 -0.6266
  147SAPE  C31416282   1.584   4.749   9.466  0.0545  0.2886  0.1753
  147SAPE  H14X16283   1.676   4.689   9.481 -1.1745 -1.6902  0.1347
  147SAPE  H14Y16284   1.610   4.854   9.489  3.2481  0.4896 -3.3270
  147SAPE  C31516285   1.527   4.757   9.325  0.2442 -0.3932 -0.3504
  147SAPE  H15X16286   1.605   4.806   9.263  0.4102  0.1875  0.3091
  147SAPE  H15Y16287   1.435   4.820   9.322  1.5664  1.6226 -3.6384
  147SAPE  C31616288   1.475   4.637   9.262  0.4050  0.0911  0.7087
  147SAPE  H16X16289   1.380   4.619   9.317  0.7551 -1.7107  0.7861
  147SAPE  H16Y16290   1.544   4.552   9.281  2.6070  1.7677  0.6531
  147SAPE  C31716291   1.435   4.650   9.115 -0.2365  0.2863  0.0133
  147SAPE  H17X16292   1.463   4.555   9.065 -0.4190 -0.3372  1.0683
  147SAPE  H17Y16293   1.504   4.718   9.061 -0.5084  0.0271 -0.6666
  147SAPE  C31816294   1.286   4.679   9.091  0.3252 -0.1267 -0.0363
  147SAPE  H18X16295   1.251   4.766   9.150 -3.2169 -2.6611  1.9841
  147SAPE  H18Y16296   1.228   4.586   9.110  0.2969  0.3033  2.1646
  147SAPE  H18Z16297   1.273   4.704   8.983 -0.4238  3.7318  0.7986
  148SAPE     N16298   3.194   1.598  10.766 -0.3361 -0.0588  0.6197
  148SAPE   HN116299   3.132   1.528  10.723 -1.6551  1.2864  0.2462
  148SAPE   HN216300   3.154   1.614  10.860  0.3971 -2.2669  1.3537
  148SAPE   HN316301   3.186   1.676  10.697 -0.5072 -2.0602 -1.7866
  148SAPE   C1216302   3.337   1.558  10.765 -0.8262 -0.0420 -0.9790
  148SAPE  H12A16303   3.356   1.474  10.835  0.7414  0.0617 -1.2608
  148SAPE  H12B16304   3.396   1.646  10.799  1.0969 -1.8177  0.4998
  148SAPE   C1116305   3.380   1.531  10.620 -0.0712  0.4022 -0.2392
  148SAPE  H11A16306   3.478   1.479  10.619 -0.0376  0.4786 -1.2923
  148SAPE  H11B16307   3.392   1.627  10.565  1.0386 -1.7802 -4.1849
  148SAPE     P16308   3.199   1.494  10.434 -0.1111  0.3827  0.3907
  148SAPE   O1316309   3.080   1.562  10.495 -0.2347 -0.1253  0.0808
  148SAPE   O1416310   3.284   1.572  10.332 -0.0727  0.2934  0.0098
  148SAPE   O1216311   3.301   1.443  10.544  0.0288 -0.5660  1.2846
  148SAPE   O1116312   3.146   1.365  10.356  0.5118 -0.2965 -0.1641
  148SAPE    C116313   3.015   1.314  10.386 -0.1669 -0.3166  0.5440
  148SAPE    HA16314   2.996   1.282  10.491 -1.4640  1.3436  0.8449
  148SAPE    HB16315   2.933   1.382  10.357 -0.1036 -0.3045  0.3925
  148SAPE    C216316   2.990   1.186  10.299 -0.2150  0.3133 -0.5854
  148SAPE    HS16317   3.053   1.107  10.346 -1.0884 -0.8295 -1.2707
  148SAPE   O2116318   3.031   1.211  10.169 -0.6595  0.1523 -0.6860
  148SAPE   C2116319   3.087   1.110  10.105 -0.9441 -0.0093 -0.7505
  148SAPE   O2216320   3.115   1.001  10.151  0.1047 -0.0696 -0.5326
  148SAPE   C2216321   3.125   1.156   9.960 -0.0993 -0.0909 -0.4068
  148SAPE   H2R16322   3.030   1.137   9.904 -0.9942 -0.6095  1.2031
  148SAPE   H2S16323   3.139   1.265   9.973 -1.4749  0.0009  0.5541
  148SAPE    C316324   2.842   1.131  10.304  0.7924 -0.3938 -0.9271
  148SAPE    HX16325   2.776   1.213  10.270 -0.5780 -0.9803  0.2243
  148SAPE    HY16326   2.816   1.114  10.411  2.0643  2.9346  0.0614
  148SAPE   O3116327   2.825   1.013  10.228 -0.2807 -0.1560  0.0891
  148SAPE   C3116328   2.832   0.897  10.298 -1.1270  0.1701  0.4355
  148SAPE   O3216329   2.878   0.874  10.404  0.2706 -0.5596  0.3108
  148SAPE   C3216330   2.769   0.785  10.216 -0.5065 -0.3916 -0.1357
  148SAPE   H2X16331   2.701   0.722  10.276  0.4712 -0.4425  0.9525
  148SAPE   H2Y16332   2.863   0.731  10.195 -0.0702 -0.2615  1.3514
  148SAPE   C2316333   3.246   1.089   9.895  0.7259  0.5106 -0.3348
  148SAPE   H3R16334   3.255   0.990   9.944 -0.4301  0.3922 -0.3459
  148SAPE   H3S16335   3.341   1.146   9.912  1.3654 -0.3747 -0.8430
  148SAPE   C2416336   3.229   1.080   9.741  0.5154 -0.3810  0.5622
  148SAPE   H4R16337   3.150   1.004   9.726  0.0680  0.4972 -2.0978
  148SAPE   H4S16338   3.320   1.029   9.702 -0.6882 -1.7515 -0.5347
  148SAPE   C2516339   3.206   1.213   9.672 -0.3461  0.1059 -0.5431
  148SAPE   H5R16340   3.214   1.304   9.733  3.2498 -0.2037 -0.3337
  148SAPE   C2616341   3.195   1.237   9.539  0.0730  0.1704 -0.1360
  148SAPE   H6R16342   3.156   1.335   9.509 -2.0295 -0.4828  0.2578
  148SAPE   C2716343   3.194   1.131   9.427  0.0604 -0.6784 -0.4497
  148SAPE   H7R16344   3.109   1.061   9.435  1.4996 -2.5278 -0.7961
  148SAPE   H7S16345   3.283   1.065   9.431  0.5625 -0.1249 -1.7491
  148SAPE   C2816346   3.188   1.198   9.294  0.0689  0.2654  0.2761
  148SAPE   H8R16347   3.103   1.268   9.297 -0.0707  0.0695  2.3317
  148SAPE   C2916348   3.259   1.186   9.183 -1.1201  0.3155  0.0600
  148SAPE   H9R16349   3.226   1.246   9.097 -0.6262 -2.4455 -2.2024
  148SAPE  C21016350   3.374   1.087   9.169  0.4878  0.5941 -0.3810
  148SAPE  H10R16351   3.341   0.981   9.166  1.4043  0.3148 -0.9585
  148SAPE  H10S16352   3.434   1.100   9.262 -0.2303  1.8556 -0.0712
  148SAPE  C21116353   3.470   1.130   9.064 -0.6593 -1.2164  0.2248
  148SAPE  H11R16354   3.515   1.230   9.064  1.0777 -1.6962 -4.7749
  148SAPE  C21216355   3.516   1.046   8.968 -0.7334  0.6978 -0.5479
  148SAPE  H12R16356   3.601   1.079   8.906 -0.0328  1.6400  0.8603
  148SAPE  C21316357   3.484   0.900   8.949 -0.2687  0.0332  0.5145
  148SAPE  H13R16358   3.460   0.888   8.841  0.0947  0.5368  0.3701
  148SAPE  H13S16359   3.390   0.872   9.000 -2.2358  0.7648 -2.4539
  148SAPE  C21416360   3.611   0.821   8.994 -0.1965  0.1271  0.7658
  148SAPE  H14R16361   3.617   0.828   9.104  1.0115  1.6616  0.6409
  148SAPE  C21516362   3.698   0.757   8.917 -0.2666 -0.8107  0.1404
  148SAPE  H15R16363   3.787   0.720   8.970  0.8323  3.1783  1.4242
  148SAPE  C21616364   3.700   0.749   8.765  0.6159 -0.4957 -0.1146
  148SAPE  H16R16365   3.757   0.837   8.727 -3.1070  1.8170 -0.8834
  148SAPE  H16S16366   3.598   0.773   8.727  0.6260  2.9661  1.6223
  148SAPE  C21716367   3.760   0.626   8.703 -0.2837 -0.0651 -0.5452
  148SAPE  H17R16368   3.866   0.600   8.726 -0.7153 -1.0959  0.3774
  148SAPE  H17S16369   3.756   0.643   8.593 -0.8996  1.6840 -0.2942
  148SAPE  C21816370   3.673   0.505   8.744  0.0079 -0.1622 -0.6825
  148SAPE  H18R16371   3.567   0.537   8.758  0.6471  2.0588 -0.6994
  148SAPE  H18S16372   3.719   0.476   8.840  3.3483  2.8619 -1.1729
  148SAPE  C21916373   3.680   0.398   8.636  0.2777 -0.0013  0.1423
  148SAPE  H19R16374   3.787   0.372   8.616  0.5484  0.2320  1.1999
  148SAPE  H19S16375   3.647   0.432   8.536  0.8657 -2.5839 -1.0111
  148SAPE  C22016376   3.606   0.269   8.681  0.0389 -0.3285  0.3799
  148SAPE  H20R16377   3.498   0.295   8.687 -0.2282 -0.6630 -1.9881
  148SAPE  H20S16378   3.636   0.231   8.781 -2.5110  1.8735  2.1170
  148SAPE  H20T16379   3.614   0.197   8.596  2.4421  0.2799  0.0324
  148SAPE   C3316380   2.710   0.836  10.073 -0.6905  0.3558  0.3609
  148SAPE   H3X16381   2.646   0.927  10.078  0.0540  1.0486 -1.5959
  148SAPE   H3Y16382   2.645   0.761  10.023 -0.5576  0.7858 -0.4704
  148SAPE   C3416383   2.807   0.869   9.959 -0.8599  0.4244  0.3423
  148SAPE   H4X16384   2.869   0.780   9.935  1.8224  2.5106 -1.0637
  148SAPE   H4Y16385   2.878   0.953   9.974 -0.6313  0.3669 -0.3719
  148SAPE   C3516386   2.734   0.904   9.826 -0.2198  0.4585  0.0507
  148SAPE   H5X16387   2.701   1.009   9.821  0.0732  0.4938 -2.0511
  148SAPE   H5Y16388   2.648   0.835   9.814  0.8722 -0.6544 -1.8918
  148SAPE   C3616389   2.818   0.875   9.701 -0.3244 -0.5970  0.2337
  148SAPE   H6X16390   2.848   0.769   9.690  0.5442 -0.6052  2.2216
  148SAPE   H6Y16391   2.914   0.930   9.711 -0.2164 -0.8608  0.7212
  148SAPE   C3716392   2.740   0.903   9.568  0.6135  0.4979  0.7203
  148SAPE   H7X16393   2.696   1.005   9.579  0.5562  0.4280  1.1354
  148SAPE   H7Y16394   2.662   0.827   9.547 -0.8483  1.7748  1.3891
  148SAPE   C3816395   2.837   0.900   9.453  0.5888 -0.2196 -0.0826
  148SAPE   H8X16396   2.898   0.808   9.460  0.4088 -0.2953  0.5400
  148SAPE   H8Y16397   2.903   0.988   9.471  0.0889 -0.3010  2.7209
  148SAPE   C3916398   2.764   0.896   9.310  0.8473  0.1902  0.2005
  148SAPE   H9X16399   2.724   0.997   9.285  1.4094  1.2646  3.1259
  148SAPE   H9Y16400   2.675   0.830   9.320  0.3223  0.4725 -2.1437
  148SAPE  C31016401   2.855   0.837   9.202  0.3993 -0.6415  0.5885
  148SAPE  H10X16402   2.901   0.747   9.248 -1.3381 -1.3665  0.9994
  148SAPE  H10Y16403   2.927   0.916   9.171 -1.0075  0.4337 -0.0995
  148SAPE  C31116404   2.773   0.802   9.073 -0.0633  0.3389  0.4522
  148SAPE  H11X16405   2.713   0.881   9.024 -1.3366 -1.4472 -1.0252
  148SAPE  H11Y16406   2.683   0.742   9.101 -0.6828  1.3012  0.5654
  148SAPE  C31216407   2.858   0.716   8.969 -0.8154  0.0318 -0.3522
  148SAPE  H12X16408   2.917   0.644   9.030 -0.7815  0.0014 -0.4208
  148SAPE  H12Y16409   2.927   0.785   8.916 -2.2179  0.1956 -2.0606
  148SAPE  C31316410   2.771   0.636   8.876 -0.2630  0.4201 -0.1427
  148SAPE  H13X16411   2.710   0.569   8.940 -1.4611  0.0250 -1.6451
  148SAPE  H13Y16412   2.834   0.570   8.813  0.1947  1.5542 -0.9087
  148SAPE  C31416413   2.667   0.720   8.802 -0.2329  0.4442  0.1176
  148SAPE  H14X16414   2.730   0.798   8.756  0.1976 -0.7367 -1.3815
  148SAPE  H14Y16415   2.598   0.782   8.864  0.6820  0.7133  0.8889
  148SAPE  C31516416   2.586   0.643   8.694  0.2046 -0.4398  0.7116
  148SAPE  H15X16417   2.545   0.548   8.736 -0.2939 -1.3289 -1.6302
  148SAPE  H15Y16418   2.652   0.610   8.611  3.5232  0.5615  2.7683
  148SAPE  C31616419   2.469   0.733   8.644 -0.4409 -0.4981  0.0380
  148SAPE  H16X16420   2.517   0.832   8.628 -2.4327  0.9670  2.3266
  148SAPE  H16Y16421   2.393   0.748   8.724 -0.2955 -1.2218  0.3173
  148SAPE  C31716422   2.407   0.685   8.515  0.0522  0.4020 -0.5726
  148SAPE  H17X16423   2.481   0.680   8.432  2.1200 -0.2042  1.2285
  148SAPE  H17Y16424   2.322   0.754   8.494 -0.7643 -0.2933  0.3424
  148SAPE  C31816425   2.338   0.547   8.527  0.1701 -0.5954 -0.4945
  148SAPE  H18X16426   2.338   0.511   8.421  0.6522 -0.8727 -0.4015
  148SAPE  H18Y16427   2.237   0.562   8.571  0.5661  1.1076 -0.0869
  148SAPE  H18Z16428   2.404   0.477   8.581  0.9689 -0.6084 -1.4547
  149SAPE     N16429   5.886   2.279  11.050  0.1837 -0.0064  0.3339
  149SAPE   HN116430   5.988   2.270  11.069 -0.2678 -1.8293  2.2356
  149SAPE   HN216431   5.832   2.220  11.117 -3.5841  0.1207 -2.2493
  149SAPE   HN316432   5.870   2.252  10.950 -0.4489  2.7447 -0.3852
  149SAPE   C1216433   5.847   2.417  11.093 -0.5214 -0.0159  0.3618
  149SAPE  H12A16434   5.895   2.425  11.193  1.7172 -3.5359 -0.2475
  149SAPE  H12B16435   5.738   2.414  11.114 -0.9009 -2.9860 -1.4280
  149SAPE   C1116436   5.906   2.514  10.993 -0.1594  0.4178  0.2644
  149SAPE  H11A16437   5.862   2.485  10.896 -0.9167 -1.2935  1.0713
  149SAPE  H11B16438   6.015   2.494  10.989 -0.3098 -0.3393 -0.0989
  149SAPE     P16439   5.764   2.745  11.012 -0.1887 -0.1987 -0.3469
  149SAPE   O1316440   5.669   2.697  11.116 -0.0462 -0.0018 -0.2133
  149SAPE   O1416441   5.810   2.885  11.015 -0.3473 -0.0557  0.0296
  149SAPE   O1216442   5.887   2.648  11.025 -0.5487 -0.0902 -0.2150
  149SAPE   O1116443   5.698   2.723  10.872  0.3990 -0.3170 -0.0839
  149SAPE    C116444   5.767   2.704  10.751  0.5616 -0.2248  0.1508
  149SAPE    HA16445   5.872   2.671  10.765 -0.5709 -3.6267  1.5463
  149SAPE    HB16446   5.707   2.631  10.693  0.5464  1.7688 -2.5305
  149SAPE    C216447   5.753   2.836  10.672 -0.3054  0.7214  0.0837
  149SAPE    HS16448   5.791   2.917  10.739  1.5446  1.0401 -1.2698
  149SAPE   O2116449   5.616   2.860  10.636 -0.0236  0.2530 -0.7375
  149SAPE   C2116450   5.573   2.982  10.592 -0.8162 -0.4619  0.2525
  149SAPE   O2216451   5.652   3.079  10.591 -0.1618  0.6282  0.0263
  149SAPE   C2216452   5.427   2.988  10.563 -0.1610  0.3841 -0.2972
  149SAPE   H2R16453   5.371   3.019  10.654  0.2777  0.1270  0.0653
  149SAPE   H2S16454   5.413   3.070  10.490 -0.4918  1.1318  0.5825
  149SAPE    C316455   5.833   2.834  10.538  0.5959 -0.9089 -0.0951
  149SAPE    HX16456   5.942   2.847  10.558  0.5605  0.4451 -0.6802
  149SAPE    HY16457   5.801   2.917  10.472  0.1234 -2.3676 -1.7715
  149SAPE   O3116458   5.807   2.708  10.472 -0.4730 -0.7343 -0.4322
  149SAPE   C3116459   5.776   2.712  10.341 -0.1419 -0.1724  0.3388
  149SAPE   O3216460   5.792   2.811  10.269  0.7794 -0.0871 -0.4590
  149SAPE   C3216461   5.712   2.584  10.294 -0.2700 -0.2599 -0.2341
  149SAPE   H2X16462   5.606   2.598  10.324  0.4722  2.1324  1.5120
  149SAPE   H2Y16463   5.738   2.489  10.345 -1.9787 -0.2866  0.6579
  149SAPE   C2316464   5.369   2.857  10.489  0.1032 -0.0594 -0.3709
  149SAPE   H3R16465   5.347   2.788  10.573 -0.5389 -0.3406 -0.7556
  149SAPE   H3S16466   5.452   2.822  10.425  1.8329  1.1284  1.1202
  149SAPE   C2416467   5.249   2.869  10.394  0.7668  0.0108 -0.2955
  149SAPE   H4R16468   5.273   2.952  10.324  0.0216 -1.5103 -2.4582
  149SAPE   H4S16469   5.163   2.887  10.462  0.0539 -1.6532 -0.7061
  149SAPE   C2516470   5.214   2.734  10.334  0.4112 -0.8731 -0.0228
  149SAPE   H5R16471   5.176   2.651  10.396 -1.2147 -0.3790 -0.3275
  149SAPE   C2616472   5.205   2.713  10.199  0.6380  0.2571  0.4623
  149SAPE   H6R16473   5.179   2.611  10.166 -0.7737  0.8762 -0.4391
  149SAPE   C2716474   5.237   2.812  10.092 -0.5827 -0.5281  0.1777
  149SAPE   H7R16475   5.346   2.827  10.110 -0.3557 -1.8545  0.0219
  149SAPE   H7S16476   5.190   2.909  10.117 -0.3407 -1.0282  2.8810
  149SAPE   C2816477   5.210   2.751   9.955  0.7231 -0.1890 -0.0408
  149SAPE   H8R16478   5.203   2.642   9.937  3.1430 -0.2247 -1.1971
  149SAPE   C2916479   5.203   2.824   9.844 -0.3924  0.0826 -0.1753
  149SAPE   H9R16480   5.168   2.768   9.755  0.9563 -2.9784  1.0724
  149SAPE  C21016481   5.223   2.971   9.820 -0.2154 -0.6212  0.2602
  149SAPE  H10R16482   5.229   3.016   9.921 -0.2636  0.5549 -0.2497
  149SAPE  H10S16483   5.136   3.009   9.763  0.4604 -0.3335 -0.6083
  149SAPE  C21116484   5.345   2.989   9.733 -0.1963 -0.3175  0.6356
  149SAPE  H11R16485   5.439   3.025   9.778  1.0535 -3.1038  0.4841
  149SAPE  C21216486   5.358   2.968   9.602  0.8907 -0.3298 -0.0537
  149SAPE  H12R16487   5.460   2.962   9.560  1.1899 -2.3446  0.8197
  149SAPE  C21316488   5.251   2.939   9.504  0.7528  0.4477  0.5434
  149SAPE  H13R16489   5.179   2.867   9.550  1.8649  0.0464  1.6955
  149SAPE  H13S16490   5.292   2.889   9.414  0.4336 -0.5703  0.9434
  149SAPE  C21416491   5.183   3.061   9.451  0.0143  1.0364  0.0944
  149SAPE  H14R16492   5.105   3.103   9.516 -2.5001 -0.6222 -1.6674
  149SAPE  C21516493   5.204   3.117   9.334 -0.1300 -0.2775 -0.7103
  149SAPE  H15R16494   5.152   3.210   9.307  3.5744  2.3488  0.3604
  149SAPE  C21616495   5.310   3.089   9.237 -0.2461 -0.3661 -0.4391
  149SAPE  H16R16496   5.372   2.999   9.254 -1.0183 -0.8811 -0.2968
  149SAPE  H16S16497   5.369   3.182   9.252  0.7757 -1.1199  0.4536
  149SAPE  C21716498   5.264   3.093   9.085 -0.6567 -0.0432 -0.1067
  149SAPE  H17R16499   5.163   3.137   9.069 -0.9284 -0.5840  0.0811
  149SAPE  H17S16500   5.255   2.988   9.049  0.4542  0.1192 -0.9149
  149SAPE  C21816501   5.374   3.144   8.983  0.2544  0.6489 -0.1905
  149SAPE  H18R16502   5.355   3.094   8.886 -3.9001  0.8951  0.3195
  149SAPE  H18S16503   5.479   3.119   9.012  0.1802 -1.4539 -1.4897
  149SAPE  C21916504   5.354   3.299   8.976 -0.5170 -0.1451 -0.5964
  149SAPE  H19R16505   5.454   3.335   8.942  0.1346  0.0351  1.4123
  149SAPE  H19S16506   5.341   3.339   9.078  1.1184  0.3309 -0.5475
  149SAPE  C22016507   5.250   3.355   8.878  0.1666 -0.3272  0.0441
  149SAPE  H20R16508   5.145   3.327   8.901  0.2442  0.2266  1.1436
  149SAPE  H20S16509   5.276   3.307   8.781 -0.6560  0.0708 -0.3867
  149SAPE  H20T16510   5.253   3.466   8.872 -1.9279 -0.2581 -0.7110
  149SAPE   C3316511   5.724   2.571  10.137  0.2838 -0.4809 -0.8021
  149SAPE   H3X16512   5.821   2.526  10.107  0.2603  0.7995 -3.0040
  149SAPE   H3Y16513   5.702   2.671  10.094  0.6678  0.6802  1.5491
  149SAPE   C3416514   5.615   2.474  10.090 -0.3050 -0.2961 -0.2678
  149SAPE   H4X16515   5.520   2.512  10.134 -0.2075 -0.6569  0.2585
  149SAPE   H4Y16516   5.633   2.368  10.118 -1.6576 -0.3576  0.4552
  149SAPE   C3516517   5.589   2.501   9.934 -0.8224 -0.1048 -0.6126
  149SAPE   H5X16518   5.668   2.441   9.883 -2.4948 -2.3554 -0.7248
  149SAPE   H5Y16519   5.609   2.608   9.913  0.0467 -0.2993 -0.8330
  149SAPE   C3616520   5.455   2.455   9.884 -0.4446 -0.4489  0.9139
  149SAPE   H6X16521   5.374   2.527   9.904 -0.3220 -0.1897  0.4895
  149SAPE   H6Y16522   5.433   2.352   9.919 -0.4062 -0.3877  1.1212
  149SAPE   C3716523   5.448   2.437   9.728 -0.2238 -0.0632 -0.6260
  149SAPE   H7X16524   5.340   2.419   9.712 -1.0828  2.1024  1.9006
  149SAPE   H7Y16525   5.510   2.347   9.707  1.4268  0.6558  0.8532
  149SAPE   C3816526   5.514   2.544   9.643  0.0711  0.4011  0.3862
  149SAPE   H8X16527   5.623   2.539   9.661  0.0492 -0.0253  0.4090
  149SAPE   H8Y16528   5.486   2.651   9.656 -2.3848 -0.0587 -0.4680
  149SAPE   C3916529   5.473   2.513   9.498  0.4429 -0.4030  0.3481
  149SAPE   H9X16530   5.363   2.518   9.486  0.2342  0.3282  2.2000
  149SAPE   H9Y16531   5.492   2.406   9.477 -2.0590 -0.7205 -0.6657
  149SAPE  C31016532   5.551   2.606   9.403  0.1157  0.3922 -0.0169
  149SAPE  H10X16533   5.643   2.554   9.366 -0.2127 -0.0504 -0.2248
  149SAPE  H10Y16534   5.577   2.691   9.469  0.2139  0.3649 -0.0194
  149SAPE  C31116535   5.459   2.647   9.289 -0.5326  0.3325 -0.2289
  149SAPE  H11X16536   5.370   2.698   9.332 -1.2169 -0.1914 -0.9783
  149SAPE  H11Y16537   5.413   2.554   9.248 -0.7461  0.7537 -0.9702
  149SAPE  C31216538   5.518   2.739   9.180 -0.3262  0.1227  0.1160
  149SAPE  H12X16539   5.550   2.834   9.227  0.1144 -0.2654  0.6261
  149SAPE  H12Y16540   5.439   2.769   9.109  0.4342  0.3017 -0.6690
  149SAPE  C31316541   5.637   2.685   9.098 -0.0708 -0.1318 -0.0576
  149SAPE  H13X16542   5.638   2.728   8.996  0.7711  0.5872  0.2385
  149SAPE  H13Y16543   5.623   2.575   9.083  0.0029 -0.1409 -0.0590
  149SAPE  C31416544   5.775   2.716   9.156  0.3292  0.2350 -0.1803
  149SAPE  H14X16545   5.761   2.710   9.266 -2.3946  1.0540 -0.4038
  149SAPE  H14Y16546   5.790   2.824   9.140 -0.4120  0.3984  0.1415
  149SAPE  C31516547   5.880   2.622   9.113 -0.1340 -1.0442  0.0729
  149SAPE  H15X16548   5.899   2.633   9.004  0.0821 -0.4816  0.1662
  149SAPE  H15Y16549   5.848   2.516   9.125 -1.7987 -0.5678  0.0417
  149SAPE  C31616550   6.018   2.630   9.195 -0.7180  0.3627  0.5017
  149SAPE  H16X16551   6.084   2.548   9.160  0.9554  2.3744 -1.3500
  149SAPE  H16Y16552   6.007   2.614   9.304  2.6284 -0.2992  0.8273
  149SAPE  C31716553   6.088   2.765   9.180  0.0517  0.1352  0.4981
  149SAPE  H17X16554   6.020   2.852   9.185  0.5659  0.5229  0.9031
  149SAPE  H17Y16555   6.132   2.779   9.079 -2.2957 -0.8458 -0.7271
  149SAPE  C31816556   6.199   2.785   9.291 -0.2503  0.2425  0.4187
  149SAPE  H18X16557   6.270   2.857   9.244  0.1389  0.6813  1.6618
  149SAPE  H18Y16558   6.244   2.685   9.302 -1.7010 -0.4608  0.2151
  149SAPE  H18Z16559   6.149   2.828   9.380 -0.8358  1.3389 -0.4126
  150SAPE     N16560   0.165   2.491  10.719 -0.2072 -0.5936  0.2607
  150SAPE   HN116561   0.264   2.472  10.744  0.6092 -0.7269 -2.6912
  150SAPE   HN216562   0.127   2.423  10.650  0.5147  1.1387 -1.9968
  150SAPE   HN316563   0.171   2.590  10.687  2.6004 -0.6851  0.2743
  150SAPE   C1216564   0.080   2.505  10.843  0.0527 -0.0959 -0.0874
  150SAPE  H12A16565  -0.005   2.572  10.820  0.2887  0.8006  1.4821
  150SAPE  H12B16566   0.149   2.555  10.914  0.0266  0.4733 -0.4537
  150SAPE   C1116567   0.028   2.366  10.898  0.6592 -0.1665 -0.4026
  150SAPE  H11A16568  -0.048   2.328  10.825  0.2890 -0.9631  0.3747
  150SAPE  H11B16569  -0.029   2.390  10.990 -0.1411 -3.9687  0.2832
  150SAPE     P16570   0.187   2.148  10.853 -0.2220  0.1701 -0.0066
  150SAPE   O1316571   0.303   2.096  10.931  0.0087 -0.1957 -0.1258
  150SAPE   O1416572   0.082   2.049  10.818 -0.4161 -0.0737 -0.1011
  150SAPE   O1216573   0.126   2.275  10.933  0.7905 -0.2076  0.5011
  150SAPE   O1116574   0.242   2.213  10.719 -0.1775 -0.3073 -0.3628
  150SAPE    C116575   0.362   2.175  10.657 -0.4654 -0.0443 -0.5702
  150SAPE    HA16576   0.451   2.198  10.718 -0.7743  1.3287 -0.6238
  150SAPE    HB16577   0.359   2.066  10.635 -0.8581  0.0915 -1.2414
  150SAPE    C216578   0.374   2.247  10.512  0.2597  0.1642 -0.5665
  150SAPE    HS16579   0.367   2.357  10.530  0.1802 -0.1590  1.5891
  150SAPE   O2116580   0.268   2.200  10.424  0.1053  0.3859  0.2497
  150SAPE   C2116581   0.156   2.268  10.421 -0.0559 -1.1689 -0.2964
  150SAPE   O2216582   0.118   2.352  10.503 -0.0711  0.7927 -0.3548
  150SAPE   C2216583   0.071   2.213  10.298 -0.1082 -0.1749 -0.5820
  150SAPE   H2R16584   0.065   2.297  10.226  2.9185 -0.2196 -0.9945
  150SAPE   H2S16585   0.110   2.125  10.243 -0.4436  0.2999 -1.5864
  150SAPE    C316586   0.506   2.230  10.449 -0.1756 -0.1862  0.5152
  150SAPE    HX16587   0.539   2.126  10.472 -1.3455 -1.9425 -4.5916
  150SAPE    HY16588   0.568   2.307  10.501 -0.6500 -1.0692  2.5113
  150SAPE   O3116589   0.493   2.251  10.311 -0.5487 -0.1040 -0.2660
  150SAPE   C3116590   0.610   2.244  10.255  0.4249 -0.3805  0.4010
  150SAPE   O3216591   0.714   2.219  10.313  0.4233 -0.0008 -0.6312
  150SAPE   C3216592   0.595   2.266  10.102 -0.0076 -0.5042  0.6163
  150SAPE   H2X16593   0.586   2.377  10.092 -1.1901 -0.4887  1.5578
  150SAPE   H2Y16594   0.500   2.220  10.067  0.4125  0.1662 -1.5684
  150SAPE   C2316595  -0.063   2.166  10.351  0.8747 -0.4261 -0.5788
  150SAPE   H3R16596  -0.132   2.242  10.393  2.1688  0.0574  0.7701
  150SAPE   H3S16597  -0.049   2.088  10.429  0.7455 -1.2010 -1.3228
  150SAPE   C2416598  -0.144   2.095  10.235  0.0178  0.6577 -0.0154
  150SAPE   H4R16599  -0.229   2.044  10.285  2.5079 -0.6990  3.2261
  150SAPE   H4S16600  -0.082   2.009  10.202 -0.5638 -0.0133  0.6193
  150SAPE   C2516601  -0.197   2.195  10.131 -0.7244  0.2153  0.1938
  150SAPE   H5R16602  -0.277   2.265  10.159  0.2925  0.1957  3.5084
  150SAPE   C2616603  -0.154   2.191  10.006 -0.1598 -0.2163 -0.4108
  150SAPE   H6R16604  -0.194   2.267   9.937  0.1047 -2.0930 -2.7605
  150SAPE   C2716605  -0.040   2.102   9.954  0.3284  0.1339 -0.1426
  150SAPE   H7R16606  -0.093   2.039   9.880  0.9048 -0.8968  0.2999
  150SAPE   H7S16607   0.002   2.025  10.021  0.0553 -1.3161 -1.5906
  150SAPE   C2816608   0.065   2.184   9.882  0.6349  0.2044  0.3023
  150SAPE   H8R16609   0.128   2.244   9.948  0.5177 -1.6890  2.2477
  150SAPE   C2916610   0.097   2.169   9.752  0.2806 -0.9111  0.4181
  150SAPE   H9R16611   0.165   2.244   9.711 -0.0323 -1.0019 -0.2766
  150SAPE  C21016612   0.040   2.080   9.646 -0.0265  0.7846  0.7326
  150SAPE  H10R16613  -0.037   2.136   9.589  0.8584 -1.2740 -2.7945
  150SAPE  H10S16614  -0.011   1.988   9.682 -1.2611  1.9440  2.1090
  150SAPE  C21116615   0.158   2.039   9.563  0.2161  0.2431  0.3245
  150SAPE  H11R16616   0.252   2.020   9.618  0.6182 -0.6370 -0.6380
  150SAPE  C21216617   0.154   2.020   9.428  0.4930 -0.0696  0.0814
  150SAPE  H12R16618   0.245   1.988   9.374  0.2861  0.0227 -0.3214
  150SAPE  C21316619   0.038   2.037   9.332  0.6494 -0.4208  0.1322
  150SAPE  H13R16620  -0.045   2.097   9.375  2.9353  2.2051  1.2191
  150SAPE  H13S16621  -0.003   1.935   9.314 -0.9664  0.5957 -2.6505
  150SAPE  C21416622   0.078   2.080   9.193  0.3789 -0.4106  0.0221
  150SAPE  H14R16623   0.060   2.187   9.173  0.6133 -0.5736 -1.1132
  150SAPE  C21516624   0.101   1.996   9.089 -0.1664 -0.0482 -0.1640
  150SAPE  H15R16625   0.140   2.038   8.995 -4.2601  2.2992 -1.0721
  150SAPE  C21616626   0.100   1.845   9.093  0.2048  0.2787 -0.1747
  150SAPE  H16R16627   0.018   1.800   9.153 -1.2783  1.1633 -1.4916
  150SAPE  H16S16628   0.195   1.820   9.146 -0.5927 -0.2612  1.0344
  150SAPE  C21716629   0.097   1.782   8.960  0.1959 -0.2523  0.5648
  150SAPE  H17R16630   0.140   1.681   8.974  1.5219  0.4907  2.3984
  150SAPE  H17S16631   0.154   1.843   8.887  0.0513  0.6147  1.1575
  150SAPE  C21816632  -0.052   1.763   8.921 -0.1455  0.2916  0.0706
  150SAPE  H18R16633  -0.091   1.867   8.915  2.1734  1.3138  1.3355
  150SAPE  H18S16634  -0.105   1.702   8.998 -2.5542 -1.0496 -2.4565
  150SAPE  C21916635  -0.056   1.694   8.787  0.2681 -0.2680  0.5215
  150SAPE  H19R16636   0.000   1.599   8.774 -0.2127 -0.3770 -1.0389
  150SAPE  H19S16637  -0.012   1.756   8.707 -0.5121 -1.1123 -0.6079
  150SAPE  C22016638  -0.201   1.671   8.741  0.5736  0.0574 -0.2343
  150SAPE  H20R16639  -0.205   1.647   8.633 -1.4547  0.4047 -0.2847
  150SAPE  H20S16640  -0.278   1.746   8.768 -0.7758 -1.1867 -0.5098
  150SAPE  H20T16641  -0.239   1.578   8.789  1.2665  0.1400  0.4825
  150SAPE   C3316642   0.722   2.215  10.025 -0.0468  0.0760  0.0027
  150SAPE   H3X16643   0.807   2.220  10.096  0.1619 -0.1022 -0.2310
  150SAPE   H3Y16644   0.737   2.270   9.930  2.0243 -1.2671 -0.5254
  150SAPE   C3416645   0.706   2.063   9.989 -0.2894 -0.1343 -0.0667
  150SAPE   H4X16646   0.606   2.065   9.940 -0.8835  0.8759  1.1588
  150SAPE   H4Y16647   0.701   1.989  10.071 -1.8887 -1.0623 -0.9423
  150SAPE   C3516648   0.812   2.007   9.895 -0.7455  0.1713  0.5812
  150SAPE   H5X16649   0.900   2.001   9.963  0.5535 -0.3254 -1.0672
  150SAPE   H5Y16650   0.845   2.078   9.817  1.4828  2.4364  3.3581
  150SAPE   C3616651   0.772   1.873   9.829  0.3492  0.2304 -0.8858
  150SAPE   H6X16652   0.699   1.899   9.749 -2.0914  0.0253  1.1508
  150SAPE   H6Y16653   0.706   1.813   9.895 -0.2854  2.5222  0.7113
  150SAPE   C3716654   0.892   1.799   9.772  0.2603 -0.2282 -0.1359
  150SAPE   H7X16655   0.861   1.701   9.731  0.9588  0.4649 -2.4777
  150SAPE   H7Y16656   0.964   1.773   9.852 -0.2478 -0.6240  0.2055
  150SAPE   C3816657   0.974   1.859   9.652  0.9188  0.1598  0.5996
  150SAPE   H8X16658   1.076   1.814   9.655  0.9975  0.1780 -1.1934
  150SAPE   H8Y16659   0.985   1.969   9.658 -1.2217  0.3882  1.0844
  150SAPE   C3916660   0.914   1.828   9.516  0.3608 -0.5538  0.0764
  150SAPE   H9X16661   0.812   1.870   9.519 -0.3621 -2.2681  0.6375
  150SAPE   H9Y16662   0.905   1.719   9.495 -0.5554 -0.2936 -0.9259
  150SAPE  C31016663   0.982   1.903   9.399 -0.8289  0.2448  0.6027
  150SAPE  H10X16664   1.039   1.991   9.434  1.0807 -1.7035  2.7035
  150SAPE  H10Y16665   0.904   1.948   9.333 -1.4498 -3.2594 -1.3175
  150SAPE  C31116666   1.079   1.804   9.325 -0.2120  0.1822 -0.0876
  150SAPE  H11X16667   1.004   1.740   9.273 -0.2769  0.9456 -0.9645
  150SAPE  H11Y16668   1.138   1.746   9.399  0.8318  1.1921 -0.0972
  150SAPE  C31216669   1.154   1.879   9.210  0.0215  0.3571 -0.1638
  150SAPE  H12X16670   1.235   1.822   9.160  0.1478 -0.5053  0.9802
  150SAPE  H12Y16671   1.214   1.961   9.255  1.1410 -1.2015  1.3221
  150SAPE  C31316672   1.081   1.916   9.076  0.1452  0.1446 -0.5736
  150SAPE  H13X16673   1.146   1.989   9.022  2.2848 -0.6991  0.7559
  150SAPE  H13Y16674   0.988   1.965   9.114  0.7350  0.5404  0.4093
  150SAPE  C31416675   1.051   1.797   8.977  0.4190  0.0408  0.1425
  150SAPE  H14X16676   0.967   1.749   9.034  1.4523 -1.4646  0.4642
  150SAPE  H14Y16677   1.141   1.733   8.985  1.6245  1.7594  0.8170
  150SAPE  C31516678   1.012   1.836   8.843 -0.1646  0.3366  0.1351
  150SAPE  H15X16679   1.021   1.755   8.766 -1.6094 -0.7501  1.0371
  150SAPE  H15Y16680   1.075   1.921   8.810 -0.5065  1.1496  1.5216
  150SAPE  C31616681   0.872   1.902   8.835 -0.4957  0.0541 -0.2625
  150SAPE  H16X16682   0.865   1.991   8.902 -1.0104  0.4437 -0.8258
  150SAPE  H16Y16683   0.796   1.825   8.861  1.2887 -1.8875 -0.4910
  150SAPE  C31716684   0.839   1.937   8.687 -0.5637  0.4240  0.9841
  150SAPE  H17X16685   0.938   1.961   8.642  0.2773  0.4148  2.7075
  150SAPE  H17Y16686   0.769   2.021   8.669 -1.9598 -1.0275 -0.7429
  150SAPE  C31816687   0.791   1.806   8.610  0.0830  0.4844  0.2122
  150SAPE  H18X16688   0.822   1.807   8.503 -2.2494  1.2603 -0.5334
  150SAPE  H18Y16689   0.681   1.809   8.597  0.2906 -0.3189 -2.1613
  150SAPE  H18Z16690   0.814   1.709   8.657  0.1061  1.2777  1.9079
  151SAPE     N16691   4.484   5.498  10.368 -1.1469  0.0426 -0.4370
  151SAPE   HN116692   4.578   5.473  10.405 -0.9726  1.7753  0.4029
  151SAPE   HN216693   4.429   5.543  10.444 -0.5812  2.0317 -1.1475
  151SAPE   HN316694   4.432   5.412  10.339 -1.8753 -0.1000  1.1677
  151SAPE   C1216695   4.501   5.606  10.266  0.5134 -0.0372 -0.0226
  151SAPE  H12A16696   4.524   5.550  10.173 -2.1004 -3.0236  0.9172
  151SAPE  H12B16697   4.597   5.657  10.287  0.3921  0.3614 -0.4299
  151SAPE   C1116698   4.377   5.693  10.264 -0.5070  0.1826  0.0941
  151SAPE  H11A16699   4.288   5.627  10.258  0.1009 -1.1915  3.6351
  151SAPE  H11B16700   4.386   5.765  10.180 -0.7783  0.9846  0.7401
  151SAPE     P16701   4.372   5.918  10.386  0.1484  0.0579 -0.1892
  151SAPE   O1316702   4.293   5.969  10.497 -0.3967  0.1195  0.2058
  151SAPE   O1416703   4.514   5.956  10.383  0.6169 -0.2499  0.4552
  151SAPE   O1216704   4.357   5.759  10.386 -0.3518 -0.4310  0.6042
  151SAPE   O1116705   4.307   5.967  10.250 -0.4225  0.1779 -0.3447
  151SAPE    C116706   4.284   6.105  10.226  0.1817 -0.2680 -0.2128
  151SAPE    HA16707   4.221   6.112  10.135 -1.2906 -3.1882  0.4663
  151SAPE    HB16708   4.232   6.163  10.304 -0.3842  0.8782 -1.4035
  151SAPE    C216709   4.421   6.181  10.182  0.0403  0.7695 -0.5872
  151SAPE    HS16710   4.482   6.188  10.274  0.2287 -1.2884 -0.5204
  151SAPE   O2116711   4.376   6.298  10.127 -0.0444 -0.0900  0.0636
  151SAPE   C2116712   4.346   6.396  10.200  0.0118  0.2176  0.3519
  151SAPE   O2216713   4.363   6.414  10.318  0.0377  0.0169  0.5685
  151SAPE   C2216714   4.278   6.502  10.112  0.1437 -0.1577 -0.0945
  151SAPE   H2R16715   4.333   6.501  10.015  2.3549  2.6100  0.9914
  151SAPE   H2S16716   4.174   6.469  10.090 -0.3382 -0.7072  2.6873
  151SAPE    C316717   4.511   6.106  10.074  0.1657  0.2174 -0.2067
  151SAPE    HX16718   4.447   6.065   9.993 -1.4548 -0.4986  1.3860
  151SAPE    HY16719   4.554   6.015  10.122 -0.2381 -0.4617 -1.0958
  151SAPE   O3116720   4.626   6.183  10.018 -0.6059  0.2521 -0.0765
  151SAPE   C3116721   4.700   6.120   9.936 -0.0805 -0.9899  0.6374
  151SAPE   O3216722   4.696   5.999   9.911 -0.2501  0.6483 -0.2820
  151SAPE   C3216723   4.803   6.216   9.869  0.3538 -0.3602  0.2074
  151SAPE   H2X16724   4.837   6.287   9.947 -0.1911 -0.3219  0.4169
  151SAPE   H2Y16725   4.765   6.293   9.798  1.9875  0.4012  0.1139
  151SAPE   C2316726   4.270   6.643  10.163 -0.4656  0.2039  0.0764
  151SAPE   H3R16727   4.355   6.673  10.228  1.1799  1.2663 -2.4120
  151SAPE   H3S16728   4.182   6.644  10.230 -0.5473 -0.9672  0.0182
  151SAPE   C2416729   4.276   6.751  10.059 -0.1273 -0.5814  0.3905
  151SAPE   H4R16730   4.362   6.737   9.991 -2.0740 -0.2740 -2.3001
  151SAPE   H4S16731   4.295   6.839  10.123  1.8399  1.7522 -3.0692
  151SAPE   C2516732   4.144   6.766   9.989  0.5032  0.1177  0.0264
  151SAPE   H5R16733   4.059   6.797  10.051  1.2052 -2.0025  2.2230
  151SAPE   C2616734   4.124   6.738   9.863  0.3953  0.4013  0.4360
  151SAPE   H6R16735   4.021   6.735   9.828  0.4158  1.3041  0.2734
  151SAPE   C2716736   4.233   6.705   9.763  0.3152  0.2976  0.5008
  151SAPE   H7R16737   4.334   6.692   9.806  0.4905 -3.0705 -0.6176
  151SAPE   H7S16738   4.247   6.790   9.693 -0.3571 -0.8127 -1.0358
  151SAPE   C2816739   4.194   6.586   9.674  0.2197  0.3751  0.4259
  151SAPE   H8R16740   4.141   6.503   9.723 -2.2095  0.5727 -1.6900
  151SAPE   C2916741   4.206   6.581   9.537 -0.6976 -0.0912 -0.1173
  151SAPE   H9R16742   4.165   6.499   9.476  0.6663 -0.2931 -0.8102
  151SAPE  C21016743   4.294   6.667   9.448 -0.1445 -0.4502  0.1034
  151SAPE  H10R16744   4.369   6.729   9.502 -0.9814 -0.0618  0.8508
  151SAPE  H10S16745   4.221   6.736   9.400 -1.7835 -2.1265  0.0746
  151SAPE  C21116746   4.361   6.570   9.352 -0.5125 -1.0469  0.3784
  151SAPE  H11R16747   4.438   6.514   9.408  1.2647  1.9740  1.1485
  151SAPE  C21216748   4.327   6.544   9.225 -0.3606 -0.2646 -0.1912
  151SAPE  H12R16749   4.381   6.473   9.161 -0.6190 -2.2228  1.6436
  151SAPE  C21316750   4.225   6.626   9.151 -0.0948 -0.6703  0.6990
  151SAPE  H13R16751   4.150   6.664   9.224  0.2752 -0.7153  1.1127
  151SAPE  H13S16752   4.148   6.565   9.100 -1.5393  1.4508  0.2209
  151SAPE  C21416753   4.285   6.728   9.060 -1.1418  0.2360 -0.0169
  151SAPE  H14R16754   4.336   6.803   9.122  0.4694 -1.5483  0.9403
  151SAPE  C21516755   4.299   6.727   8.929 -0.0540 -0.7493  0.1632
  151SAPE  H15R16756   4.344   6.820   8.891  0.3597 -1.0927 -0.2016
  151SAPE  C21616757   4.250   6.631   8.826  1.0519 -0.0897 -0.6854
  151SAPE  H16R16758   4.195   6.690   8.750 -1.1287 -1.9869 -0.6658
  151SAPE  H16S16759   4.167   6.579   8.879  1.0054  1.7407  1.2004
  151SAPE  C21716760   4.364   6.541   8.762 -0.1309 -0.9741  0.9361
  151SAPE  H17R16761   4.426   6.499   8.844 -0.4034  1.0834  2.2566
  151SAPE  H17S16762   4.430   6.606   8.700 -3.8038  1.2033 -1.0274
  151SAPE  C21816763   4.312   6.425   8.675 -0.1217 -0.1656  1.1648
  151SAPE  H18R16764   4.392   6.358   8.636  0.2468  0.0759  1.4904
  151SAPE  H18S16765   4.253   6.470   8.592 -1.2182 -0.5165  1.7409
  151SAPE  C21916766   4.219   6.329   8.758 -0.0949  0.0461  0.2635
  151SAPE  H19R16767   4.126   6.386   8.778  0.3587  0.9696 -0.2017
  151SAPE  H19S16768   4.261   6.297   8.855  0.2243 -0.4782 -0.0423
  151SAPE  C22016769   4.178   6.196   8.679  0.4886  0.2029 -0.6112
  151SAPE  H20R16770   4.267   6.137   8.649  0.6225  0.5929 -0.9977
  151SAPE  H20S16771   4.116   6.227   8.591  0.0688  0.8975 -0.0792
  151SAPE  H20T16772   4.131   6.127   8.752  1.6563  0.0816  0.0389
  151SAPE   C3316773   4.932   6.152   9.816  0.0397 -0.0966  0.0673
  151SAPE   H3X16774   4.960   6.073   9.889  0.4085  0.5550  0.6390
  151SAPE   H3Y16775   5.008   6.233   9.821  0.2101 -0.2396 -0.1551
  151SAPE   C3416776   4.922   6.083   9.671 -0.3609 -0.0919 -0.1811
  151SAPE   H4X16777   4.824   6.036   9.648  0.8940 -1.4437 -3.3126
  151SAPE   H4Y16778   5.003   6.008   9.679  0.7308  1.0945  0.1435
  151SAPE   C3516779   4.955   6.184   9.559 -0.6720 -0.1724  0.3483
  151SAPE   H5X16780   5.062   6.216   9.564 -0.2042 -1.1450 -1.9944
  151SAPE   H5Y16781   4.882   6.266   9.549 -0.6671 -0.0508  1.2392
  151SAPE   C3616782   4.962   6.101   9.422  0.5934 -0.3980 -0.2858
  151SAPE   H6X16783   4.858   6.064   9.411  0.2009  0.3084  0.8171
  151SAPE   H6Y16784   5.026   6.012   9.440 -0.0965 -0.7217  0.6473
  151SAPE   C3716785   4.997   6.184   9.307 -0.2851 -0.2687 -0.8458
  151SAPE   H7X16786   5.105   6.207   9.307 -0.7126  1.9793 -0.6132
  151SAPE   H7Y16787   4.944   6.281   9.316 -2.6661 -1.6113  0.7394
  151SAPE   C3816788   4.946   6.122   9.174 -0.0967  0.1984 -0.5796
  151SAPE   H8X16789   4.835   6.110   9.182  0.0080  0.3021  1.8326
  151SAPE   H8Y16790   4.991   6.021   9.167 -2.4132 -1.0043  0.7152
  151SAPE   C3916791   4.992   6.203   9.050  1.0118  1.1695  0.4897
  151SAPE   H9X16792   5.099   6.233   9.059  1.4364 -0.5532  1.7252
  151SAPE   H9Y16793   4.927   6.293   9.052 -1.3703 -0.4502  0.6203
  151SAPE  C31016794   4.983   6.137   8.910 -0.1135  0.2180  0.2046
  151SAPE  H10X16795   5.010   6.213   8.834  1.1452  0.0187  0.4258
  151SAPE  H10Y16796   4.878   6.108   8.889  0.1416  0.3779 -1.4341
  151SAPE  C31116797   5.092   6.035   8.888 -0.0020  0.5404 -0.4265
  151SAPE  H11X16798   5.068   5.937   8.934 -1.0200  0.8005 -0.3783
  151SAPE  H11Y16799   5.190   6.070   8.927  0.0671 -2.3314  2.3852
  151SAPE  C31216800   5.116   6.000   8.739 -0.3601 -0.5613 -0.1062
  151SAPE  H12X16801   5.025   5.978   8.679  0.5559  2.2326 -2.7981
  151SAPE  H12Y16802   5.170   5.903   8.736  1.9754  0.6494  0.3652
  151SAPE  C31316803   5.189   6.111   8.657 -0.1653 -0.1114  0.0525
  151SAPE  H13X16804   5.297   6.111   8.681  0.3999 -1.8424 -2.1635
  151SAPE  H13Y16805   5.132   6.205   8.677  0.3754  0.6596 -1.7576
  151SAPE  C31416806   5.171   6.111   8.501  0.8607  0.4479  0.0910
  151SAPE  H14X16807   5.061   6.117   8.483  0.9119  2.7705  0.2766
  151SAPE  H14Y16808   5.213   6.015   8.463 -0.6842 -0.2131 -0.0280
  151SAPE  C31516809   5.237   6.236   8.435  0.2193  0.5716 -0.5687
  151SAPE  H15X16810   5.344   6.221   8.461  0.7542  0.7513 -2.4928
  151SAPE  H15Y16811   5.200   6.327   8.487  0.9646 -0.0010  1.0165
  151SAPE  C31616812   5.224   6.239   8.288 -0.4503  0.3365 -1.1465
  151SAPE  H16X16813   5.136   6.294   8.248  0.9036  1.6205 -2.4920
  151SAPE  H16Y16814   5.223   6.132   8.255  1.8438 -0.3396  0.7356
  151SAPE  C31716815   5.349   6.302   8.218 -0.0457 -0.3987 -0.8706
  151SAPE  H17X16816   5.436   6.243   8.252  1.8155  3.3560  1.5421
  151SAPE  H17Y16817   5.368   6.403   8.260  0.4196 -0.8090 -0.0704
  151SAPE  C31816818   5.337   6.299   8.068  0.2908 -0.3899  0.3561
  151SAPE  H18X16819   5.264   6.376   8.037 -0.5592 -0.3162  2.3694
  151SAPE  H18Y16820   5.299   6.200   8.034 -1.6715 -0.2363  1.8920
  151SAPE  H18Z16821   5.431   6.328   8.016  0.5210 -0.4637  0.7261
  152SAPE     N16822   5.601   5.523  11.002 -0.6017  0.2436  0.3761
  152SAPE   HN116823   5.537   5.570  11.069  0.7680 -1.0384  2.7208
  152SAPE   HN216824   5.548   5.447  10.956  1.3241  0.2243 -2.0546
  152SAPE   HN316825   5.678   5.477  11.055 -2.4788 -1.9623  1.3478
  152SAPE   C1216826   5.656   5.616  10.901 -0.1436  0.0936  0.4463
  152SAPE  H12A16827   5.682   5.706  10.961 -0.4640  0.2840  0.2998
  152SAPE  H12B16828   5.580   5.638  10.823  0.5353  2.1030  0.3130
  152SAPE   C1116829   5.785   5.572  10.851 -0.7092 -0.5146  0.4190
  152SAPE  H11A16830   5.865   5.563  10.927 -0.7012  0.8434  0.5925
  152SAPE  H11B16831   5.814   5.652  10.780 -0.2875 -0.7656  0.3055
  152SAPE     P16832   5.740   5.442  10.626  0.6788 -0.0624 -0.2095
  152SAPE   O1316833   5.692   5.304  10.590  0.2445  0.1480 -0.1539
  152SAPE   O1416834   5.647   5.552  10.597 -0.1068 -0.1745 -0.1889
  152SAPE   O1216835   5.765   5.445  10.782 -0.4216  0.4041 -0.4336
  152SAPE   O1116836   5.880   5.460  10.562 -0.0291 -0.3243  0.0499
  152SAPE    C116837   5.904   5.592  10.508 -0.7807  0.2301 -0.8078
  152SAPE    HA16838   5.821   5.663  10.490 -1.6978 -0.4567  0.5155
  152SAPE    HB16839   5.979   5.651  10.565 -2.6435  0.2175  1.8474
  152SAPE    C216840   5.965   5.579  10.363 -0.2484 -0.7378  0.1552
  152SAPE    HS16841   6.041   5.498  10.370 -1.0303 -1.5518 -0.5072
  152SAPE   O2116842   6.016   5.709  10.317  0.0562 -0.1874  0.0347
  152SAPE   C2116843   6.108   5.701  10.214  0.2261  0.2172  0.2357
  152SAPE   O2216844   6.151   5.592  10.173 -0.2999 -0.1393  0.3076
  152SAPE   C2216845   6.136   5.845  10.167 -0.0090 -0.3257  0.4441
  152SAPE   H2R16846   6.071   5.915  10.224  0.3021 -0.0844  0.5073
  152SAPE   H2S16847   6.240   5.870  10.197 -0.4250  1.6329  0.4230
  152SAPE    C316848   5.861   5.525  10.262  0.3695  0.0623  0.0350
  152SAPE    HX16849   5.772   5.592  10.265 -0.0618 -0.5047  0.0306
  152SAPE    HY16850   5.807   5.433  10.294 -1.6983  1.4812  0.8868
  152SAPE   O3116851   5.904   5.509  10.121 -0.0246  0.0419 -0.2015
  152SAPE   C3116852   5.934   5.391  10.076  0.8590  0.3357 -0.6396
  152SAPE   O3216853   5.910   5.285  10.129 -0.0383  0.0556 -0.3602
  152SAPE   C3216854   5.998   5.406   9.944 -0.8313 -0.3746  0.3828
  152SAPE   H2X16855   6.103   5.425   9.975 -1.0088 -1.4078  1.7464
  152SAPE   H2Y16856   5.952   5.493   9.893 -0.8523 -0.1478  0.7795
  152SAPE   C2316857   6.133   5.863  10.015  0.8470  0.0438  0.6391
  152SAPE   H3R16858   6.045   5.813   9.968  2.0635 -0.0983 -1.6428
  152SAPE   H3S16859   6.221   5.806   9.979 -0.2566 -0.7763 -0.8710
  152SAPE   C2416860   6.135   6.012   9.972 -0.4148  0.1734  0.1168
  152SAPE   H4R16861   6.038   6.054  10.009 -0.8847 -1.5066  0.8820
  152SAPE   H4S16862   6.142   6.016   9.861  2.0208 -1.1310  0.1753
  152SAPE   C2516863   6.247   6.083  10.037  0.0077 -0.4043  0.0253
  152SAPE   H5R16864   6.214   6.118  10.136 -1.7280  0.5658 -0.8288
  152SAPE   C2616865   6.361   6.121   9.976 -0.3188  0.2423  0.3616
  152SAPE   H6R16866   6.431   6.181  10.036 -0.8070  1.6393 -0.4139
  152SAPE   C2716867   6.423   6.088   9.841  0.7106  0.4071  0.3650
  152SAPE   H7R16868   6.357   6.008   9.802  3.2599 -1.1422 -1.1261
  152SAPE   H7S16869   6.526   6.048   9.849  1.3416  1.7283 -0.6347
  152SAPE   C2816870   6.416   6.215   9.756 -0.4085  0.3877  0.2755
  152SAPE   H8R16871   6.397   6.307   9.812 -0.4728  0.1615  0.6244
  152SAPE   C2916872   6.434   6.211   9.619  0.0405  0.2009 -0.2397
  152SAPE   H9R16873   6.422   6.304   9.562  0.2232  0.3021 -0.1108
  152SAPE  C21016874   6.479   6.093   9.543 -0.4071  0.0661  0.7387
  152SAPE  H10R16875   6.386   6.045   9.505  0.1489 -0.1594 -0.3559
  152SAPE  H10S16876   6.540   6.018   9.597 -0.3069  0.5280  1.2790
  152SAPE  C21116877   6.574   6.142   9.436  0.2686 -0.0954  0.0613
  152SAPE  H11R16878   6.643   6.220   9.470 -0.1021 -0.2025  1.0803
  152SAPE  C21216879   6.582   6.110   9.302 -0.0448  0.8979  0.3030
  152SAPE  H12R16880   6.657   6.172   9.251  0.0762 -0.2060 -0.9119
  152SAPE  C21316881   6.497   6.017   9.222  0.5048 -0.4418 -0.1710
  152SAPE  H13R16882   6.478   5.933   9.292  0.0025  1.2627  1.8158
  152SAPE  H13S16883   6.553   5.976   9.135  2.4493  1.6553 -0.0026
  152SAPE  C21416884   6.359   6.071   9.186  0.1093 -0.3147  0.2507
  152SAPE  H14R16885   6.297   6.115   9.266 -1.5756 -1.7431 -0.2168
  152SAPE  C21516886   6.290   6.046   9.074  0.1639  0.1428  0.6026
  152SAPE  H15R16887   6.203   6.112   9.060 -0.4282 -0.2549  2.1468
  152SAPE  C21616888   6.342   5.977   8.950  0.4881  0.3188  0.0679
  152SAPE  H16R16889   6.265   5.900   8.925  2.2917 -1.4819 -0.1622
  152SAPE  H16S16890   6.435   5.916   8.961  0.2579  0.0847  0.7859
  152SAPE  C21716891   6.359   6.080   8.842 -0.2554 -0.4839  0.8653
  152SAPE  H17R16892   6.425   6.165   8.872  0.5995  0.0981 -2.2608
  152SAPE  H17S16893   6.259   6.113   8.806  0.1588 -1.0961 -0.9869
  152SAPE  C21816894   6.429   6.022   8.716  0.0244  0.4445 -0.6245
  152SAPE  H18R16895   6.364   5.936   8.689 -2.4163  1.6162  1.0911
  152SAPE  H18S16896   6.524   5.979   8.753 -1.8784 -2.3341  1.4601
  152SAPE  C21916897   6.451   6.130   8.608 -0.0287 -0.2359  0.2570
  152SAPE  H19R16898   6.490   6.225   8.651 -1.7580  0.8684 -0.4989
  152SAPE  H19S16899   6.343   6.150   8.586 -0.2103  0.5477  1.7082
  152SAPE  C22016900   6.525   6.082   8.485 -0.9553  0.0175  0.1259
  152SAPE  H20R16901   6.631   6.070   8.518 -0.9285  0.5945  0.2666
  152SAPE  H20S16902   6.524   6.156   8.402  1.5183  0.0118  0.0186
  152SAPE  H20T16903   6.491   5.980   8.459  0.3982 -0.3711 -0.2000
  152SAPE   C3316904   5.987   5.270   9.859 -0.3267 -0.2524 -0.0782
  152SAPE   H3X16905   5.881   5.240   9.847 -0.0971 -1.1498  0.0349
  152SAPE   H3Y16906   6.019   5.190   9.929 -0.1126  0.7109  0.9468
  152SAPE   C3416907   6.077   5.262   9.736  0.7782 -0.0737  0.1080
  152SAPE   H4X16908   6.169   5.310   9.778 -0.2711 -0.5621  3.2355
  152SAPE   H4Y16909   6.032   5.328   9.659  1.4869  0.9982  0.5863
  152SAPE   C3516910   6.101   5.119   9.692 -0.5404 -0.4875 -0.0101
  152SAPE   H5X16911   6.057   5.051   9.768  1.2611 -0.5166  1.0791
  152SAPE   H5Y16912   6.210   5.096   9.683 -0.2461  1.1195 -0.9647
  152SAPE   C3616913   6.027   5.081   9.553  0.2283 -0.2547  0.3832
  152SAPE   H6X16914   5.931   5.136   9.552 -0.3243 -1.1079  2.3755
  152SAPE   H6Y16915   6.010   4.972   9.539 -1.6444 -0.0109  0.5238
  152SAPE   C3716916   6.107   5.140   9.437  0.0125 -0.2396  0.5710
  152SAPE   H7X16917   6.214   5.112   9.428 -0.2128 -0.5185 -1.8578
  152SAPE   H7Y16918   6.102   5.251   9.445  2.9044 -0.1276  2.3289
  152SAPE   C3816919   6.051   5.086   9.305 -0.0612 -0.6869  0.4811
  152SAPE   H8X16920   5.955   5.141   9.292  0.7652  1.3233  2.2161
  152SAPE   H8Y16921   6.033   4.977   9.313 -3.2235 -0.2108  0.9323
  152SAPE   C3916922   6.134   5.116   9.175  0.0082 -0.4443  0.1716
  152SAPE   H9X16923   6.238   5.078   9.178  0.8496  1.1648 -3.2262
  152SAPE   H9Y16924   6.136   5.227   9.167  1.8357 -0.4913 -0.2621
  152SAPE  C31016925   6.065   5.047   9.045 -0.7219 -0.4823 -0.1846
  152SAPE  H10X16926   6.094   5.114   8.961 -1.6387  2.1661  1.4685
  152SAPE  H10Y16927   5.955   5.051   9.057 -0.6512  1.3695  0.2068
  152SAPE  C31116928   6.111   4.897   9.024  0.5492  0.2752 -0.4366
  152SAPE  H11X16929   6.090   4.854   9.125 -0.2332 -0.4364 -0.8952
  152SAPE  H11Y16930   6.222   4.899   9.020  0.6136  1.0971  0.9569
  152SAPE  C31216931   6.040   4.819   8.920  0.0068 -0.2440  0.4692
  152SAPE  H12X16932   5.932   4.842   8.929  0.2283  0.6777  0.8339
  152SAPE  H12Y16933   6.055   4.709   8.914 -1.3879 -0.4983  1.2132
  152SAPE  C31316934   6.085   4.868   8.779 -0.1869  0.1421  0.2258
  152SAPE  H13X16935   6.192   4.846   8.759 -0.1449 -0.4196  1.0103
  152SAPE  H13Y16936   6.077   4.978   8.764  0.2824  0.4328  1.9277
  152SAPE  C31416937   5.997   4.800   8.674  0.7206 -0.1633  0.1772
  152SAPE  H14X16938   5.897   4.848   8.673  0.6901 -0.2264 -0.1802
  152SAPE  H14Y16939   5.974   4.692   8.689 -1.5452  0.3468  0.6033
  152SAPE  C31516940   6.060   4.820   8.530  0.5115 -0.4698 -0.1595
  152SAPE  H15X16941   6.170   4.822   8.545  0.3144 -1.1145  1.5662
  152SAPE  H15Y16942   6.024   4.917   8.490  1.1866  2.2249  5.0446
  152SAPE  C31616943   6.015   4.702   8.438 -0.3413 -0.2425 -0.2653
  152SAPE  H16X16944   6.051   4.607   8.481 -1.3208 -0.2579  0.5414
  152SAPE  H16Y16945   6.071   4.717   8.343  0.3561  1.0077  0.3159
  152SAPE  C31716946   5.864   4.689   8.429  0.0403 -0.4300  0.1651
  152SAPE  H17X16947   5.817   4.782   8.390 -0.3947 -1.4032 -1.7930
  152SAPE  H17Y16948   5.815   4.670   8.526 -1.0310  2.8524  0.4118
  152SAPE  C31816949   5.816   4.585   8.327  0.4108  0.0389 -0.4428
  152SAPE  H18X16950   5.874   4.493   8.347  2.8062  1.0124 -2.3106
  152SAPE  H18Y16951   5.835   4.610   8.220  0.5625 -0.7880 -0.6183
  152SAPE  H18Z16952   5.707   4.573   8.343 -0.2326  3.0644 -1.8060
  153SAPE     N16953   5.411   6.724  10.981  0.5500  0.0196  0.4115
  153SAPE   HN116954   5.332   6.766  10.929  1.5829 -0.1773 -1.4088
  153SAPE   HN216955   5.434   6.638  10.927 -0.0476 -0.0949  0.3339
  153SAPE   HN316956   5.372   6.707  11.076  1.5326  2.6620  1.3708
  153SAPE   C1216957   5.522   6.828  10.976  0.6435 -0.9598 -0.3239
  153SAPE  H12A16958   5.615   6.786  11.018  1.2938 -0.7493 -1.5054
  153SAPE  H12B16959   5.490   6.920  11.030 -0.9604 -0.8702 -1.3292
  153SAPE   C1116960   5.562   6.865  10.830 -0.3179  0.3945 -0.2027
  153SAPE  H11A16961   5.629   6.796  10.774  0.0281  0.1741  0.4745
  153SAPE  H11B16962   5.631   6.951  10.845 -1.0602  1.0260 -0.3542
  153SAPE     P16963   5.390   6.824  10.642  0.3009 -0.4190 -0.2037
  153SAPE   O1316964   5.410   6.677  10.662 -0.6795  0.0767 -0.4570
  153SAPE   O1416965   5.257   6.866  10.604  0.7653 -0.4863  0.6204
  153SAPE   O1216966   5.447   6.905  10.761 -0.1216  0.8120  0.0165
  153SAPE   O1116967   5.489   6.869  10.527  0.0268 -0.5828 -0.5674
  153SAPE    C116968   5.621   6.805  10.513  0.4239  0.7390 -0.9280
  153SAPE    HA16969   5.708   6.864  10.547  0.5869  0.6223 -1.1421
  153SAPE    HB16970   5.634   6.705  10.558  2.0461  0.2367 -2.4168
  153SAPE    C216971   5.645   6.769  10.358 -0.5990 -0.4248 -0.4368
  153SAPE    HS16972   5.747   6.725  10.345 -0.9966 -1.0460 -1.6868
  153SAPE   O2116973   5.627   6.881  10.268  0.2341 -0.2630 -0.0734
  153SAPE   C2116974   5.707   6.975  10.289 -0.7111  0.7462 -0.3763
  153SAPE   O2216975   5.812   6.964  10.347  0.3725 -0.1700 -0.0698
  153SAPE   C2216976   5.677   7.096  10.197 -0.3941  0.5025 -0.8733
  153SAPE   H2R16977   5.567   7.105  10.196 -0.3572  1.4308  0.6656
  153SAPE   H2S16978   5.725   7.190  10.233  1.1189 -0.2794 -0.7661
  153SAPE    C316979   5.553   6.647  10.322 -0.0905 -0.8104 -0.0544
  153SAPE    HX16980   5.451   6.688  10.339  0.8344  1.2483  0.7385
  153SAPE    HY16981   5.563   6.552  10.379 -1.0554 -0.0896  1.3943
  153SAPE   O3116982   5.551   6.630  10.179  0.6932 -0.6086 -0.9427
  153SAPE   C3116983   5.644   6.545  10.141  0.3657  0.2641  0.5623
  153SAPE   O3216984   5.719   6.481  10.211  0.0256 -0.8987 -0.1033
  153SAPE   C3216985   5.656   6.559   9.987  1.0692  0.0956 -0.5231
  153SAPE   H2X16986   5.593   6.480   9.941  1.5395 -1.6185  1.6101
  153SAPE   H2Y16987   5.756   6.530   9.948  1.0890  1.3057 -1.4260
  153SAPE   C2316988   5.740   7.064  10.058 -0.0954  0.1909  0.2337
  153SAPE   H3R16989   5.677   6.989  10.004  0.3279  0.4593 -0.6523
  153SAPE   H3S16990   5.844   7.024  10.052 -0.4004 -0.8375  1.3219
  153SAPE   C2416991   5.744   7.193   9.968  0.3554 -0.4298  0.5087
  153SAPE   H4R16992   5.800   7.180   9.874 -1.0070 -0.1580 -0.3657
  153SAPE   H4S16993   5.786   7.278  10.025 -2.2082  2.7399 -1.9457
  153SAPE   C2516994   5.605   7.230   9.935 -0.3779  0.4562  0.1020
  153SAPE   H5R16995   5.536   7.262  10.015  0.5638  1.3487  0.5762
  153SAPE   C2616996   5.552   7.234   9.810  0.0494 -0.8762 -0.0630
  153SAPE   H6R16997   5.446   7.264   9.799  0.4745  0.6493 -0.2711
  153SAPE   C2716998   5.628   7.213   9.673 -0.5653  0.2738  0.1308
  153SAPE   H7R16999   5.695   7.125   9.685 -0.1562  0.5514 -0.0888
  153SAPE   H7S17000   5.687   7.305   9.651  0.4210  0.2891  2.5878
  153SAPE   C2817001   5.530   7.174   9.575  0.9134 -0.5186 -0.4501
  153SAPE   H8R17002   5.437   7.132   9.614  2.0830 -1.8580  1.0545
  153SAPE   C2917003   5.533   7.201   9.446 -0.6631 -0.1251  0.5269
  153SAPE   H9R17004   5.452   7.167   9.380  0.5398  0.9469 -1.6110
  153SAPE  C21017005   5.649   7.247   9.371  0.7766  0.2386  0.1407
  153SAPE  H10R17006   5.647   7.180   9.282 -0.8474  0.5733 -0.1143
  153SAPE  H10S17007   5.734   7.202   9.426 -0.0258 -1.8883 -0.2516
  153SAPE  C21117008   5.671   7.395   9.344  0.0216  0.7112  0.0351
  153SAPE  H11R17009   5.693   7.462   9.429  1.5893 -1.6795  1.6358
  153SAPE  C21217010   5.671   7.447   9.221  0.2596  0.0703 -0.2960
  153SAPE  H12R17011   5.679   7.557   9.221  0.3581  0.0903  1.6106
  153SAPE  C21317012   5.656   7.377   9.093 -0.0929  0.4400  0.0455
  153SAPE  H13R17013   5.550   7.401   9.067 -0.5285  0.1202  1.4669
  153SAPE  H13S17014   5.681   7.269   9.100  0.1520  0.3606 -1.4937
  153SAPE  C21417015   5.754   7.435   8.994 -0.1963  0.1066  0.7984
  153SAPE  H14R17016   5.850   7.468   9.036 -1.1799 -0.8610  4.1085
  153SAPE  C21517017   5.723   7.454   8.863 -0.0837 -0.1018  0.6906
  153SAPE  H15R17018   5.779   7.514   8.790 -0.0881 -0.6010  0.2703
  153SAPE  C21617019   5.589   7.415   8.789  0.2954  0.3691 -0.2721
  153SAPE  H16R17020   5.562   7.499   8.723  1.3060  0.7074 -0.2812
  153SAPE  H16S17021   5.510   7.400   8.865  0.7249  0.4491  0.2027
  153SAPE  C21717022   5.603   7.291   8.704 -0.3694 -0.2762 -0.1287
  153SAPE  H17R17023   5.687   7.307   8.633 -1.2110  0.5453 -0.9657
  153SAPE  H17S17024   5.514   7.274   8.639 -0.8436  2.6287 -0.3576
  153SAPE  C21817025   5.616   7.158   8.785 -0.3069 -0.3174 -0.2677
  153SAPE  H18R17026   5.538   7.158   8.864 -1.2623 -1.4926 -1.1731
  153SAPE  H18S17027   5.707   7.154   8.848 -0.5284 -0.8173  0.0287
  153SAPE  C21917028   5.599   7.030   8.706  0.4324  0.0263  0.1640
  153SAPE  H19R17029   5.674   7.043   8.625 -0.5906  0.7786 -0.6855
  153SAPE  H19S17030   5.496   7.020   8.666  0.6626 -0.8886 -0.2191
  153SAPE  C22017031   5.619   6.911   8.794 -1.1337  0.5687 -0.0051
  153SAPE  H20R17032   5.672   6.935   8.890  0.6471  0.2594 -0.8640
  153SAPE  H20S17033   5.687   6.839   8.743 -0.3166  1.0263  0.4045
  153SAPE  H20T17034   5.524   6.857   8.811 -0.4006 -0.1937  2.0725
  153SAPE   C3317035   5.631   6.696   9.924 -0.1566 -0.4899 -0.4018
  153SAPE   H3X17036   5.703   6.764   9.975 -0.9867  1.0713 -1.2184
  153SAPE   H3Y17037   5.527   6.735   9.929 -0.5056 -1.0292 -2.4808
  153SAPE   C3417038   5.651   6.693   9.765 -0.2355 -0.0863 -0.0028
  153SAPE   H4X17039   5.565   6.630   9.735 -1.5109  1.7936 -0.4958
  153SAPE   H4Y17040   5.752   6.647   9.755 -0.5280 -0.6086 -0.5935
  153SAPE   C3517041   5.633   6.829   9.690  0.5906  0.8578  0.3723
  153SAPE   H5X17042   5.726   6.890   9.699  0.9952  0.2764  0.2142
  153SAPE   H5Y17043   5.540   6.876   9.728 -1.4322 -3.1496  0.9354
  153SAPE   C3617044   5.617   6.808   9.537  0.5617  0.0695  0.0441
  153SAPE   H6X17045   5.581   6.905   9.495  2.4892  0.5988 -0.4903
  153SAPE   H6Y17046   5.536   6.736   9.516  1.7033 -1.7707  1.6494
  153SAPE   C3717047   5.744   6.747   9.481 -0.2457 -0.1335 -0.9789
  153SAPE   H7X17048   5.749   6.638   9.501 -0.5776  0.1198  0.5809
  153SAPE   H7Y17049   5.833   6.784   9.535 -1.8266  2.3072  0.1092
  153SAPE   C3817050   5.755   6.782   9.330 -0.1685  0.1004 -0.3605
  153SAPE   H8X17051   5.785   6.887   9.311  0.1003 -0.0046 -0.5212
  153SAPE   H8Y17052   5.658   6.751   9.285  0.5619 -1.7671 -0.7418
  153SAPE   C3917053   5.875   6.701   9.270  0.3425  0.6339 -0.3560
  153SAPE   H9X17054   5.876   6.601   9.318  0.2220  0.5194 -0.5916
  153SAPE   H9Y17055   5.963   6.762   9.301  0.0539  0.2643  1.3175
  153SAPE  C31017056   5.858   6.675   9.119 -0.0420 -0.4298  0.1784
  153SAPE  H10X17057   5.878   6.769   9.062 -0.7682  0.0601  0.7159
  153SAPE  H10Y17058   5.756   6.647   9.084  0.6504 -0.1172 -2.3360
  153SAPE  C31117059   5.952   6.560   9.064  0.4936 -0.6421 -0.1633
  153SAPE  H11X17060   5.945   6.464   9.120  0.3527 -0.2612  0.4811
  153SAPE  H11Y17061   6.060   6.582   9.066  1.0661 -3.0238  3.0101
  153SAPE  C31217062   5.906   6.528   8.920 -0.5771 -1.0275  0.7896
  153SAPE  H12X17063   5.911   6.623   8.863 -1.1690 -0.7380  1.2065
  153SAPE  H12Y17064   5.802   6.491   8.927 -2.0911  2.6308 -0.4388
  153SAPE  C31317065   5.985   6.420   8.855  0.3039  0.5798 -0.4192
  153SAPE  H13X17066   5.979   6.336   8.929 -0.2345  2.3949  1.7042
  153SAPE  H13Y17067   6.091   6.452   8.854  0.6008 -0.2439  1.0465
  153SAPE  C31417068   5.944   6.382   8.712 -0.0340  0.3680  0.4593
  153SAPE  H14X17069   5.970   6.464   8.642 -1.3984  0.6079  0.1953
  153SAPE  H14Y17070   5.834   6.368   8.708 -0.0030  0.2915 -0.3728
  153SAPE  C31517071   6.012   6.249   8.674  0.3475  0.0941 -0.1204
  153SAPE  H15X17072   6.107   6.238   8.731  0.9680  0.8844 -0.9704
  153SAPE  H15Y17073   6.014   6.253   8.563 -2.5292 -0.4614 -0.2680
  153SAPE  C31617074   5.919   6.129   8.698  0.5033  0.5567 -0.2750
  153SAPE  H16X17075   5.821   6.141   8.646  0.4378  0.9000 -0.0766
  153SAPE  H16Y17076   5.891   6.129   8.806  0.3085  1.0352 -0.3239
  153SAPE  C31717077   5.989   6.006   8.652 -0.4134 -0.3752 -0.3880
  153SAPE  H17X17078   5.931   5.915   8.682  0.1826 -0.5897  0.1417
  153SAPE  H17Y17079   6.092   6.004   8.694  0.7562 -1.5091 -3.0894
  153SAPE  C31817080   5.998   5.994   8.501 -0.3446  0.2687 -0.2812
  153SAPE  H18X17081   6.026   5.893   8.467  1.1510  0.9323 -1.1224
  153SAPE  H18Y17082   6.076   6.056   8.453 -2.9611  2.4604 -2.0312
  153SAPE  H18Z17083   5.904   6.020   8.448  0.1042 -0.5724 -1.5381
  154SAPE     N17084   0.441   6.649  10.792  0.1182  0.1299  0.1316
  154SAPE   HN117085   0.475   6.728  10.734 -1.7215  1.0095  0.2001
  154SAPE   HN217086   0.357   6.678  10.845 -1.8478 -0.7212 -2.2824
  154SAPE   HN317087   0.513   6.612  10.857  1.2405  0.5986 -0.7892
  154SAPE   C1217088   0.394   6.544  10.691 -0.1554 -0.3513 -0.0007
  154SAPE  H12A17089   0.484   6.511  10.636  0.2454 -0.8651  0.9424
  154SAPE  H12B17090   0.331   6.615  10.633 -1.3271  1.4039  3.1287
  154SAPE   C1117091   0.329   6.426  10.759  0.1647 -0.2860 -0.6005
  154SAPE  H11A17092   0.388   6.395  10.847 -1.1299  0.2188  0.4840
  154SAPE  H11B17093   0.330   6.338  10.690  2.3446 -0.9774  0.2340
  154SAPE     P17094   0.068   6.397  10.747 -0.6526 -0.4178  0.3657
  154SAPE   O1317095   0.094   6.252  10.720  0.3053  0.3401 -0.2287
  154SAPE   O1417096  -0.052   6.423  10.830 -0.1371 -0.6157  0.4493
  154SAPE   O1217097   0.195   6.455  10.808 -0.6878  0.2022 -0.3468
  154SAPE   O1117098   0.055   6.480  10.608  0.0869 -0.1863 -0.7384
  154SAPE    C117099   0.028   6.623  10.609 -0.4934 -0.3113  0.0486
  154SAPE    HA17100  -0.013   6.657  10.707 -0.4439 -0.1884  0.0263
  154SAPE    HB17101   0.116   6.689  10.594 -0.8148  0.0708 -0.1852
  154SAPE    C217102  -0.069   6.666  10.497  0.4612  0.9523 -0.3776
  154SAPE    HS17103  -0.167   6.617  10.518 -0.3982  2.5907 -0.3106
  154SAPE   O2117104  -0.019   6.644  10.365 -0.2333 -0.4523 -0.3202
  154SAPE   C2117105  -0.093   6.571  10.280 -0.6161 -0.0435 -0.7007
  154SAPE   O2217106  -0.206   6.540  10.308  0.0109 -0.0405 -0.2352
  154SAPE   C2217107  -0.017   6.584  10.151 -1.1100  0.0922 -0.4201
  154SAPE   H2R17108   0.035   6.681  10.136 -0.0890 -0.4616 -0.5408
  154SAPE   H2S17109   0.064   6.507  10.154  1.4372  2.6102 -0.5409
  154SAPE    C317110  -0.109   6.814  10.508 -0.5968 -0.2958  0.8630
  154SAPE    HX17111  -0.022   6.878  10.484  0.0959 -0.7456  2.0831
  154SAPE    HY17112  -0.140   6.834  10.613 -1.8826  0.1236  0.4321
  154SAPE   O3117113  -0.224   6.835  10.423  0.1899 -0.3163  0.1249
  154SAPE   C3117114  -0.255   6.961  10.406 -0.3035 -0.1128 -0.7266
  154SAPE   O3217115  -0.194   7.054  10.461  0.3723 -0.2304  0.7086
  154SAPE   C3217116  -0.378   6.986  10.321  0.0254 -0.5096 -0.0060
  154SAPE   H2X17117  -0.433   7.066  10.376  1.0620 -1.0463  1.8803
  154SAPE   H2Y17118  -0.442   6.898  10.300 -0.3174 -0.1888 -0.3356
  154SAPE   C2317119  -0.112   6.552  10.039  0.1608 -0.4220 -0.1151
  154SAPE   H3R17120  -0.192   6.628  10.055  1.3932  1.3280 -1.6789
  154SAPE   H3S17121  -0.142   6.446  10.047 -0.2243 -0.2664  0.5211
  154SAPE   C2417122  -0.054   6.593   9.897 -0.0814 -1.0039  0.0922
  154SAPE   H4R17123  -0.035   6.702   9.897 -1.9264 -0.6428  0.0728
  154SAPE   H4S17124  -0.145   6.583   9.834 -0.7147  0.1397  0.7908
  154SAPE   C2517125   0.055   6.501   9.851  0.8493 -0.1435  0.5107
  154SAPE   H5R17126   0.064   6.406   9.905  0.6452 -0.5587 -0.1773
  154SAPE   C2617127   0.131   6.522   9.742 -1.1999  0.1044  0.0806
  154SAPE   H6R17128   0.221   6.462   9.723  0.3383  2.6185 -0.9727
  154SAPE   C2717129   0.130   6.658   9.673 -0.2175  0.0802 -0.2627
  154SAPE   H7R17130   0.147   6.743   9.742 -1.2922 -2.7264  3.8288
  154SAPE   H7S17131   0.027   6.685   9.640 -0.3251 -0.4532 -0.3689
  154SAPE   C2817132   0.226   6.669   9.562 -0.2531  0.1545  0.1795
  154SAPE   H8R17133   0.318   6.717   9.598  0.8695 -2.4400  1.0021
  154SAPE   C2917134   0.216   6.612   9.437 -0.2544 -0.0479 -0.5210
  154SAPE   H9R17135   0.310   6.608   9.380  1.4210 -0.2120  2.0702
  154SAPE  C21017136   0.099   6.532   9.390 -0.4649 -0.0583  0.2035
  154SAPE  H10R17137   0.072   6.467   9.477 -1.5563 -1.6217 -1.2382
  154SAPE  H10S17138   0.138   6.464   9.312 -0.8887 -0.9645  0.7594
  154SAPE  C21117139  -0.013   6.621   9.345  0.2139 -0.6197  0.1909
  154SAPE  H11R17140  -0.030   6.720   9.390 -2.1466 -1.1522  0.6155
  154SAPE  C21217141  -0.096   6.589   9.250  0.6505 -0.1491  1.0755
  154SAPE  H12R17142  -0.180   6.657   9.227 -1.5800 -3.1348 -0.2290
  154SAPE  C21317143  -0.090   6.462   9.165 -0.2139  0.5588 -1.0103
  154SAPE  H13R17144  -0.045   6.380   9.225  1.0089  0.0864 -2.4942
  154SAPE  H13S17145  -0.012   6.469   9.087  3.1359 -2.0183  1.7592
  154SAPE  C21417146  -0.226   6.425   9.117 -0.0173 -0.7484  0.7796
  154SAPE  H14R17147  -0.289   6.371   9.190 -1.4385 -0.0178  0.1404
  154SAPE  C21517148  -0.270   6.435   8.992  0.0183 -0.1259  0.1281
  154SAPE  H15R17149  -0.377   6.420   8.973  0.3851 -1.0577 -1.3791
  154SAPE  C21617150  -0.203   6.498   8.868 -0.7416 -0.1804 -0.1555
  154SAPE  H16R17151  -0.165   6.434   8.786 -1.5866 -3.5390  1.8838
  154SAPE  H16S17152  -0.113   6.552   8.902 -1.1113  0.6744 -0.5027
  154SAPE  C21717153  -0.302   6.600   8.799  0.1904 -0.1193 -0.4551
  154SAPE  H17R17154  -0.229   6.662   8.742  1.8752 -2.6920 -1.2859
  154SAPE  H17S17155  -0.360   6.656   8.876  0.0965  0.8860 -1.2414
  154SAPE  C21817156  -0.403   6.533   8.702 -0.4303  0.5982 -0.3845
  154SAPE  H18R17157  -0.504   6.537   8.749 -1.2104  2.3441 -2.0769
  154SAPE  H18S17158  -0.385   6.424   8.695 -0.1965  0.5706  0.4999
  154SAPE  C21917159  -0.416   6.596   8.571  0.4415  0.0417  0.3690
  154SAPE  H19R17160  -0.491   6.532   8.519  0.1623  0.1748  0.6067
  154SAPE  H19S17161  -0.322   6.581   8.514  1.2002 -0.5039  1.7162
  154SAPE  C22017162  -0.455   6.742   8.580 -0.3936 -0.2583 -0.2012
  154SAPE  H20R17163  -0.543   6.762   8.644  0.9055 -0.0266  1.5873
  154SAPE  H20S17164  -0.476   6.781   8.478 -0.5857  1.0256  0.3013
  154SAPE  H20T17165  -0.367   6.798   8.618  0.0708 -1.9148  1.2462
  154SAPE   C3317166  -0.355   7.056  10.181  0.8310 -0.3513  0.1063
  154SAPE   H3X17167  -0.303   7.153  10.196  0.6092 -0.1516 -0.3976
  154SAPE   H3Y17168  -0.448   7.102  10.140  0.0170 -2.0655 -0.0372
  154SAPE   C3417169  -0.284   6.969  10.082  0.6212 -0.3049 -0.5481
  154SAPE   H4X17170  -0.346   6.879  10.060 -1.8094  1.3966 -1.0683
  154SAPE   H4Y17171  -0.191   6.944  10.138 -0.2927 -0.9029  0.7586
  154SAPE   C3517172  -0.257   7.044   9.951  0.8325  0.3910 -0.4174
  154SAPE   H5X17173  -0.209   7.143   9.967 -0.0236  0.4857  1.8754
  154SAPE   H5Y17174  -0.360   7.056   9.911  0.1235 -0.1770  1.1540
  154SAPE   C3617175  -0.162   6.973   9.848  0.5616  0.4674  0.3277
  154SAPE   H6X17176  -0.067   6.944   9.898  1.1149  0.4594 -0.7003
  154SAPE   H6Y17177  -0.146   7.058   9.778  1.0149  1.8253  2.0200
  154SAPE   C3717178  -0.227   6.859   9.768 -0.2450  0.1371  0.1197
  154SAPE   H7X17179  -0.263   6.783   9.841 -0.8901 -0.4055 -0.7305
  154SAPE   H7Y17180  -0.145   6.820   9.704  1.1855  0.2722  1.8059
  154SAPE   C3817181  -0.347   6.894   9.683  0.0626 -0.1775 -0.4273
  154SAPE   H8X17182  -0.327   6.989   9.629 -1.8708 -0.1248 -1.1509
  154SAPE   H8Y17183  -0.433   6.919   9.748  0.0092  0.0969 -0.5997
  154SAPE   C3917184  -0.390   6.772   9.597  0.3638 -0.4581  0.0817
  154SAPE   H9X17185  -0.419   6.686   9.660 -1.9680  1.0051  1.1741
  154SAPE   H9Y17186  -0.301   6.739   9.540  1.5073  0.3551  1.3507
  154SAPE  C31017187  -0.508   6.791   9.496  0.1126 -0.3073  0.3208
  154SAPE  H10X17188  -0.466   6.856   9.416 -0.8430 -0.9361 -0.7172
  154SAPE  H10Y17189  -0.593   6.849   9.536  1.6799  1.0330  1.8768
  154SAPE  C31117190  -0.549   6.662   9.419 -0.2175  0.2949 -0.1135
  154SAPE  H11X17191  -0.466   6.615   9.362  0.2941  1.1921 -0.1378
  154SAPE  H11Y17192  -0.627   6.700   9.349  0.6383  1.0628 -0.6778
  154SAPE  C31217193  -0.617   6.562   9.505  0.5172  0.2758  0.8570
  154SAPE  H12X17194  -0.715   6.600   9.541 -1.4271 -1.5722 -2.0232
  154SAPE  H12Y17195  -0.549   6.537   9.589  0.6973  1.5822  1.1331
  154SAPE  C31317196  -0.651   6.433   9.424 -0.3142 -0.2760 -0.3652
  154SAPE  H13X17197  -0.560   6.400   9.371  0.4737 -0.5957  1.1312
  154SAPE  H13Y17198  -0.728   6.459   9.348 -1.2129  0.1637  0.6662
  154SAPE  C31417199  -0.701   6.314   9.516 -0.2911 -0.5342  0.4676
  154SAPE  H14X17200  -0.615   6.272   9.572 -1.8097 -1.5888  2.1105
  154SAPE  H14Y17201  -0.736   6.232   9.451  0.8070 -0.1959 -0.5814
  154SAPE  C31517202  -0.795   6.362   9.618  0.0347 -0.1209 -0.3936
  154SAPE  H15X17203  -0.882   6.420   9.581 -2.2141 -1.4445  2.3851
  154SAPE  H15Y17204  -0.745   6.425   9.695  1.4692 -2.4820  0.7326
  154SAPE  C31617205  -0.865   6.248   9.701 -0.2823 -0.5191  0.5152
  154SAPE  H16X17206  -0.788   6.181   9.744  3.4592  3.0860  0.0272
  154SAPE  H16Y17207  -0.927   6.188   9.631 -0.4799  1.0675 -0.7389
  154SAPE  C31717208  -0.951   6.313   9.807 -0.4259 -0.2545  0.7007
  154SAPE  H17X17209  -1.011   6.400   9.771  2.6091  2.6016  2.0138
  154SAPE  H17Y17210  -0.878   6.362   9.875  0.0946  3.0683 -1.9875
  154SAPE  C31817211  -1.031   6.209   9.872  0.2210 -0.2738  0.5616
  154SAPE  H18X17212  -1.124   6.257   9.910 -0.2997  0.4186 -1.4383
  154SAPE  H18Y17213  -0.979   6.147   9.947 -1.7474 -3.9211 -0.8559
  154SAPE  H18Z17214  -1.079   6.146   9.794 -1.7057  0.1275  1.3448
  155SAPE     N17215   0.684   0.811  10.921 -0.2529 -0.1850 -0.0902
  155SAPE   HN117216   0.738   0.800  10.833  2.7285 -3.3938  1.9159
  155SAPE   HN217217   0.652   0.713  10.939  1.3807 -0.5992  0.7826
  155SAPE   HN317218   0.601   0.868  10.894 -0.7204 -0.4571  0.7301
  155SAPE   C1217219   0.745   0.882  11.038 -0.1029  0.5846 -0.5610
  155SAPE  H12A17220   0.808   0.814  11.099  1.0103  2.2880  0.2621
  155SAPE  H12B17221   0.667   0.921  11.108 -0.0582  1.9063 -1.2168
  155SAPE   C1117222   0.821   1.008  10.986  0.5640  0.6300  0.1993
  155SAPE  H11A17223   0.908   0.978  10.924  1.0927 -0.3773  1.3680
  155SAPE  H11B17224   0.855   1.059  11.079 -1.1801  1.7658  0.2630
  155SAPE     P17225   0.776   1.219  10.840 -0.0053 -0.0866  0.2525
  155SAPE   O1317226   0.658   1.303  10.802 -0.5652  0.1261  0.4595
  155SAPE   O1417227   0.894   1.280  10.897  0.1808  0.2839 -0.0070
  155SAPE   O1217228   0.726   1.092  10.926  0.2045  0.0771 -0.6067
  155SAPE   O1117229   0.824   1.144  10.706 -0.4519 -0.0709 -0.4547
  155SAPE    C117230   0.725   1.066  10.634  0.5460  0.1660 -0.1865
  155SAPE    HA17231   0.697   0.981  10.699  2.3118 -0.0829  0.3191
  155SAPE    HB17232   0.634   1.125  10.607 -0.1227  0.2740  2.1176
  155SAPE    C217233   0.773   1.004  10.506  0.1632  0.2730 -0.1185
  155SAPE    HS17234   0.871   0.956  10.528  0.2000  0.9528  1.2829
  155SAPE   O2117235   0.777   1.104  10.399  0.3356  0.2652  0.2772
  155SAPE   C2117236   0.897   1.143  10.359  0.2601  0.7102  0.5063
  155SAPE   O2217237   1.003   1.100  10.403 -0.4361  0.5703 -0.0941
  155SAPE   C2217238   0.873   1.247  10.251 -0.6433 -0.4200  0.2447
  155SAPE   H2R17239   0.780   1.299  10.279 -1.7516 -1.8032 -0.7378
  155SAPE   H2S17240   0.954   1.323  10.260 -2.3254  1.2307  2.3751
  155SAPE    C317241   0.669   0.894  10.459  0.7594  0.3209  0.0024
  155SAPE    HX17242   0.576   0.950  10.434 -0.2893 -1.1934  0.4419
  155SAPE    HY17243   0.656   0.815  10.536 -0.3900  1.0726  0.5971
  155SAPE   O3117244   0.710   0.810  10.347 -0.6881 -0.2518  0.3501
  155SAPE   C3117245   0.661   0.854  10.231 -0.4411 -0.2453  0.0605
  155SAPE   O3217246   0.603   0.958  10.210 -0.0523  0.1323  0.3073
  155SAPE   C3217247   0.700   0.757  10.123  0.2553 -0.2384 -0.0813
  155SAPE   H2X17248   0.669   0.655  10.152  0.6075 -0.1934  0.4617
  155SAPE   H2Y17249   0.808   0.775  10.107  0.7583 -2.4676  0.4510
  155SAPE   C2317250   0.882   1.186  10.113 -0.4982 -0.3624 -0.0246
  155SAPE   H3R17251   0.841   1.083  10.104 -1.8336 -0.0690  2.0997
  155SAPE   H3S17252   0.990   1.188  10.084 -0.3900  1.1848  0.3950
  155SAPE   C2417253   0.809   1.281  10.021  0.7991 -0.4260 -0.4699
  155SAPE   H4R17254   0.707   1.312  10.052  2.0125  2.0528  1.4426
  155SAPE   H4S17255   0.791   1.215   9.934 -1.6988 -0.5539  0.0677
  155SAPE   C2517256   0.877   1.412   9.990 -0.2043 -0.2023 -0.5048
  155SAPE   H5R17257   0.874   1.492  10.065  1.4934 -0.2132 -0.3914
  155SAPE   C2617258   0.937   1.442   9.876  0.4493  0.1492 -0.6975
  155SAPE   H6R17259   0.979   1.542   9.857  1.6761  0.0118  1.0563
  155SAPE   C2717260   0.954   1.348   9.761  0.2813 -0.2386  0.1781
  155SAPE   H7R17261   0.962   1.245   9.801  1.6840  0.3263  1.4971
  155SAPE   H7S17262   1.051   1.379   9.717 -0.1159  1.0319  0.1413
  155SAPE   C2817263   0.849   1.353   9.648  0.2141  0.2086  0.7764
  155SAPE   H8R17264   0.747   1.331   9.684 -0.5058  1.5134 -0.3727
  155SAPE   C2917265   0.857   1.373   9.516 -0.7107 -0.4188  0.4924
  155SAPE   H9R17266   0.761   1.375   9.462  0.4660 -1.2206 -1.7554
  155SAPE  C21017267   0.976   1.400   9.428 -0.7654 -0.7536 -0.6351
  155SAPE  H10R17268   1.061   1.443   9.484 -0.6092 -0.4231 -1.1223
  155SAPE  H10S17269   0.937   1.486   9.369  0.2199  0.9756  1.1266
  155SAPE  C21117270   1.038   1.292   9.351  0.9502  0.5309  0.5889
  155SAPE  H11R17271   1.073   1.200   9.400  0.8187  0.2089  0.0872
  155SAPE  C21217272   1.054   1.298   9.215  0.2699  0.0436 -0.1929
  155SAPE  H12R17273   1.088   1.205   9.167  1.9911 -0.9715  2.7070
  155SAPE  C21317274   1.025   1.413   9.118  0.0443 -0.3644  0.0017
  155SAPE  H13R17275   1.112   1.427   9.051  0.0208  4.3150  0.6250
  155SAPE  H13S17276   1.023   1.515   9.161 -0.5127 -0.3746  0.0033
  155SAPE  C21417277   0.895   1.403   9.039 -0.0687  0.1376  0.3111
  155SAPE  H14R17278   0.797   1.417   9.088 -0.1572  3.7885 -0.6294
  155SAPE  C21517279   0.890   1.384   8.904 -0.7447  0.2542 -0.8156
  155SAPE  H15R17280   0.790   1.375   8.859  0.2715 -1.5444 -2.8924
  155SAPE  C21617281   1.006   1.365   8.811 -0.1060  0.6826  0.6251
  155SAPE  H16R17282   1.030   1.257   8.809  0.4770  0.8053  0.8450
  155SAPE  H16S17283   1.103   1.415   8.833  0.5663  0.6964 -1.9951
  155SAPE  C21717284   0.981   1.428   8.670  0.4290 -0.1035  0.8371
  155SAPE  H17R17285   0.936   1.530   8.675  0.8715  0.4428 -3.2557
  155SAPE  H17S17286   0.915   1.366   8.606  2.2684 -0.0648 -1.2369
  155SAPE  C21817287   1.110   1.457   8.592 -0.5580  0.0009 -0.0565
  155SAPE  H18R17288   1.187   1.501   8.658 -0.1984 -1.0277  0.2353
  155SAPE  H18S17289   1.079   1.526   8.511  0.8339  0.5530 -0.1413
  155SAPE  C21917290   1.176   1.342   8.511 -0.3667  0.2981  0.0225
  155SAPE  H19R17291   1.092   1.311   8.446  0.9405 -1.1589 -1.0608
  155SAPE  H19S17292   1.198   1.254   8.575  0.6820 -0.6055 -1.5050
  155SAPE  C22017293   1.294   1.380   8.421 -0.3004 -0.5949 -0.1946
  155SAPE  H20R17294   1.297   1.331   8.321  3.8570 -1.2630  0.0865
  155SAPE  H20S17295   1.390   1.362   8.473 -0.1287 -2.6265 -1.1275
  155SAPE  H20T17296   1.300   1.489   8.405  0.1769 -0.2335  2.1522
  155SAPE   C3317297   0.629   0.795   9.988  0.4696 -0.3201 -0.0658
  155SAPE   H3X17298   0.609   0.902   9.968 -1.7689 -0.2438  2.1358
  155SAPE   H3Y17299   0.525   0.757   9.991  0.3456  0.0625  0.9287
  155SAPE   C3417300   0.707   0.744   9.862  0.5555 -0.0584 -0.0827
  155SAPE   H4X17301   0.723   0.634   9.861 -0.3403 -0.2147  0.9925
  155SAPE   H4Y17302   0.806   0.791   9.875  0.0417  1.3843 -1.1177
  155SAPE   C3517303   0.658   0.799   9.724  0.0665  0.3070 -0.3265
  155SAPE   H5X17304   0.654   0.910   9.736  2.3537  0.4962 -0.8326
  155SAPE   H5Y17305   0.560   0.750   9.707  0.9437 -1.2074 -1.2673
  155SAPE   C3617306   0.747   0.771   9.604 -0.4225 -0.5643 -0.7582
  155SAPE   H6X17307   0.759   0.665   9.576  0.9633 -0.2018 -1.6691
  155SAPE   H6Y17308   0.851   0.806   9.624 -0.3777 -0.9923 -0.2368
  155SAPE   C3717309   0.720   0.854   9.480  0.7033 -0.0612  0.8669
  155SAPE   H7X17310   0.697   0.956   9.519 -2.3610 -0.4089  0.2041
  155SAPE   H7Y17311   0.620   0.833   9.435  1.1497  1.2001 -0.8347
  155SAPE   C3817312   0.820   0.845   9.365  0.5775 -0.2098  0.5160
  155SAPE   H8X17313   0.821   0.741   9.326  0.7464  0.6302 -1.9215
  155SAPE   H8Y17314   0.919   0.852   9.414  0.0193 -1.1687  1.8584
  155SAPE   C3917315   0.792   0.945   9.248 -0.0068  0.2210 -0.1402
  155SAPE   H9X17316   0.804   1.052   9.277  1.6995  0.0898 -0.2361
  155SAPE   H9Y17317   0.685   0.941   9.218 -0.1886 -2.5375  0.6415
  155SAPE  C31017318   0.879   0.923   9.121 -0.0162 -0.1410 -0.3254
  155SAPE  H10X17319   0.858   0.822   9.079 -1.2093 -0.0726  0.0795
  155SAPE  H10Y17320   0.985   0.920   9.154 -0.2672  1.0157  0.6095
  155SAPE  C31117321   0.858   1.032   9.009 -0.4385 -0.4354 -0.4804
  155SAPE  H11X17322   0.895   1.131   9.043 -0.3567 -0.3059 -0.9416
  155SAPE  H11Y17323   0.749   1.042   8.990 -0.2292  0.0709 -1.4815
  155SAPE  C31217324   0.933   0.992   8.876 -0.5397 -0.3092 -0.8506
  155SAPE  H12X17325   0.916   1.066   8.795 -0.3152  2.6113  1.5633
  155SAPE  H12Y17326   0.910   0.887   8.847 -0.6518 -0.0862 -1.5968
  155SAPE  C31317327   1.085   0.991   8.896 -0.0486 -0.8323  0.3330
  155SAPE  H13X17328   1.104   0.918   8.977  0.0675 -0.1567  0.9214
  155SAPE  H13Y17329   1.109   1.088   8.944 -0.4934 -0.4906 -0.1267
  155SAPE  C31417330   1.173   0.961   8.766 -0.7754  0.8459  0.2194
  155SAPE  H14X17331   1.283   0.969   8.780 -1.1636  4.7536  2.1046
  155SAPE  H14Y17332   1.134   1.019   8.680 -0.9105 -1.4949 -1.4219
  155SAPE  C31517333   1.139   0.812   8.728 -0.0041  0.1702 -0.0435
  155SAPE  H15X17334   1.029   0.793   8.722 -0.7813  2.5131  3.6763
  155SAPE  H15Y17335   1.176   0.752   8.814  0.6217  1.6690  0.7634
  155SAPE  C31617336   1.210   0.785   8.594  0.2114  0.5199 -0.7361
  155SAPE  H16X17337   1.301   0.849   8.597  0.4736  0.1315 -0.3582
  155SAPE  H16Y17338   1.137   0.815   8.516  1.1594  3.9862 -0.4284
  155SAPE  C31717339   1.238   0.635   8.578  0.2938  0.6381  0.3158
  155SAPE  H17X17340   1.152   0.565   8.568  1.9201 -1.7440  1.7481
  155SAPE  H17Y17341   1.296   0.610   8.670 -0.8705 -1.0066  0.6394
  155SAPE  C31817342   1.329   0.598   8.454 -0.0590  0.1668  0.1019
  155SAPE  H18X17343   1.348   0.488   8.459  0.5487  0.1987 -1.2508
  155SAPE  H18Y17344   1.429   0.645   8.459  0.7017 -1.4729  1.4797
  155SAPE  H18Z17345   1.271   0.617   8.362  1.7709 -2.2822 -1.7045
  156SAPE     N17346   5.506   5.719  10.438  0.2178  0.3530 -0.0096
  156SAPE   HN117347   5.539   5.766  10.351 -0.1413  2.1780  0.7932
  156SAPE   HN217348   5.576   5.668  10.496  0.1611  0.8334  0.4904
  156SAPE   HN317349   5.451   5.644  10.393  2.2943 -1.5768  0.4644
  156SAPE   C1217350   5.419   5.816  10.512  0.0223 -0.2484 -0.5202
  156SAPE  H12A17351   5.477   5.901  10.553 -2.0875  0.4207  1.2983
  156SAPE  H12B17352   5.373   5.767  10.601 -1.5197  3.7247  1.1112
  156SAPE   C1117353   5.300   5.852  10.423  0.7583 -0.2377 -0.3893
  156SAPE  H11A17354   5.331   5.905  10.331 -0.6036 -0.3006 -0.9022
  156SAPE  H11B17355   5.237   5.928  10.474  1.3165 -0.1564  0.1968
  156SAPE     P17356   5.081   5.706  10.461 -0.0991 -0.0175 -0.3757
  156SAPE   O1317357   5.107   5.638  10.591  0.2851  0.0283 -0.3518
  156SAPE   O1417358   4.997   5.827  10.458  0.5005 -0.1215 -0.8759
  156SAPE   O1217359   5.220   5.734  10.390 -0.1360  0.0098 -0.3609
  156SAPE   O1117360   5.018   5.602  10.364  0.1500  0.2527  0.3209
  156SAPE    C117361   5.091   5.510  10.290 -0.1086  0.7497  0.2928
  156SAPE    HA17362   5.180   5.474  10.345 -0.4585  0.0413  0.4034
  156SAPE    HB17363   5.018   5.430  10.265 -0.7637  1.6943 -0.9302
  156SAPE    C217364   5.144   5.557  10.151 -0.0502  0.2104  0.5285
  156SAPE    HS17365   5.236   5.616  10.173  0.5041 -1.2839  2.5799
  156SAPE   O2117366   5.046   5.634  10.085  0.6194  0.3186  0.4300
  156SAPE   C2117367   5.096   5.722   9.984  0.4038 -0.0196 -0.7909
  156SAPE   O2217368   5.209   5.769   9.987  0.4404  0.0268  0.8368
  156SAPE   C2217369   4.992   5.736   9.877  0.1690  0.1800 -0.1851
  156SAPE   H2R17370   4.912   5.660   9.889  0.0200  0.6792  2.4647
  156SAPE   H2S17371   4.945   5.835   9.896  1.4371  0.5892  0.9932
  156SAPE    C317372   5.192   5.437  10.065 -0.1525  0.6168 -0.5021
  156SAPE    HX17373   5.099   5.378  10.050  0.1136  0.4364 -1.4507
  156SAPE    HY17374   5.252   5.366  10.125 -2.3578 -1.5911 -0.7609
  156SAPE   O3117375   5.249   5.452   9.938  0.1541 -0.0285 -0.9692
  156SAPE   C3117376   5.374   5.493   9.940  0.2540 -0.5883  0.0435
  156SAPE   O3217377   5.440   5.511  10.042  0.1244 -0.5262  0.0053
  156SAPE   C3217378   5.436   5.511   9.797  0.1020  0.0020  0.5733
  156SAPE   H2X17379   5.437   5.620   9.774 -2.6220 -0.5055 -2.6379
  156SAPE   H2Y17380   5.381   5.461   9.715 -0.0567  1.4573 -0.2287
  156SAPE   C2317381   5.041   5.735   9.726  0.3666  0.1458  0.1374
  156SAPE   H3R17382   5.111   5.650   9.716 -1.9611 -1.7056 -1.1908
  156SAPE   H3S17383   5.106   5.825   9.714 -0.4044  0.8349  0.9576
  156SAPE   C2417384   4.928   5.724   9.621 -0.1979 -0.2620  0.4462
  156SAPE   H4R17385   4.869   5.818   9.627 -2.0115 -1.2227 -1.1814
  156SAPE   H4S17386   4.862   5.637   9.643 -1.2843  0.0315 -1.4422
  156SAPE   C2517387   4.979   5.715   9.484 -0.4678 -0.0523  0.4303
  156SAPE   H5R17388   5.088   5.707   9.478 -0.5857 -1.1781 -0.7439
  156SAPE   C2617389   4.909   5.701   9.370  0.1826  0.9691 -0.0282
  156SAPE   H6R17390   4.966   5.700   9.276 -2.4503 -0.6276 -1.7465
  156SAPE   C2717391   4.762   5.685   9.343  0.3716  0.1318  0.8798
  156SAPE   H7R17392   4.700   5.686   9.435 -0.0149  1.2525  0.6224
  156SAPE   H7S17393   4.748   5.580   9.308  0.2733  0.6303 -0.6587
  156SAPE   C2817394   4.713   5.783   9.248 -0.1578 -0.4570 -0.0575
  156SAPE   H8R17395   4.676   5.877   9.290  0.4425  0.6493 -1.9005
  156SAPE   C2917396   4.687   5.769   9.118  0.1791 -0.2883  0.3076
  156SAPE   H9R17397   4.658   5.862   9.068  0.1858  0.6514  1.9871
  156SAPE  C21017398   4.710   5.644   9.034 -0.0860  0.4381 -0.4880
  156SAPE  H10R17399   4.653   5.566   9.089  0.2227  0.5327 -0.0254
  156SAPE  H10S17400   4.817   5.613   9.038 -0.1581  0.2521  0.4549
  156SAPE  C21117401   4.658   5.642   8.896  0.4746 -0.0510 -0.4461
  156SAPE  H11R17402   4.553   5.611   8.888  0.7984 -1.1490 -0.5127
  156SAPE  C21217403   4.730   5.681   8.795 -0.2874 -0.0013  0.9169
  156SAPE  H12R17404   4.700   5.657   8.692  0.5183 -2.3692  1.1808
  156SAPE  C21317405   4.872   5.741   8.805  0.0192  0.6599 -0.5837
  156SAPE  H13R17406   4.898   5.780   8.906  0.9440  1.7764 -1.2236
  156SAPE  H13S17407   4.881   5.831   8.739 -1.1942  2.3937  1.4866
  156SAPE  C21417408   4.978   5.636   8.773 -0.6299  1.0074  0.3176
  156SAPE  H14R17409   5.035   5.597   8.858  1.7594  0.6781 -1.3111
  156SAPE  C21517410   5.018   5.597   8.645 -0.0455 -0.0615 -0.3508
  156SAPE  H15R17411   5.103   5.528   8.633  0.1739  0.3392 -1.1679
  156SAPE  C21617412   4.951   5.641   8.519 -0.4490  1.4139  0.7346
  156SAPE  H16R17413   4.846   5.676   8.528 -1.2510 -0.2298 -1.5401
  156SAPE  H16S17414   4.951   5.557   8.446  0.5422  1.2628  0.8903
  156SAPE  C21717415   5.033   5.747   8.446  0.3628  0.5213  0.5689
  156SAPE  H17R17416   5.138   5.716   8.432  0.0677 -0.7677  1.0649
  156SAPE  H17S17417   5.035   5.841   8.505  1.3605  0.8915 -0.0308
  156SAPE  C21817418   4.971   5.787   8.308 -0.5838 -0.6154  0.4799
  156SAPE  H18R17419   4.970   5.697   8.243  1.2287  0.9777 -1.9553
  156SAPE  H18S17420   5.036   5.862   8.256  0.4038 -1.0806  1.0097
  156SAPE  C21917421   4.830   5.850   8.336 -0.4281 -0.3652  0.1473
  156SAPE  H19R17422   4.856   5.927   8.411  2.2802 -2.1036  1.1158
  156SAPE  H19S17423   4.767   5.765   8.371  1.1172 -1.8800 -0.5824
  156SAPE  C22017424   4.767   5.915   8.211 -0.5409  0.4253 -0.2073
  156SAPE  H20R17425   4.836   5.979   8.152 -1.3394  0.9946 -0.5350
  156SAPE  H20S17426   4.676   5.974   8.232 -1.3513 -0.6075 -0.7128
  156SAPE  H20T17427   4.726   5.836   8.143 -2.3156 -0.2674  1.5794
  156SAPE   C3317428   5.578   5.458   9.779 -0.0831  1.1510  0.4192
  156SAPE   H3X17429   5.571   5.347   9.776  2.1588  0.9437  0.9691
  156SAPE   H3Y17430   5.648   5.500   9.855  0.6873  1.5603 -0.4881
  156SAPE   C3417431   5.635   5.483   9.637 -0.6404 -0.1897  0.1273
  156SAPE   H4X17432   5.632   5.594   9.632  1.9702  0.0224  1.6087
  156SAPE   H4Y17433   5.556   5.440   9.573 -0.8632 -0.7360  0.7590
  156SAPE   C3517434   5.770   5.420   9.627 -0.3283 -0.3060  0.3376
  156SAPE   H5X17435   5.776   5.312   9.652 -0.3109 -0.0538  1.4533
  156SAPE   H5Y17436   5.833   5.467   9.706  0.0358  1.3545 -0.8842
  156SAPE   C3617437   5.821   5.444   9.480  0.3100 -0.5919 -0.7347
  156SAPE   H6X17438   5.932   5.443   9.489  0.2506  1.3787  1.1091
  156SAPE   H6Y17439   5.784   5.548   9.470 -1.7336 -1.1631  0.3737
  156SAPE   C3717440   5.756   5.354   9.374  0.2540 -0.8015 -0.1306
  156SAPE   H7X17441   5.645   5.361   9.376  0.2076 -1.1608 -1.0071
  156SAPE   H7Y17442   5.783   5.247   9.388 -0.2441 -1.0684 -1.1177
  156SAPE   C3817443   5.795   5.397   9.232 -0.6061  0.2728  0.3184
  156SAPE   H8X17444   5.903   5.418   9.219 -0.7381  2.0927  1.6166
  156SAPE   H8Y17445   5.746   5.496   9.220 -0.1588  0.3990 -0.4998
  156SAPE   C3917446   5.747   5.290   9.131  0.1722 -0.9378 -0.2944
  156SAPE   H9X17447   5.636   5.284   9.130 -0.0957  0.9886  3.1837
  156SAPE   H9Y17448   5.793   5.191   9.153  0.3353 -0.6126  0.9176
  156SAPE  C31017449   5.794   5.337   8.992  0.2929 -0.7805  0.0008
  156SAPE  H10X17450   5.903   5.358   8.995  0.3113 -0.7124 -0.7957
  156SAPE  H10Y17451   5.736   5.427   8.961  1.0033 -0.8493 -1.6521
  156SAPE  C31117452   5.757   5.221   8.885 -0.3285 -0.1167  0.0465
  156SAPE  H11X17453   5.651   5.190   8.897 -0.1030 -0.0085  3.1287
  156SAPE  H11Y17454   5.812   5.130   8.920 -2.6759 -1.2867  0.8845
  156SAPE  C31217455   5.793   5.244   8.737  1.1274 -0.6276 -0.0762
  156SAPE  H12X17456   5.900   5.270   8.726  0.9584  0.1056 -0.0147
  156SAPE  H12Y17457   5.730   5.330   8.705  1.2419 -0.1137  1.0321
  156SAPE  C31317458   5.753   5.123   8.652 -0.0544 -0.4262  0.1098
  156SAPE  H13X17459   5.827   5.043   8.675  0.9917  0.1799 -1.0679
  156SAPE  H13Y17460   5.770   5.147   8.545 -2.0848 -1.4963 -0.4931
  156SAPE  C31417461   5.603   5.061   8.655 -0.3553  0.3354 -0.2809
  156SAPE  H14X17462   5.534   5.137   8.611 -2.3857 -1.8410 -1.0833
  156SAPE  H14Y17463   5.576   5.044   8.761  1.0723 -1.5831 -0.1874
  156SAPE  C31517464   5.576   4.920   8.593 -0.5512 -0.3951  0.0081
  156SAPE  H15X17465   5.632   4.842   8.648 -0.7681 -0.6356 -0.1119
  156SAPE  H15Y17466   5.618   4.919   8.490 -2.2000  0.1918 -0.7071
  156SAPE  C31617467   5.424   4.892   8.582 -0.1603  0.1866 -0.0945
  156SAPE  H16X17468   5.367   4.972   8.528 -0.7385 -0.4597 -0.4572
  156SAPE  H16Y17469   5.384   4.898   8.685 -0.9871  0.4984 -0.4191
  156SAPE  C31717470   5.398   4.753   8.513 -0.5867  0.0418 -0.4873
  156SAPE  H17X17471   5.296   4.713   8.529  0.0991 -1.5622  0.0963
  156SAPE  H17Y17472   5.469   4.685   8.565 -0.6405 -0.5396 -1.1669
  156SAPE  C31817473   5.424   4.747   8.365  0.6462 -0.1926 -0.0485
  156SAPE  H18X17474   5.362   4.814   8.302  0.1658 -0.5449  0.0408
  156SAPE  H18Y17475   5.381   4.649   8.336  0.4400  0.6826 -3.0162
  156SAPE  H18Z17476   5.532   4.742   8.340  0.4485 -4.6585 -0.8459
  157SAPE     N17477   3.840   5.856  10.635 -0.0162 -0.9507  0.3636
  157SAPE   HN117478   3.894   5.939  10.602 -1.9649  0.2609  0.0504
  157SAPE   HN217479   3.842   5.782  10.562  1.5324 -0.5313 -0.0612
  157SAPE   HN317480   3.740   5.879  10.653 -0.0081  0.3596 -1.0250
  157SAPE   C1217481   3.905   5.803  10.758 -0.0707  0.0883  0.3111
  157SAPE  H12A17482   3.833   5.729  10.800 -0.4671  0.1813 -0.2076
  157SAPE  H12B17483   3.943   5.890  10.816  1.9680 -0.6842  0.2268
  157SAPE   C1117484   4.039   5.731  10.727  0.9414 -0.0597 -0.5193
  157SAPE  H11A17485   4.080   5.709  10.828 -0.2993 -0.3995 -0.0686
  157SAPE  H11B17486   4.109   5.806  10.685  0.5992  0.8635  0.4974
  157SAPE     P17487   3.984   5.478  10.699  0.0531 -0.2766  0.2411
  157SAPE   O1317488   4.083   5.421  10.787 -0.0878 -0.2249  0.0779
  157SAPE   O1417489   3.854   5.484  10.765 -0.2838  0.2783 -0.1704
  157SAPE   O1217490   4.028   5.625  10.638  0.0036  0.5966 -0.1678
  157SAPE   O1117491   3.967   5.398  10.566 -0.7561 -0.1656 -0.3058
  157SAPE    C117492   4.055   5.396  10.456  0.1617 -0.1085 -0.8125
  157SAPE    HA17493   4.089   5.498  10.428 -0.2876  0.5416  0.9413
  157SAPE    HB17494   4.144   5.330  10.469  0.0995 -0.4055 -1.7960
  157SAPE    C217495   3.980   5.348  10.335  0.0976  0.4252 -0.4696
  157SAPE    HS17496   4.039   5.271  10.279 -1.7165 -1.3096 -0.1019
  157SAPE   O2117497   3.932   5.458  10.256  0.1115  0.4225 -0.3770
  157SAPE   C2117498   3.958   5.463  10.131 -0.6539 -0.1652 -0.1269
  157SAPE   O2217499   4.036   5.398  10.068 -0.1607 -0.1799  0.1073
  157SAPE   C2217500   3.863   5.569  10.076 -0.0528 -0.7697 -0.4644
  157SAPE   H2R17501   3.785   5.589  10.152  0.8708 -0.2063  0.3511
  157SAPE   H2S17502   3.922   5.662  10.057  0.2572 -1.0700 -0.9984
  157SAPE    C317503   3.856   5.264  10.374  0.2366  0.3014 -0.5370
  157SAPE    HX17504   3.777   5.328  10.419  0.2148  0.3618 -0.6614
  157SAPE    HY17505   3.886   5.185  10.447  0.4556  2.4446  1.8378
  157SAPE   O3117506   3.806   5.210  10.250  0.1793 -0.4248  0.3220
  157SAPE   C3117507   3.825   5.086  10.211 -0.3770 -0.0444  0.0680
  157SAPE   O3217508   3.902   5.010  10.270  0.0241  0.3323 -0.1836
  157SAPE   C3217509   3.750   5.049  10.084 -0.2795  0.5750 -0.2614
  157SAPE   H2X17510   3.706   5.136  10.032 -0.4657 -0.6103 -2.1831
  157SAPE   H2Y17511   3.674   4.972  10.111  0.4641  0.8655  3.0592
  157SAPE   C2317512   3.813   5.516   9.939  0.2471  0.2067  0.2361
  157SAPE   H3R17513   3.726   5.448   9.935  0.9207 -0.6288 -0.7224
  157SAPE   H3S17514   3.901   5.470   9.890 -0.4004 -0.2193 -0.5422
  157SAPE   C2417515   3.782   5.636   9.849 -0.5924 -0.0087  0.1610
  157SAPE   H4R17516   3.757   5.597   9.748 -2.2720  1.6824 -0.1264
  157SAPE   H4S17517   3.875   5.697   9.840 -0.4542 -0.0865  1.0090
  157SAPE   C2517518   3.671   5.723   9.892  0.1133 -0.1472  0.0867
  157SAPE   H5R17519   3.587   5.657   9.919  1.5324 -1.7851  0.6589
  157SAPE   C2617520   3.664   5.858   9.909  0.2793  0.0269  0.4015
  157SAPE   H6R17521   3.570   5.909   9.932  0.5287  0.3123  0.8037
  157SAPE   C2717522   3.776   5.957   9.889  0.0710 -0.0541 -0.9274
  157SAPE   H7R17523   3.736   6.055   9.857  0.9046  1.0033  1.0844
  157SAPE   H7S17524   3.844   5.920   9.809 -0.2165 -0.0830 -1.1593
  157SAPE   C2817525   3.853   5.987  10.015 -0.3529 -0.5668 -0.0353
  157SAPE   H8R17526   3.811   5.974  10.116  2.2446 -0.0266  1.1863
  157SAPE   C2917527   3.978   6.026  10.012 -0.7904  0.6112  0.1483
  157SAPE   H9R17528   4.035   6.023  10.106  1.9713  1.0515 -1.4031
  157SAPE  C21017529   4.069   6.036   9.893 -0.7623  0.3505  0.5333
  157SAPE  H10R17530   4.011   6.043   9.799  0.7874 -0.0705 -0.4914
  157SAPE  H10S17531   4.127   5.941   9.895  0.5206  1.0610  4.0430
  157SAPE  C21117532   4.161   6.154   9.893 -0.0911 -0.1173 -0.6107
  157SAPE  H11R17533   4.142   6.217   9.981 -0.7852 -1.7031  0.4070
  157SAPE  C21217534   4.266   6.177   9.820  1.0840  0.0318 -0.1296
  157SAPE  H12R17535   4.327   6.266   9.839  1.4870 -0.5676  1.6109
  157SAPE  C21317536   4.301   6.103   9.692  0.1250 -0.3655 -0.2399
  157SAPE  H13R17537   4.288   6.175   9.609  0.7085 -1.5725 -1.4175
  157SAPE  H13S17538   4.236   6.021   9.654  0.1387 -1.0779  1.1692
  157SAPE  C21417539   4.437   6.048   9.684 -0.5697 -0.4929  0.0023
  157SAPE  H14R17540   4.451   5.961   9.749 -0.9075  0.3025  1.1830
  157SAPE  C21517541   4.536   6.099   9.608 -0.2213 -0.4242 -1.3724
  157SAPE  H15R17542   4.640   6.064   9.603  0.2666  0.8795 -0.9695
  157SAPE  C21617543   4.521   6.227   9.532  0.1797  0.8752  0.2698
  157SAPE  H16R17544   4.622   6.268   9.511  0.7914 -0.6731  0.0681
  157SAPE  H16S17545   4.463   6.309   9.580 -0.4089  0.0224  1.0527
  157SAPE  C21717546   4.460   6.199   9.387 -0.1478  0.7493 -0.0745
  157SAPE  H17R17547   4.412   6.293   9.353  0.1617  0.4042 -1.5722
  157SAPE  H17S17548   4.377   6.126   9.385  0.6884 -0.2338 -1.4343
  157SAPE  C21817549   4.567   6.175   9.276  0.0952 -0.0687  0.1615
  157SAPE  H18R17550   4.619   6.078   9.292 -0.4804 -0.5165 -0.6291
  157SAPE  H18S17551   4.644   6.255   9.288 -1.2185  0.9724  2.1895
  157SAPE  C21917552   4.530   6.182   9.126 -0.3989 -0.1638  0.6363
  157SAPE  H19R17553   4.625   6.186   9.069 -1.5970  3.0135 -1.4094
  157SAPE  H19S17554   4.481   6.281   9.121 -1.2923 -0.6182 -0.0486
  157SAPE  C22017555   4.436   6.072   9.073  0.2127  0.1720  0.6425
  157SAPE  H20R17556   4.413   6.086   8.965 -2.0406  0.1971  1.0604
  157SAPE  H20S17557   4.340   6.067   9.129  1.3354  1.8385  2.8524
  157SAPE  H20T17558   4.486   5.973   9.077 -2.8861 -1.5121  0.8769
  157SAPE   C3317559   3.851   5.007   9.968 -0.6868  0.3675  0.0208
  157SAPE   H3X17560   3.803   4.966   9.876  2.5126 -2.9203 -0.3926
  157SAPE   H3Y17561   3.904   4.920  10.012 -3.0449 -1.4800 -0.5823
  157SAPE   C3417562   3.951   5.116   9.923 -0.4892  0.0395 -0.3872
  157SAPE   H4X17563   4.015   5.136  10.012 -1.5980  0.7205  0.2776
  157SAPE   H4Y17564   3.908   5.216   9.902  2.3345  1.1768 -1.1838
  157SAPE   C3517565   4.043   5.069   9.810 -0.8165  0.2001  0.0271
  157SAPE   H5X17566   4.055   4.961   9.833 -3.5097 -0.3622 -0.8354
  157SAPE   H5Y17567   4.144   5.115   9.800  0.0340 -1.8492 -1.4674
  157SAPE   C3617568   3.987   5.079   9.655 -0.5567  0.5108 -0.2378
  157SAPE   H6X17569   3.905   5.005   9.648  0.8064 -1.4730  2.6293
  157SAPE   H6Y17570   4.071   5.052   9.588  0.1781  3.0587 -0.4476
  157SAPE   C3717571   3.937   5.219   9.626  1.0153 -0.4198 -0.0247
  157SAPE   H7X17572   4.001   5.308   9.642 -0.8751  0.6997  1.8904
  157SAPE   H7Y17573   3.862   5.237   9.707  0.5826 -0.4915 -0.4033
  157SAPE   C3817574   3.862   5.242   9.495 -0.0230 -0.5028  0.0633
  157SAPE   H8X17575   3.796   5.329   9.508  0.3343 -0.2496  0.2074
  157SAPE   H8Y17576   3.792   5.157   9.478 -0.9139  0.4188 -0.9939
  157SAPE   C3917577   3.942   5.262   9.363 -0.0883 -0.0511  0.1617
  157SAPE   H9X17578   4.012   5.177   9.347  0.9033  1.0460 -1.5705
  157SAPE   H9Y17579   3.998   5.358   9.361 -1.6068  1.0457  3.2033
  157SAPE  C31017580   3.853   5.273   9.233 -0.2208  0.1155 -0.3095
  157SAPE  H10X17581   3.796   5.369   9.242  1.2869  1.3931 -3.1710
  157SAPE  H10Y17582   3.783   5.187   9.227 -0.8716  0.6451 -0.4030
  157SAPE  C31117583   3.938   5.270   9.107  1.0222 -0.1322  0.5446
  157SAPE  H11X17584   3.991   5.172   9.110  0.3932 -0.6973 -2.5787
  157SAPE  H11Y17585   4.012   5.353   9.099  2.0994 -1.2111 -1.5049
  157SAPE  C31217586   3.863   5.278   8.976 -0.0042 -0.2432  0.4962
  157SAPE  H12X17587   3.806   5.373   8.980  1.0462  0.3495  2.4219
  157SAPE  H12Y17588   3.777   5.206   8.976  0.6192 -1.2033 -2.9672
  157SAPE  C31317589   3.935   5.267   8.843  0.1446  0.2539  0.0445
  157SAPE  H13X17590   3.984   5.168   8.836  0.6059  0.5100 -0.4590
  157SAPE  H13Y17591   4.024   5.333   8.833  0.4146  0.2116  1.8900
  157SAPE  C31417592   3.838   5.293   8.730 -0.8799  0.0753 -0.1417
  157SAPE  H14X17593   3.812   5.400   8.740  0.0778  0.4380 -1.2635
  157SAPE  H14Y17594   3.748   5.227   8.733 -0.4530 -0.5070  0.1448
  157SAPE  C31517595   3.907   5.275   8.592  0.6706  0.0242 -0.7933
  157SAPE  H15X17596   3.916   5.166   8.573  2.8608  0.0105  0.0575
  157SAPE  H15Y17597   4.010   5.307   8.617  1.5331 -2.7480 -0.5125
  157SAPE  C31617598   3.826   5.321   8.474 -0.1386 -0.0780  0.3437
  157SAPE  H16X17599   3.863   5.274   8.380 -0.0781 -2.5591  1.5207
  157SAPE  H16Y17600   3.856   5.427   8.462 -0.8548  0.1236  0.2518
  157SAPE  C31717601   3.676   5.297   8.476 -0.1547 -0.1050 -1.0047
  157SAPE  H17X17602   3.630   5.333   8.571  0.8771  2.1419 -1.2948
  157SAPE  H17Y17603   3.664   5.187   8.482 -1.5192  0.1042  1.9816
  157SAPE  C31817604   3.602   5.359   8.352  0.1907  0.4040  0.6637
  157SAPE  H18X17605   3.613   5.282   8.272  2.4931 -0.6761  1.9194
  157SAPE  H18Y17606   3.664   5.448   8.329  0.7268 -0.4771 -1.5699
  157SAPE  H18Z17607   3.497   5.387   8.375 -0.4205 -0.6620 -0.6560
  158SAPE     N17608   5.198   6.550  10.506  0.1866  0.1824  0.2195
  158SAPE   HN117609   5.179   6.634  10.447  1.2821  0.8084  0.7317
  158SAPE   HN217610   5.107   6.525  10.549  0.4755  0.9333  1.2837
  158SAPE   HN317611   5.270   6.572  10.577 -0.4579 -0.1773  1.0027
  158SAPE   C1217612   5.239   6.435  10.410 -0.2799 -0.3064  0.3750
  158SAPE  H12A17613   5.325   6.480  10.356 -1.5875  6.2555  2.8236
  158SAPE  H12B17614   5.149   6.412  10.349 -0.0590 -0.0360 -0.0635
  158SAPE   C1117615   5.283   6.311  10.486  0.5328 -0.0434 -0.0565
  158SAPE  H11A17616   5.299   6.237  10.404  2.0463  0.3908 -0.1776
  158SAPE  H11B17617   5.203   6.283  10.558  0.3651 -0.0777 -0.2545
  158SAPE     P17618   5.501   6.228  10.597  0.0621  0.1736  0.2172
  158SAPE   O1317619   5.617   6.285  10.663  0.7590  0.6779  0.0408
  158SAPE   O1417620   5.420   6.133  10.674 -0.3767 -0.0167  0.1658
  158SAPE   O1217621   5.404   6.347  10.555  0.0206 -0.3848 -0.3506
  158SAPE   O1117622   5.540   6.157  10.462 -0.4460  0.0934 -0.5356
  158SAPE    C117623   5.616   6.223  10.362 -0.2800 -0.0343  0.1147
  158SAPE    HA17624   5.567   6.319  10.334 -0.0718 -0.3264 -1.3426
  158SAPE    HB17625   5.716   6.243  10.404 -0.2961  1.4795 -0.4888
  158SAPE    C217626   5.648   6.132  10.240 -0.2977  0.0293  0.3524
  158SAPE    HS17627   5.690   6.181  10.150  0.6662 -0.4209  0.5468
  158SAPE   O2117628   5.537   6.063  10.188  0.8306  0.3915  0.1726
  158SAPE   C2117629   5.442   6.128  10.120  0.1251 -0.5576 -0.3860
  158SAPE   O2217630   5.447   6.249  10.108  0.2443  0.4182 -0.5710
  158SAPE   C2217631   5.347   6.038  10.043 -0.0735 -1.2306 -0.2939
  158SAPE   H2R17632   5.398   5.940  10.033 -0.5779 -1.8305  2.1398
  158SAPE   H2S17633   5.262   6.011  10.110  0.4452 -0.6252  0.6306
  158SAPE    C317634   5.751   6.018  10.271  0.2189  0.0705 -0.3678
  158SAPE    HX17635   5.725   5.957  10.360  0.4858 -0.6824 -0.8006
  158SAPE    HY17636   5.845   6.075  10.283 -0.8826  1.4969  2.2538
  158SAPE   O3117637   5.776   5.936  10.152  0.3628 -0.2042 -0.3376
  158SAPE   C3117638   5.702   5.827  10.136 -0.4840 -0.8039  0.8493
  158SAPE   O3217639   5.622   5.787  10.216  0.5874 -0.5864 -0.2499
  158SAPE   C3217640   5.737   5.760   9.997 -0.5931 -0.3344 -0.6756
  158SAPE   H2X17641   5.652   5.691   9.978 -1.4864  0.0300  1.6063
  158SAPE   H2Y17642   5.830   5.699  10.004  0.8938  1.6287 -2.3047
  158SAPE   C2317643   5.293   6.105   9.917  0.7875  0.3281  0.2149
  158SAPE   H3R17644   5.277   6.213   9.935 -2.7831 -0.1856  0.9005
  158SAPE   H3S17645   5.189   6.068   9.901  0.1308  1.5813  1.3695
  158SAPE   C2417646   5.376   6.088   9.784  0.8231 -0.3970 -0.3239
  158SAPE   H4R17647   5.478   6.129   9.801  1.7421 -2.1220 -1.3617
  158SAPE   H4S17648   5.325   6.159   9.716 -0.0784 -0.0284  0.7027
  158SAPE   C2517649   5.396   5.944   9.746  0.5153  0.2123  0.0389
  158SAPE   H5R17650   5.448   5.878   9.816  1.9565 -0.7913 -1.8793
  158SAPE   C2617651   5.356   5.892   9.625  0.1337 -0.3929  0.0407
  158SAPE   H6R17652   5.368   5.783   9.614 -0.2830 -0.4417  0.0387
  158SAPE   C2717653   5.284   5.964   9.514 -0.3281 -0.1850 -0.5350
  158SAPE   H7R17654   5.221   6.044   9.560  1.1585  0.5631  0.2779
  158SAPE   H7S17655   5.211   5.890   9.477 -0.4333 -1.3543  1.8149
  158SAPE   C2817656   5.374   6.034   9.415 -0.6192 -0.5064  0.2377
  158SAPE   H8R17657   5.395   6.140   9.434 -0.2814 -0.7302  1.1957
  158SAPE   C2917658   5.411   5.975   9.302 -0.3138 -0.0214 -0.2966
  158SAPE   H9R17659   5.494   6.013   9.240  1.3711 -2.0848  0.5921
  158SAPE  C21017660   5.382   5.828   9.257  0.0539  0.1911 -0.3287
  158SAPE  H10R17661   5.361   5.762   9.344 -1.2369  1.7161  0.5940
  158SAPE  H10S17662   5.479   5.796   9.215  1.0902  2.0837  0.4580
  158SAPE  C21117663   5.268   5.809   9.155  0.4502  0.0535 -0.1239
  158SAPE  H11R17664   5.182   5.875   9.174  0.2583 -0.6343  1.5756
  158SAPE  C21217665   5.255   5.706   9.067 -0.2769  0.1519 -0.0373
  158SAPE  H12R17666   5.169   5.707   8.998  0.4662 -0.0600 -0.9943
  158SAPE  C21317667   5.341   5.581   9.042  0.0783  0.3591  0.1017
  158SAPE  H13R17668   5.298   5.494   9.096 -1.9124  0.1179 -1.7125
  158SAPE  H13S17669   5.440   5.594   9.090  0.5480  0.5815 -0.8959
  158SAPE  C21417670   5.336   5.558   8.894  0.1427 -0.0057  0.5139
  158SAPE  H14R17671   5.378   5.647   8.844  0.9043  0.1625  1.4259
  158SAPE  C21517672   5.312   5.442   8.827 -0.2193  0.2075  0.4034
  158SAPE  H15R17673   5.303   5.442   8.717 -0.6176 -0.0942  0.4334
  158SAPE  C21617674   5.263   5.317   8.886  0.1065  0.6688  1.0162
  158SAPE  H16R17675   5.178   5.340   8.955 -0.4534 -0.3933  0.6943
  158SAPE  H16S17676   5.347   5.274   8.945  1.2557  1.1458 -0.2290
  158SAPE  C21717677   5.197   5.224   8.782  0.0706  0.1437  0.1675
  158SAPE  H17R17678   5.268   5.181   8.708 -2.0592 -2.4720 -0.4824
  158SAPE  H17S17679   5.121   5.278   8.723  0.2617 -0.7533 -0.9309
  158SAPE  C21817680   5.121   5.103   8.841 -0.5010 -0.3202  0.1570
  158SAPE  H18R17681   5.037   5.148   8.898  0.0616  1.4323 -0.3287
  158SAPE  H18S17682   5.187   5.049   8.912  0.5076 -1.6087 -1.6877
  158SAPE  C21917683   5.074   4.999   8.742 -0.2509 -0.3126  0.3293
  158SAPE  H19R17684   5.162   4.945   8.701  0.3624  0.5801  0.4332
  158SAPE  H19S17685   5.004   5.038   8.665  3.0409  1.5689 -1.9580
  158SAPE  C22017686   5.000   4.889   8.823 -0.7148  0.4865  0.8140
  158SAPE  H20R17687   5.063   4.859   8.910  0.2876 -0.5200 -0.2288
  158SAPE  H20S17688   4.981   4.803   8.756  0.2130  0.0650  1.0642
  158SAPE  H20T17689   4.904   4.932   8.857 -0.4661  0.3597  1.7151
  158SAPE   C3317690   5.762   5.867   9.888  1.2232 -0.6451 -0.1937
  158SAPE   H3X17691   5.855   5.925   9.906  1.0395 -0.3960 -0.0356
  158SAPE   H3Y17692   5.673   5.933   9.878  0.3692 -1.4914  1.4581
  158SAPE   C3417693   5.760   5.796   9.749 -0.0040  0.3672 -0.2597
  158SAPE   H4X17694   5.653   5.788   9.719  0.2891 -0.1106 -1.2113
  158SAPE   H4Y17695   5.803   5.694   9.756  0.6948  0.7422  1.3407
  158SAPE   C3517696   5.823   5.869   9.625  0.6072  0.0922  0.2501
  158SAPE   H5X17697   5.784   5.973   9.619  0.4639 -0.0383 -1.8166
  158SAPE   H5Y17698   5.791   5.812   9.535 -1.6435  0.6394  0.6653
  158SAPE   C3617699   5.980   5.869   9.628  0.4655  0.0915 -0.2606
  158SAPE   H6X17700   6.016   5.926   9.717  1.1455 -0.6429 -0.0528
  158SAPE   H6Y17701   6.017   5.931   9.543 -3.3849  1.6130 -1.0659
  158SAPE   C3717702   6.034   5.731   9.630 -0.1222 -0.3290  0.5223
  158SAPE   H7X17703   5.983   5.655   9.566 -1.6005  0.4533  0.7353
  158SAPE   H7Y17704   6.025   5.701   9.737 -1.4892  1.3772  0.9160
  158SAPE   C3817705   6.194   5.722   9.605  0.4017 -0.2378  1.1184
  158SAPE   H8X17706   6.243   5.638   9.657 -0.4260 -0.5519  1.4130
  158SAPE   H8Y17707   6.233   5.812   9.657 -0.1612  0.9198 -0.3614
  158SAPE   C3917708   6.223   5.742   9.454 -0.0740  0.0317  0.2317
  158SAPE   H9X17709   6.334   5.737   9.444  0.3160  2.2061  2.5820
  158SAPE   H9Y17710   6.192   5.841   9.415  1.8987  0.4671 -0.3431
  158SAPE  C31017711   6.173   5.645   9.349  0.6516 -0.0011 -0.0025
  158SAPE  H10X17712   6.062   5.647   9.355  0.7100 -0.7497  2.5021
  158SAPE  H10Y17713   6.207   5.553   9.402  2.8484  1.3425  1.0295
  158SAPE  C31117714   6.237   5.663   9.212 -0.1344  0.5920 -0.4061
  158SAPE  H11X17715   6.346   5.678   9.227  0.3057  0.0320 -2.6337
  158SAPE  H11Y17716   6.197   5.758   9.172  1.9580  2.4221  1.5716
  158SAPE  C31217717   6.216   5.550   9.109 -0.9856  0.5430  0.8906
  158SAPE  H12X17718   6.110   5.525   9.093 -0.8784 -0.8110  2.0726
  158SAPE  H12Y17719   6.259   5.458   9.154  1.4373  1.0418 -0.1945
  158SAPE  C31317720   6.278   5.589   8.975 -0.3727 -0.3193  0.2488
  158SAPE  H13X17721   6.387   5.599   8.995 -0.0139 -0.0148 -1.6439
  158SAPE  H13Y17722   6.226   5.682   8.942  1.4310  1.0097  0.9910
  158SAPE  C31417723   6.274   5.478   8.867 -0.1044  0.5709 -0.1152
  158SAPE  H14X17724   6.166   5.475   8.844 -0.0519 -0.3904 -0.2727
  158SAPE  H14Y17725   6.306   5.384   8.918 -0.4833 -0.4894 -1.7722
  158SAPE  C31517726   6.362   5.498   8.738 -0.0139  0.5343 -0.3701
  158SAPE  H15X17727   6.464   5.509   8.781 -0.6270  4.3169  0.4757
  158SAPE  H15Y17728   6.325   5.593   8.693 -0.1452  1.2516  1.1646
  158SAPE  C31617729   6.344   5.385   8.636  0.1033 -0.1180 -0.0186
  158SAPE  H16X17730   6.361   5.284   8.680 -1.0730 -0.1304  0.4418
  158SAPE  H16Y17731   6.419   5.411   8.559  0.3424  0.4816  0.4126
  158SAPE  C31717732   6.205   5.393   8.569 -0.5951  0.0914 -0.0724
  158SAPE  H17X17733   6.178   5.494   8.531 -3.0015 -0.8494 -1.0608
  158SAPE  H17Y17734   6.136   5.349   8.644  1.7595 -0.6684  1.7425
  158SAPE  C31817735   6.192   5.314   8.435  0.2568 -0.3040  0.7080
  158SAPE  H18X17736   6.086   5.307   8.404  0.7418 -1.1293 -0.8593
  158SAPE  H18Y17737   6.236   5.214   8.458  1.7653  0.3734  0.8801
  158SAPE  H18Z17738   6.255   5.349   8.351  0.5245  0.0789  1.0642
  159SAPE     N17739   4.605   3.496   6.188 -0.1433 -0.1920 -0.2599
  159SAPE   HN117740   4.617   3.488   6.085 -0.9413 -0.2945 -0.3535
  159SAPE   HN217741   4.637   3.403   6.223  1.8773 -0.1252 -1.7584
  159SAPE   HN317742   4.505   3.506   6.214 -0.1779 -0.6807 -0.1830
  159SAPE   C1217743   4.686   3.606   6.244 -0.4099  0.2080  0.3515
  159SAPE  H12A17744   4.646   3.704   6.210 -1.4344 -0.1447  0.5124
  159SAPE  H12B17745   4.787   3.608   6.198 -0.6113  0.1164 -0.0995
  159SAPE   C1117746   4.698   3.601   6.396 -0.2975 -0.4732  0.1997
  159SAPE  H11A17747   4.599   3.607   6.446  0.3322  0.2773  1.4061
  159SAPE  H11B17748   4.752   3.692   6.431 -1.4791  0.6755 -0.8471
  159SAPE     P17749   4.910   3.496   6.499  0.0425 -0.0231 -0.1658
  159SAPE   O1317750   4.974   3.368   6.507 -0.7479  0.6063  0.0725
  159SAPE   O1417751   4.984   3.587   6.406  0.4422 -0.3958  0.2903
  159SAPE   O1217752   4.762   3.480   6.441 -0.4386  0.0900 -0.3319
  159SAPE   O1117753   4.899   3.563   6.641  0.5321  0.0288 -0.6318
  159SAPE    C117754   4.822   3.513   6.748 -0.6650 -0.4703 -0.6273
  159SAPE    HA17755   4.781   3.600   6.803 -0.2159 -0.3737 -0.4390
  159SAPE    HB17756   4.740   3.444   6.717 -1.4140  0.4826 -0.8115
  159SAPE    C217757   4.907   3.432   6.843  0.3642 -0.0253 -0.2395
  159SAPE    HS17758   4.951   3.344   6.792 -0.8694  0.2152 -1.8016
  159SAPE   O2117759   4.834   3.395   6.957 -0.0043  0.1123 -0.3727
  159SAPE   C2117760   4.734   3.304   6.938 -0.7212  0.7670 -0.8950
  159SAPE   O2217761   4.718   3.245   6.837  0.2345  0.2996  0.2708
  159SAPE   C2217762   4.659   3.294   7.073  0.0818  0.7343 -0.0339
  159SAPE   H2R17763   4.564   3.245   7.043 -1.1114  2.4337  0.7528
  159SAPE   H2S17764   4.727   3.229   7.132  1.7569 -1.2040 -3.7339
  159SAPE    C317765   5.044   3.507   6.891  0.2154 -0.0513 -0.2421
  159SAPE    HX17766   5.012   3.605   6.931  0.0945 -0.2382  0.1157
  159SAPE    HY17767   5.100   3.531   6.798 -1.2674 -2.3058 -1.8155
  159SAPE   O3117768   5.116   3.441   6.999  0.0061 -0.1186 -0.6185
  159SAPE   C3117769   5.189   3.341   6.961 -0.2107 -0.2918 -0.8775
  159SAPE   O3217770   5.189   3.292   6.849  0.3083  0.4692 -0.2086
  159SAPE   C3217771   5.281   3.288   7.074  0.1208  0.4495 -0.3100
  159SAPE   H2X17772   5.389   3.302   7.051  0.9044 -0.0463  2.6621
  159SAPE   H2Y17773   5.260   3.178   7.075  0.7581  0.3136 -1.1848
  159SAPE   C2317774   4.631   3.429   7.139  0.0457 -0.4389 -0.6641
  159SAPE   H3R17775   4.592   3.503   7.065 -0.8741  0.4451  0.6706
  159SAPE   H3S17776   4.728   3.463   7.183  0.4013 -2.2931  0.0707
  159SAPE   C2417777   4.516   3.410   7.244 -0.1477 -0.0780 -0.1834
  159SAPE   H4R17778   4.544   3.335   7.321  1.5860  0.3047 -0.4203
  159SAPE   H4S17779   4.430   3.366   7.188 -0.6647  1.4981 -0.7038
  159SAPE   C2517780   4.475   3.544   7.307 -0.4868 -0.3854  0.1552
  159SAPE   H5R17781   4.436   3.616   7.234 -2.2211 -1.5875 -0.1690
  159SAPE   C2617782   4.486   3.574   7.435  0.5971 -0.2887 -0.2192
  159SAPE   H6R17783   4.445   3.664   7.482  0.4471 -1.0547  1.1837
  159SAPE   C2717784   4.532   3.478   7.544  0.7355 -0.5009  0.1586
  159SAPE   H7R17785   4.603   3.406   7.499  2.6457  0.8339  0.9294
  159SAPE   H7S17786   4.448   3.424   7.594  0.5976 -0.9605 -0.5500
  159SAPE   C2817787   4.623   3.543   7.649  0.2414  0.4150  0.2811
  159SAPE   H8R17788   4.706   3.600   7.604 -0.8527  0.0025 -2.4043
  159SAPE   C2917789   4.624   3.524   7.785 -0.5107  0.0859  0.8408
  159SAPE   H9R17790   4.699   3.572   7.849 -0.1731 -0.5883  0.9677
  159SAPE  C21017791   4.535   3.426   7.855  0.4863 -1.0387 -0.4687
  159SAPE  H10R17792   4.578   3.382   7.948  0.3735  1.7928  1.0567
  159SAPE  H10S17793   4.511   3.342   7.787 -0.4170 -0.9126 -0.3285
  159SAPE  C21117794   4.410   3.500   7.907 -0.0224 -0.0464 -0.4283
  159SAPE  H11R17795   4.328   3.511   7.834 -0.2734 -0.8652 -0.2806
  159SAPE  C21217796   4.383   3.548   8.036  0.2381 -0.5826 -0.1847
  159SAPE  H12R17797   4.293   3.609   8.052  0.6852  0.4224 -1.2921
  159SAPE  C21317798   4.482   3.525   8.147 -0.0766 -0.7055 -0.3347
  159SAPE  H13R17799   4.582   3.500   8.106  1.0992 -1.0850  2.5248
  159SAPE  H13S17800   4.448   3.438   8.208 -1.4536 -0.8850 -1.3141
  159SAPE  C21417801   4.496   3.646   8.237  0.4844 -0.5695  0.2051
  159SAPE  H14R17802   4.397   3.690   8.257  0.0438 -0.6078 -1.6865
  159SAPE  C21517803   4.604   3.698   8.299 -0.0249  0.2683  0.0733
  159SAPE  H15R17804   4.593   3.793   8.353  0.5209 -0.0779  0.8149
  159SAPE  C21617805   4.751   3.650   8.285  0.2589  0.1607 -0.1380
  159SAPE  H16R17806   4.803   3.747   8.271 -3.7981  2.5499 -0.0083
  159SAPE  H16S17807   4.770   3.586   8.196  2.3228  0.9674 -0.3259
  159SAPE  C21717808   4.789   3.577   8.414  0.1859  0.0321  0.2351
  159SAPE  H17R17809   4.801   3.649   8.498  0.0797  0.0527  0.2318
  159SAPE  H17S17810   4.887   3.529   8.393 -0.7246 -1.1886 -1.5125
  159SAPE  C21817811   4.693   3.459   8.447 -0.6899 -0.7263 -0.4434
  159SAPE  H18R17812   4.675   3.405   8.351  1.1150 -0.2357 -1.1006
  159SAPE  H18S17813   4.597   3.493   8.490 -1.4978 -2.7262 -0.5574
  159SAPE  C21917814   4.741   3.357   8.556 -0.3992 -0.5601 -0.5397
  159SAPE  H19R17815   4.836   3.312   8.519 -1.2943 -1.7536 -1.4472
  159SAPE  H19S17816   4.673   3.270   8.552 -2.0015  0.5891 -4.9741
  159SAPE  C22017817   4.760   3.429   8.692 -0.3431 -0.5199  0.4923
  159SAPE  H20R17818   4.789   3.352   8.767  0.4702 -2.8555 -2.0664
  159SAPE  H20S17819   4.660   3.470   8.716 -0.7346 -1.1823 -0.0137
  159SAPE  H20T17820   4.827   3.517   8.676 -1.8257  0.7820  1.1738
  159SAPE   C3317821   5.237   3.331   7.216  0.1951 -0.6834 -0.1905
  159SAPE   H3X17822   5.126   3.328   7.223 -0.0309  1.7248 -1.7511
  159SAPE   H3Y17823   5.262   3.438   7.235  1.7360 -1.2079  1.0029
  159SAPE   C3417824   5.291   3.244   7.336  0.0303  0.2960  0.6508
  159SAPE   H4X17825   5.298   3.140   7.299  0.3916  1.3978 -2.8262
  159SAPE   H4Y17826   5.218   3.258   7.418  0.6130 -0.2764  1.2802
  159SAPE   C3517827   5.442   3.292   7.356  1.1784 -0.2342 -0.1006
  159SAPE   H5X17828   5.430   3.401   7.375  1.3858  0.3559 -2.9386
  159SAPE   H5Y17829   5.495   3.272   7.261 -1.1471  0.5024 -1.6536
  159SAPE   C3617830   5.495   3.220   7.475 -0.8318 -0.4679 -0.5440
  159SAPE   H6X17831   5.604   3.243   7.476  0.1237 -4.2765  1.3382
  159SAPE   H6Y17832   5.492   3.109   7.469 -0.0847 -0.5677  0.6081
  159SAPE   C3717833   5.441   3.269   7.608 -0.5933  0.4686  0.6890
  159SAPE   H7X17834   5.330   3.275   7.610 -0.6006  0.9724 -0.6662
  159SAPE   H7Y17835   5.484   3.370   7.626  2.5414 -0.1810 -2.1498
  159SAPE   C3817836   5.478   3.174   7.718  0.1804  0.0900  0.3016
  159SAPE   H8X17837   5.479   3.069   7.682  1.5410  0.5147 -0.9978
  159SAPE   H8Y17838   5.415   3.196   7.807 -0.0990  0.0999  0.1006
  159SAPE   C3917839   5.627   3.203   7.765  0.0050  0.3239  0.9477
  159SAPE   H9X17840   5.646   3.312   7.766 -1.5427  0.6123  1.5772
  159SAPE   H9Y17841   5.696   3.158   7.690 -0.3046  1.3123  0.0386
  159SAPE  C31017842   5.668   3.153   7.902  0.0255  1.3099 -0.0094
  159SAPE  H10X17843   5.588   3.182   7.973  0.1973  0.3622  0.5920
  159SAPE  H10Y17844   5.754   3.207   7.947  0.4584  0.6730 -0.0489
  159SAPE  C31117845   5.684   3.001   7.912 -0.3801 -0.0042  0.2014
  159SAPE  H11X17846   5.772   2.968   7.853 -1.0559  0.4364 -1.0815
  159SAPE  H11Y17847   5.592   2.951   7.876  1.0730 -0.6278 -2.9311
  159SAPE  C31217848   5.707   2.955   8.061  0.2977  0.8028 -0.1874
  159SAPE  H12X17849   5.755   3.034   8.123 -2.3714  1.4670  1.1645
  159SAPE  H12Y17850   5.763   2.859   8.051 -2.0194 -0.5390 -0.9995
  159SAPE  C31317851   5.574   2.930   8.137 -1.2827  0.2845  0.1632
  159SAPE  H13X17852   5.512   2.860   8.077 -0.0983  0.3420 -1.1967
  159SAPE  H13Y17853   5.524   3.028   8.150 -1.0241  0.3747  0.4861
  159SAPE  C31417854   5.594   2.878   8.282  0.3461  0.6048  1.1123
  159SAPE  H14X17855   5.675   2.936   8.331 -0.6621  1.4361  1.8207
  159SAPE  H14Y17856   5.632   2.773   8.283 -0.6797  0.2121  0.3693
  159SAPE  C31517857   5.463   2.890   8.359  0.4746  0.3401 -0.4654
  159SAPE  H15X17858   5.376   2.833   8.318 -0.2961  1.0013  0.2031
  159SAPE  H15Y17859   5.423   2.992   8.375 -1.0001 -0.4209  1.0052
  159SAPE  C31617860   5.471   2.828   8.502  0.1602  0.4416  0.1953
  159SAPE  H16X17861   5.549   2.883   8.559  2.1029 -0.1947 -1.7136
  159SAPE  H16Y17862   5.503   2.723   8.485 -0.8923 -0.1939  1.8787
  159SAPE  C31717863   5.340   2.827   8.577 -0.5912  0.6847  0.4247
  159SAPE  H17X17864   5.265   2.767   8.520 -1.2225 -0.4938  2.4080
  159SAPE  H17Y17865   5.304   2.930   8.596  0.0496  0.7239  1.5331
  159SAPE  C31817866   5.353   2.761   8.715  0.1546 -0.0761  0.5114
  159SAPE  H18X17867   5.403   2.662   8.712 -3.8262 -2.2692 -0.4050
  159SAPE  H18Y17868   5.255   2.766   8.767  0.4077  2.9715  0.9236
  159SAPE  H18Z17869   5.413   2.835   8.773  0.4796  0.8777 -0.9784
  160SAPE     N17870   3.833   3.931   6.663  0.1497 -0.1764 -0.0304
  160SAPE   HN117871   3.887   3.896   6.745 -1.5164 -0.2805  1.0546
  160SAPE   HN217872   3.760   3.861   6.638 -1.1543  1.4641 -1.0098
  160SAPE   HN317873   3.901   3.914   6.586 -1.3141  1.2592 -1.7210
  160SAPE   C1217874   3.773   4.070   6.672 -0.3716  0.3460 -1.0853
  160SAPE  H12A17875   3.847   4.138   6.721 -0.1539  0.2843 -1.3247
  160SAPE  H12B17876   3.681   4.075   6.734 -1.5509  1.9833 -2.8577
  160SAPE   C1117877   3.740   4.119   6.531  0.0958 -0.0180 -0.0490
  160SAPE  H11A17878   3.663   4.046   6.499 -1.0610  0.7902  0.8005
  160SAPE  H11B17879   3.833   4.108   6.471  0.5373  1.7665  0.2412
  160SAPE     P17880   3.776   4.374   6.466  0.1594 -0.0043 -0.3021
  160SAPE   O1317881   3.900   4.374   6.552 -0.1694  0.1345  0.1508
  160SAPE   O1417882   3.799   4.355   6.326 -0.9643  0.2038  0.3072
  160SAPE   O1217883   3.676   4.257   6.521 -0.0556  0.0854  0.0131
  160SAPE   O1117884   3.703   4.509   6.490 -0.2740 -0.1762  0.3154
  160SAPE    C117885   3.755   4.625   6.544 -1.0213 -0.4877  0.0859
  160SAPE    HA17886   3.857   4.639   6.501 -1.4070 -1.3723 -1.1648
  160SAPE    HB17887   3.700   4.715   6.509 -0.6307  0.1151  0.9719
  160SAPE    C217888   3.755   4.628   6.700  0.0832  1.1253  0.3708
  160SAPE    HS17889   3.832   4.555   6.731 -1.5313 -0.3784  1.0081
  160SAPE   O2117890   3.631   4.586   6.744  1.0319  0.3125  0.1798
  160SAPE   C2117891   3.618   4.519   6.857 -0.5252 -0.9446  0.5251
  160SAPE   O2217892   3.716   4.477   6.919 -0.2904 -0.1789  0.1080
  160SAPE   C2217893   3.469   4.505   6.900  0.2419  0.7713 -0.7686
  160SAPE   H2R17894   3.427   4.608   6.906 -0.0721  0.6923 -1.4243
  160SAPE   H2S17895   3.418   4.442   6.824  0.1227 -2.5835  1.8523
  160SAPE    C317896   3.798   4.764   6.743  0.3972 -0.1888 -0.9603
  160SAPE    HX17897   3.730   4.841   6.700  0.8184 -0.4636 -2.1615
  160SAPE    HY17898   3.890   4.811   6.702 -0.7923  1.9807 -1.2943
  160SAPE   O3117899   3.791   4.770   6.891  0.0858 -0.2279  0.7143
  160SAPE   C3117900   3.904   4.737   6.948  0.1207 -0.8439  0.5094
  160SAPE   O3217901   4.008   4.716   6.894 -0.0507 -0.7268  0.2993
  160SAPE   C3217902   3.873   4.740   7.098  0.0177  0.0509  1.0124
  160SAPE   H2X17903   3.785   4.673   7.106 -0.8343  0.8127 -1.2065
  160SAPE   H2Y17904   3.837   4.842   7.123 -2.0347 -0.8916  2.1949
  160SAPE   C2317905   3.459   4.426   7.035  0.6523  0.0408  0.8123
  160SAPE   H3R17906   3.533   4.468   7.106  1.5755  1.5146 -0.9164
  160SAPE   H3S17907   3.500   4.323   7.026  0.7653  0.2551 -2.1915
  160SAPE   C2417908   3.312   4.436   7.088  0.1322 -0.6359  0.0032
  160SAPE   H4R17909   3.235   4.387   7.025 -2.0349  0.8095  1.3503
  160SAPE   H4S17910   3.277   4.542   7.088  0.9754 -0.3510  0.3437
  160SAPE   C2517911   3.289   4.376   7.225 -0.1335  0.0194 -0.2286
  160SAPE   H5R17912   3.262   4.269   7.226 -1.0130  0.2124  1.8488
  160SAPE   C2617913   3.322   4.437   7.342 -0.0383  0.5806  0.0425
  160SAPE   H6R17914   3.313   4.383   7.438  1.8174 -1.9162 -1.0792
  160SAPE   C2717915   3.376   4.574   7.362 -0.0843 -0.0868  0.5386
  160SAPE   H7R17916   3.296   4.607   7.432  1.3237  1.3799  1.5430
  160SAPE   H7S17917   3.377   4.634   7.269  0.2236  2.4745  2.0985
  160SAPE   C2817918   3.516   4.575   7.413 -0.0052  0.6639  0.1553
  160SAPE   H8R17919   3.592   4.566   7.335 -0.5601 -0.4085 -0.2763
  160SAPE   C2917920   3.555   4.571   7.541 -0.4875 -0.0310 -0.8190
  160SAPE   H9R17921   3.659   4.543   7.568 -1.5986 -2.3028  1.6225
  160SAPE  C21017922   3.459   4.590   7.660 -0.5948 -0.2109 -0.2135
  160SAPE  H10R17923   3.389   4.671   7.631 -1.2180 -1.1926 -1.5663
  160SAPE  H10S17924   3.517   4.629   7.746  0.6943 -1.5700 -0.4142
  160SAPE  C21117925   3.388   4.481   7.725 -0.0265 -0.0566 -0.1962
  160SAPE  H11R17926   3.399   4.383   7.677 -1.2182  1.1479 -3.1688
  160SAPE  C21217927   3.334   4.487   7.849  0.8309 -0.2722  0.1879
  160SAPE  H12R17928   3.285   4.400   7.894 -1.0010  1.2015  1.1757
  160SAPE  C21317929   3.316   4.603   7.945 -0.2643 -0.3140 -0.5931
  160SAPE  H13R17930   3.208   4.602   7.971 -0.7014  1.0139 -2.1665
  160SAPE  H13S17931   3.316   4.699   7.890  0.0202 -0.9572 -1.7467
  160SAPE  C21417932   3.417   4.607   8.061  0.6290  0.1695  0.4160
  160SAPE  H14R17933   3.513   4.648   8.026  1.5579 -0.7041  1.8508
  160SAPE  C21517934   3.397   4.578   8.190  0.4108  0.3481  0.3788
  160SAPE  H15R17935   3.481   4.578   8.260  1.4736 -0.2771 -0.8582
  160SAPE  C21617936   3.272   4.519   8.250 -0.0322 -0.4429 -0.3860
  160SAPE  H16R17937   3.176   4.552   8.204  0.0217  0.2192 -0.0336
  160SAPE  H16S17938   3.245   4.560   8.350 -2.7191 -0.4187 -1.0404
  160SAPE  C21717939   3.272   4.368   8.263  0.3861 -0.0362 -0.5609
  160SAPE  H17R17940   3.343   4.321   8.335 -0.4386 -1.6774 -0.7789
  160SAPE  H17S17941   3.288   4.339   8.157  0.7620  1.3174 -0.8955
  160SAPE  C21817942   3.132   4.311   8.306 -0.7915 -0.4774 -1.1717
  160SAPE  H18R17943   3.138   4.205   8.273  0.4691 -0.4089 -1.2289
  160SAPE  H18S17944   3.060   4.358   8.237 -0.6464 -0.3051 -1.2090
  160SAPE  C21917945   3.086   4.341   8.454 -0.5730 -0.6533 -0.6560
  160SAPE  H19R17946   3.039   4.441   8.451 -1.8834 -1.2765 -1.9246
  160SAPE  H19S17947   3.163   4.327   8.533 -0.3484 -4.2414 -1.3439
  160SAPE  C22017948   2.965   4.252   8.497 -0.4540  0.4479  0.1646
  160SAPE  H20R17949   2.890   4.265   8.416  0.1359  2.7914 -0.0650
  160SAPE  H20S17950   2.928   4.276   8.598  2.1427 -0.5246  1.4286
  160SAPE  H20T17951   3.007   4.149   8.498  0.5878  0.8472 -0.3381
  160SAPE   C3317952   3.995   4.705   7.183  0.6096  0.3865  0.3975
  160SAPE   H3X17953   4.076   4.781   7.169 -0.1470  0.9563 -1.2078
  160SAPE   H3Y17954   4.036   4.608   7.148 -2.1042 -0.3438 -0.9791
  160SAPE   C3417955   3.959   4.690   7.328 -0.0281  0.2857 -0.3241
  160SAPE   H4X17956   3.862   4.635   7.337  0.1247  0.0059 -0.3710
  160SAPE   H4Y17957   3.937   4.787   7.378 -0.0918 -0.0332  0.2818
  160SAPE   C3517958   4.064   4.608   7.405  0.0262  0.5056 -0.8718
  160SAPE   H5X17959   4.141   4.676   7.447 -0.3060  0.7642 -0.6817
  160SAPE   H5Y17960   4.116   4.542   7.332  1.5852  2.2654 -1.4414
  160SAPE   C3617961   4.003   4.526   7.526 -0.9660 -0.2699  0.3340
  160SAPE   H6X17962   4.089   4.460   7.551  0.2731  2.2036  3.2729
  160SAPE   H6Y17963   3.910   4.472   7.498 -0.7312 -0.8186  0.5940
  160SAPE   C3717964   3.979   4.612   7.652  0.1839  0.3985  1.2454
  160SAPE   H7X17965   3.898   4.685   7.632  0.6623  0.6340  0.0519
  160SAPE   H7Y17966   4.072   4.670   7.665 -0.5374  2.3371 -1.3540
  160SAPE   C3817967   3.949   4.528   7.776 -0.5810  0.4251 -0.5024
  160SAPE   H8X17968   4.033   4.458   7.795 -1.3026 -0.7215 -1.4313
  160SAPE   H8Y17969   3.856   4.467   7.773 -2.4438  3.1094 -0.5969
  160SAPE   C3917970   3.932   4.617   7.897 -0.0863 -0.4173  0.2137
  160SAPE   H9X17971   3.863   4.575   7.973 -1.3308  2.2733  0.6663
  160SAPE   H9Y17972   3.882   4.711   7.864 -1.0990 -0.6377  1.0661
  160SAPE  C31017973   4.070   4.643   7.964  0.6534  0.3245  0.2147
  160SAPE  H10X17974   4.149   4.686   7.898  0.3825 -0.0922 -0.3838
  160SAPE  H10Y17975   4.102   4.551   8.017 -0.0536  0.0932  0.2396
  160SAPE  C31117976   4.041   4.744   8.074  0.3771  0.1415  0.1331
  160SAPE  H11X17977   3.965   4.702   8.144  1.4381 -0.3856  0.9992
  160SAPE  H11Y17978   4.011   4.842   8.032 -2.2982  0.5050  2.5221
  160SAPE  C31217979   4.162   4.771   8.161 -0.6842  0.7565 -0.3645
  160SAPE  H12X17980   4.261   4.787   8.114 -0.5183  1.7644  0.2937
  160SAPE  H12Y17981   4.176   4.679   8.221 -2.0804 -0.5467 -1.9166
  160SAPE  C31317982   4.135   4.881   8.258  0.4417  0.0558  0.1848
  160SAPE  H13X17983   4.044   4.847   8.313  1.2392 -1.3292  0.7090
  160SAPE  H13Y17984   4.119   4.970   8.195  0.8644  0.1659  0.2292
  160SAPE  C31417985   4.244   4.889   8.368  0.4202 -0.6512  0.0559
  160SAPE  H14X17986   4.340   4.914   8.317  0.4346  0.4256  0.5951
  160SAPE  H14Y17987   4.269   4.792   8.416 -0.5043 -2.3480 -2.6380
  160SAPE  C31517988   4.213   4.989   8.479  0.4365  0.6261 -0.3198
  160SAPE  H15X17989   4.104   4.982   8.499  0.7707 -0.8378  1.2309
  160SAPE  H15Y17990   4.230   5.095   8.451 -0.3280  0.8571  0.0667
  160SAPE  C31617991   4.290   4.955   8.604  0.1484 -0.9256  0.1671
  160SAPE  H16X17992   4.388   5.001   8.581  0.1574 -1.0122  0.0258
  160SAPE  H16Y17993   4.307   4.845   8.611 -2.6580 -1.5988 -1.9779
  160SAPE  C31717994   4.236   5.010   8.731  0.5323 -0.4650 -0.1401
  160SAPE  H17X17995   4.129   4.980   8.734  0.5657 -0.5325  0.3660
  160SAPE  H17Y17996   4.230   5.121   8.725 -0.6722 -0.5620 -1.4754
  160SAPE  C31817997   4.298   4.960   8.865 -0.0301  0.4874  0.6616
  160SAPE  H18X17998   4.253   5.014   8.950  2.8040  0.1258  2.5231
  160SAPE  H18Y17999   4.409   4.968   8.870 -0.0897  0.5635  2.3053
  160SAPE  H18Z18000   4.273   4.852   8.873 -0.4354  0.4081 -1.1515
  161SAPE     N18001   6.237   3.257   6.305 -0.6159 -0.0276  0.1362
  161SAPE   HN118002   6.211   3.283   6.402  0.0360  0.6628  0.1344
  161SAPE   HN218003   6.331   3.297   6.285 -1.2746  1.7711  0.4657
  161SAPE   HN318004   6.166   3.287   6.235  0.3279  0.7720 -0.4965
  161SAPE   C1218005   6.258   3.109   6.302 -0.1479  0.1709 -0.4245
  161SAPE  H12A18006   6.291   3.080   6.404 -2.5894 -0.1892  0.3141
  161SAPE  H12B18007   6.352   3.086   6.247  1.6895  3.2207  1.1705
  161SAPE   C1118008   6.132   3.028   6.268  0.3267 -0.2033  0.2204
  161SAPE  H11A18009   6.101   3.061   6.167 -3.1231 -0.0268  1.2176
  161SAPE  H11B18010   6.054   3.067   6.337 -0.5355  0.4340 -1.0664
  161SAPE     P18011   6.038   2.790   6.311  0.2505  0.0239  0.0776
  161SAPE   O1318012   5.934   2.803   6.206 -0.2411 -0.2719  0.2293
  161SAPE   O1418013   6.098   2.654   6.341 -0.1362  0.0279 -0.4238
  161SAPE   O1218014   6.154   2.890   6.274 -0.2689  0.5674  0.0988
  161SAPE   O1118015   5.977   2.841   6.443 -0.5347  0.3683 -0.1554
  161SAPE    C118016   6.046   2.833   6.569  0.7839 -0.1116  0.3058
  161SAPE    HA18017   6.156   2.836   6.553  0.5195 -0.8044 -2.0574
  161SAPE    HB18018   6.025   2.923   6.629  0.8300 -0.0819  0.2776
  161SAPE    C218019   6.020   2.699   6.642 -0.1916 -0.7229  0.0019
  161SAPE    HS18020   6.034   2.607   6.581 -1.1384 -0.7825 -0.1481
  161SAPE   O2118021   5.881   2.709   6.690  0.0768  0.0357  0.3348
  161SAPE   C2118022   5.789   2.679   6.602  0.1561 -0.6152  0.4107
  161SAPE   O2218023   5.802   2.616   6.500 -0.1803 -0.3925  0.3664
  161SAPE   C2218024   5.652   2.742   6.641  0.4042  0.7209 -0.1818
  161SAPE   H2R18025   5.671   2.806   6.730  1.9722  0.8115 -0.5654
  161SAPE   H2S18026   5.636   2.822   6.566  1.0595  1.5151  0.4994
  161SAPE    C318027   6.110   2.687   6.764  0.0890 -0.6372  0.3029
  161SAPE    HX18028   6.111   2.775   6.831 -0.1592  0.1481 -0.6990
  161SAPE    HY18029   6.211   2.688   6.718 -1.0592 -0.0652 -2.4291
  161SAPE   O3118030   6.080   2.565   6.841  0.4384 -0.3567 -0.1962
  161SAPE   C3118031   6.186   2.510   6.891 -0.7705 -0.4770  0.3209
  161SAPE   O3218032   6.297   2.552   6.893  0.2300 -0.3066 -0.4263
  161SAPE   C3218033   6.139   2.385   6.972 -0.5997 -0.4948 -0.5594
  161SAPE   H2X18034   6.092   2.306   6.910 -2.0393 -1.2409  1.3760
  161SAPE   H2Y18035   6.063   2.419   7.046  0.5085 -3.1736  1.9880
  161SAPE   C2318036   5.538   2.641   6.639  0.5332  0.1414 -0.3285
  161SAPE   H3R18037   5.536   2.593   6.539  0.1037 -3.9446  1.4729
  161SAPE   H3S18038   5.442   2.695   6.653  0.2085 -0.4992 -0.0725
  161SAPE   C2418039   5.544   2.525   6.738 -0.1866 -0.7555 -0.2612
  161SAPE   H4R18040   5.640   2.473   6.719  0.5967  1.0427 -1.5597
  161SAPE   H4S18041   5.467   2.457   6.697  0.1658 -0.0871 -2.1087
  161SAPE   C2518042   5.519   2.565   6.886 -0.3895 -0.0445 -0.3410
  161SAPE   H5R18043   5.417   2.599   6.910 -0.5864 -0.7298 -0.1667
  161SAPE   C2618044   5.608   2.562   6.989  0.5004  0.1324 -0.4809
  161SAPE   H6R18045   5.568   2.583   7.089  1.4448  1.7469 -0.4027
  161SAPE   C2718046   5.756   2.536   6.987  0.2129  0.8010  0.3389
  161SAPE   H7R18047   5.802   2.551   6.886  0.2318  2.9179  0.6027
  161SAPE   H7S18048   5.788   2.433   7.012  1.0982  0.1391 -3.0211
  161SAPE   C2818049   5.837   2.625   7.072 -0.6961 -0.2307  0.2515
  161SAPE   H8R18050   5.863   2.717   7.018 -0.9673  0.2161  0.8668
  161SAPE   C2918051   5.895   2.595   7.186 -0.0896 -0.0850  0.1413
  161SAPE   H9R18052   5.960   2.674   7.227 -0.3092  0.6179 -0.8231
  161SAPE  C21018053   5.883   2.457   7.243 -0.4975 -0.1924 -0.4970
  161SAPE  H10R18054   5.974   2.444   7.305 -1.7670 -1.4258  1.2081
  161SAPE  H10S18055   5.902   2.377   7.169 -2.3932 -0.3620 -0.8498
  161SAPE  C21118056   5.749   2.434   7.316  0.6019 -0.6207 -0.4040
  161SAPE  H11R18057   5.658   2.440   7.254  0.8938 -3.1480 -1.1842
  161SAPE  C21218058   5.750   2.402   7.449  0.4822 -0.4451 -0.1335
  161SAPE  H12R18059   5.653   2.377   7.496  1.5239  0.7358  2.8542
  161SAPE  C21318060   5.858   2.378   7.539 -0.1779 -0.0595  0.4820
  161SAPE  H13R18061   5.827   2.433   7.631 -3.1199  1.4527 -1.2876
  161SAPE  H13S18062   5.954   2.422   7.504  0.9489 -1.4758  1.6480
  161SAPE  C21418063   5.887   2.234   7.559 -0.0388  0.3750 -0.0344
  161SAPE  H14R18064   5.880   2.167   7.472  3.0696  0.1114 -0.2196
  161SAPE  C21518065   5.926   2.179   7.679  0.4851  0.6860  0.4352
  161SAPE  H15R18066   5.933   2.070   7.696  1.5455  0.8510  1.1002
  161SAPE  C21618067   5.934   2.245   7.812  0.0404 -0.8618  0.3412
  161SAPE  H16R18068   5.837   2.268   7.861  0.5732  3.4809 -0.2256
  161SAPE  H16S18069   5.981   2.345   7.800  2.3077 -2.0150 -1.2400
  161SAPE  C21718070   6.024   2.162   7.895  0.7433 -0.0106  0.2792
  161SAPE  H17R18071   6.122   2.160   7.843  0.0757  0.9975 -1.1041
  161SAPE  H17S18072   5.997   2.055   7.887 -0.0627  0.2711 -1.0041
  161SAPE  C21818073   6.045   2.218   8.039 -0.3497  0.1008  0.1914
  161SAPE  H18R18074   5.946   2.227   8.090 -0.7874 -2.7311  0.0156
  161SAPE  H18S18075   6.099   2.312   8.016  0.4769 -0.4656 -0.2097
  161SAPE  C21918076   6.120   2.122   8.129  0.2194 -0.4182 -0.3603
  161SAPE  H19R18077   6.154   2.183   8.216 -0.4602 -1.2569  0.5090
  161SAPE  H19S18078   6.212   2.090   8.074  0.9932  0.2460  0.5058
  161SAPE  C22018079   6.028   2.011   8.176  0.0300  0.2385 -0.7990
  161SAPE  H20R18080   5.990   1.945   8.095 -3.2671 -1.1251  1.6303
  161SAPE  H20S18081   5.937   2.057   8.221 -0.0528  1.1732 -1.8642
  161SAPE  H20T18082   6.079   1.961   8.261 -0.4768  2.1201  0.6945
  161SAPE   C3318083   6.260   2.311   7.047 -0.6528  0.1419 -0.6585
  161SAPE   H3X18084   6.354   2.294   6.990 -0.1384 -1.4741  0.5960
  161SAPE   H3Y18085   6.222   2.211   7.076  1.1811  0.0361  1.6936
  161SAPE   C3418086   6.305   2.390   7.168 -0.3630  0.3455 -0.0722
  161SAPE   H4X18087   6.211   2.397   7.227 -1.3300 -1.3686 -1.2993
  161SAPE   H4Y18088   6.326   2.494   7.136  0.7382  0.2774  0.3875
  161SAPE   C3518089   6.424   2.341   7.255  0.4878 -0.2891 -0.7223
  161SAPE   H5X18090   6.518   2.384   7.214  0.9128 -1.1376 -0.6499
  161SAPE   H5Y18091   6.426   2.230   7.251 -0.1375 -0.4424  1.8079
  161SAPE   C3618092   6.411   2.383   7.402 -0.2582 -0.0301 -0.6442
  161SAPE   H6X18093   6.412   2.493   7.417  0.2794 -0.2731  1.4913
  161SAPE   H6Y18094   6.514   2.372   7.443 -0.2741 -1.2165 -0.8939
  161SAPE   C3718095   6.303   2.308   7.486 -0.0532  0.7504 -0.3339
  161SAPE   H7X18096   6.314   2.197   7.481  3.8423  0.9930 -0.0697
  161SAPE   H7Y18097   6.200   2.324   7.449  0.1590  0.9026 -0.8784
  161SAPE   C3818098   6.310   2.325   7.641 -0.1455  0.4637 -0.0812
  161SAPE   H8X18099   6.249   2.244   7.688  0.3930 -2.3607 -3.8073
  161SAPE   H8Y18100   6.263   2.423   7.665 -1.7379 -0.0392 -1.0482
  161SAPE   C3918101   6.446   2.320   7.718  0.6333  0.4331  0.9491
  161SAPE   H9X18102   6.524   2.392   7.686 -0.2236  1.3394  0.8709
  161SAPE   H9Y18103   6.487   2.217   7.709 -0.3649  0.1195 -0.1474
  161SAPE  C31018104   6.420   2.330   7.873  0.0533  0.7725 -0.0706
  161SAPE  H10X18105   6.365   2.236   7.896  2.1474 -0.2110  1.2552
  161SAPE  H10Y18106   6.355   2.417   7.895 -1.9757 -0.8082  0.5730
  161SAPE  C31118107   6.544   2.325   7.960 -0.1809 -0.3240  0.8722
  161SAPE  H11X18108   6.617   2.390   7.907 -2.6294  2.0961  0.2193
  161SAPE  H11Y18109   6.585   2.223   7.951  0.4786  0.0628 -0.9482
  161SAPE  C31218110   6.516   2.383   8.100 -0.4951  0.3628  0.0143
  161SAPE  H12X18111   6.532   2.493   8.093 -1.6357  0.6568  1.5373
  161SAPE  H12Y18112   6.590   2.346   8.174  0.6922  2.0503 -0.2463
  161SAPE  C31318113   6.375   2.366   8.156  1.0097 -0.1910  0.5303
  161SAPE  H13X18114   6.347   2.259   8.139  0.7068 -0.4004  2.2245
  161SAPE  H13Y18115   6.307   2.434   8.101  0.3475  0.3079  1.9146
  161SAPE  C31418116   6.357   2.386   8.305 -0.3479 -0.1237  0.1612
  161SAPE  H14X18117   6.249   2.395   8.331 -0.4063  2.1323 -0.6382
  161SAPE  H14Y18118   6.407   2.482   8.329  1.4712 -1.1768  0.7382
  161SAPE  C31518119   6.432   2.272   8.376 -1.0164  0.6213 -0.3921
  161SAPE  H15X18120   6.540   2.280   8.354 -0.8222 -2.1813 -0.8257
  161SAPE  H15Y18121   6.411   2.169   8.340  2.8063 -0.5995  0.4026
  161SAPE  C31618122   6.406   2.273   8.524  0.0068  0.3162  0.1325
  161SAPE  H16X18123   6.411   2.378   8.559  0.4952  0.2075  0.3966
  161SAPE  H16Y18124   6.495   2.239   8.581 -1.6918 -0.1583  2.6716
  161SAPE  C31718125   6.272   2.209   8.563  0.0668 -0.0692 -0.0374
  161SAPE  H17X18126   6.285   2.101   8.541 -0.6005 -0.2133  0.2429
  161SAPE  H17Y18127   6.190   2.248   8.499 -1.0693 -0.2398  1.2576
  161SAPE  C31818128   6.220   2.225   8.704  0.3092  0.3937 -0.7058
  161SAPE  H18X18129   6.115   2.189   8.711  0.3849  0.1620 -0.7530
  161SAPE  H18Y18130   6.221   2.330   8.742 -1.7952  1.5295 -3.4848
  161SAPE  H18Z18131   6.294   2.167   8.764 -0.6298  0.8222  0.9305
  162SAPE     N18132   5.224   5.033   6.300 -0.9415 -0.3398 -0.8766
  162SAPE   HN118133   5.156   4.955   6.309 -1.1170  0.0614  2.9052
  162SAPE   HN218134   5.217   5.062   6.200 -0.6404  4.6521  0.2580
  162SAPE   HN318135   5.316   4.988   6.317 -0.9211 -0.2319 -0.7044
  162SAPE   C1218136   5.190   5.161   6.382 -0.1429  0.5011  0.7496
  162SAPE  H12A18137   5.259   5.238   6.341 -0.2742 -0.6177 -1.8021
  162SAPE  H12B18138   5.191   5.142   6.491 -0.7811 -0.6773  0.5622
  162SAPE   C1118139   5.049   5.220   6.352  0.8851  0.0943  0.5747
  162SAPE  H11A18140   5.021   5.320   6.392 -2.9017 -0.0494 -1.2433
  162SAPE  H11B18141   4.975   5.146   6.390 -1.6574  2.8007  1.3318
  162SAPE     P18142   4.883   5.254   6.155 -0.1983  0.3468  0.3765
  162SAPE   O1318143   4.889   5.334   6.036  0.4053 -0.1500  0.6142
  162SAPE   O1418144   4.816   5.123   6.152  0.3441  0.3049 -0.4246
  162SAPE   O1218145   5.038   5.235   6.208 -0.2572  0.4979  0.2763
  162SAPE   O1118146   4.814   5.338   6.267 -0.2184  0.5803  0.2558
  162SAPE    C118147   4.846   5.471   6.271  0.4201 -0.3113 -0.2672
  162SAPE    HA18148   4.954   5.498   6.263  0.1718  0.9407  0.3141
  162SAPE    HB18149   4.794   5.518   6.184 -1.3927  0.4030  1.1395
  162SAPE    C218150   4.789   5.538   6.397  0.4146 -0.2711  0.3772
  162SAPE    HS18151   4.799   5.649   6.392  3.1047 -0.4842 -0.3017
  162SAPE   O2118152   4.854   5.494   6.512  0.0469 -0.0119 -0.3204
  162SAPE   C2118153   4.980   5.538   6.544  0.1954 -0.1797  0.0916
  162SAPE   O2218154   5.040   5.619   6.476  0.5778  0.0926  0.0800
  162SAPE   C2218155   5.034   5.457   6.656  1.2418 -0.0074 -0.3591
  162SAPE   H2R18156   5.034   5.353   6.619 -2.2243 -0.5669  0.7888
  162SAPE   H2S18157   5.135   5.500   6.673  1.5050 -0.9251  0.4686
  162SAPE    C318158   4.635   5.507   6.397 -0.2548 -0.1534 -0.1089
  162SAPE    HX18159   4.631   5.397   6.404 -0.1710 -0.0765  1.6998
  162SAPE    HY18160   4.591   5.536   6.299 -0.5635 -0.5940 -0.1010
  162SAPE   O3118161   4.572   5.562   6.514  0.2578 -0.7081 -0.1402
  162SAPE   C3118162   4.578   5.493   6.626 -0.0977  0.3165 -0.1513
  162SAPE   O3218163   4.626   5.379   6.628  0.0366 -0.6842 -0.4666
  162SAPE   C3218164   4.494   5.558   6.733 -0.2669 -0.1681 -0.1818
  162SAPE   H2X18165   4.403   5.601   6.686  0.0630 -1.0363 -1.6796
  162SAPE   H2Y18166   4.549   5.640   6.785  1.0373 -1.7446  1.0321
  162SAPE   C2318167   4.948   5.466   6.785 -0.5420  0.1491  1.0919
  162SAPE   H3R18168   4.858   5.400   6.785  0.0844 -0.7271  1.6990
  162SAPE   H3S18169   4.906   5.568   6.796  1.9909  2.0335 -3.7410
  162SAPE   C2418170   5.038   5.411   6.896  0.7599  0.6980 -0.2037
  162SAPE   H4R18171   5.131   5.471   6.908  0.4758  1.1848 -0.4038
  162SAPE   H4S18172   5.068   5.312   6.855 -1.7287  0.2683 -1.1861
  162SAPE   C2518173   4.946   5.393   7.022 -0.1054  0.4680 -1.0591
  162SAPE   H5R18174   4.861   5.326   7.001  1.2372 -1.1489 -1.5380
  162SAPE   C2618175   4.965   5.448   7.148  0.1479  0.1464 -0.0221
  162SAPE   H6R18176   4.895   5.424   7.230  1.1123  0.0036  0.7761
  162SAPE   C2718177   5.084   5.534   7.182 -0.1726  0.5889  0.5093
  162SAPE   H7R18178   5.043   5.607   7.255 -0.5316 -1.0334  1.9757
  162SAPE   H7S18179   5.131   5.590   7.098  0.3461 -2.1236 -1.1397
  162SAPE   C2818180   5.187   5.456   7.258 -0.7029 -0.3389 -0.1630
  162SAPE   H8R18181   5.237   5.389   7.187  0.6991 -0.2813  0.7371
  162SAPE   C2918182   5.207   5.439   7.391  1.1645 -0.1924  0.1865
  162SAPE   H9R18183   5.285   5.370   7.428  0.0137 -1.6095  0.0867
  162SAPE  C21018184   5.125   5.503   7.500  0.0326 -0.3970 -0.1284
  162SAPE  H10R18185   5.031   5.546   7.462  0.9671 -0.9214 -3.3082
  162SAPE  H10S18186   5.175   5.598   7.529  0.5497 -0.6393 -0.2041
  162SAPE  C21118187   5.112   5.422   7.627 -0.6162  0.2325 -0.9736
  162SAPE  H11R18188   5.038   5.342   7.612 -0.2303  0.3630 -4.2488
  162SAPE  C21218189   5.161   5.452   7.748  0.2554 -0.1193  0.7062
  162SAPE  H12R18190   5.136   5.386   7.833 -0.6424 -0.8586 -0.1012
  162SAPE  C21318191   5.239   5.578   7.790  0.6546  0.7894 -0.2174
  162SAPE  H13R18192   5.177   5.644   7.854  0.9289  1.6866 -0.8562
  162SAPE  H13S18193   5.274   5.648   7.711 -0.5462  0.6320 -0.9231
  162SAPE  C21418194   5.364   5.526   7.860 -0.6492  0.6133  0.1178
  162SAPE  H14R18195   5.412   5.440   7.812  1.2859  1.5913  0.2093
  162SAPE  C21518196   5.414   5.577   7.975  0.5259 -0.5822 -0.9109
  162SAPE  H15R18197   5.511   5.544   8.014  0.0996 -1.6357 -0.6933
  162SAPE  C21618198   5.336   5.668   8.065 -0.4937  0.0309  0.7047
  162SAPE  H16R18199   5.226   5.663   8.047 -0.6756  0.6166  1.5327
  162SAPE  H16S18200   5.366   5.774   8.051  2.8551 -0.6472  1.8574
  162SAPE  C21718201   5.355   5.618   8.212 -0.3758  0.0797  0.2758
  162SAPE  H17R18202   5.306   5.701   8.267  0.4226 -0.4516  1.8249
  162SAPE  H17S18203   5.464   5.636   8.223 -0.4504  1.8165 -1.3578
  162SAPE  C21818204   5.312   5.475   8.239 -1.0029  0.3661 -0.8865
  162SAPE  H18R18205   5.380   5.405   8.187  0.7125 -0.8472  2.6299
  162SAPE  H18S18206   5.210   5.458   8.198  0.0235 -2.4017 -2.5121
  162SAPE  C21918207   5.314   5.451   8.392  0.4171  0.5450 -0.3133
  162SAPE  H19R18208   5.232   5.387   8.433  1.5331 -0.5524  0.2859
  162SAPE  H19S18209   5.311   5.551   8.439 -1.2493 -0.1269  1.0978
  162SAPE  C22018210   5.440   5.390   8.444 -0.0306  0.0495 -0.5558
  162SAPE  H20R18211   5.453   5.404   8.554 -0.9318 -2.0695 -0.1221
  162SAPE  H20S18212   5.536   5.423   8.399  1.8092 -1.8252  1.6906
  162SAPE  H20T18213   5.434   5.281   8.424  2.1834 -0.2106 -0.1322
  162SAPE   C3318214   4.436   5.470   6.845 -0.7144  0.3031  0.3010
  162SAPE   H3X18215   4.520   5.415   6.893 -1.4310 -3.0904 -1.9561
  162SAPE   H3Y18216   4.388   5.385   6.791  1.1285 -0.4023 -0.3394
  162SAPE   C3418217   4.337   5.542   6.931 -0.5348  0.0210 -0.1891
  162SAPE   H4X18218   4.257   5.573   6.862 -1.2132  1.2235  1.0832
  162SAPE   H4Y18219   4.387   5.633   6.972 -1.6706  0.6558 -0.1919
  162SAPE   C3518220   4.271   5.448   7.035 -0.5694 -0.2533 -0.0181
  162SAPE   H5X18221   4.230   5.361   6.979  1.5964 -0.2354 -1.7893
  162SAPE   H5Y18222   4.183   5.504   7.074 -1.2182 -1.3828  0.1624
  162SAPE   C3618223   4.367   5.403   7.147  0.0204  0.2441  0.4362
  162SAPE   H6X18224   4.454   5.354   7.098  0.9975  2.0610  0.2798
  162SAPE   H6Y18225   4.331   5.326   7.219  0.6333  0.3834  0.9058
  162SAPE   C3718226   4.430   5.514   7.238  0.0893  0.5558  0.3056
  162SAPE   H7X18227   4.362   5.543   7.322  0.5679 -0.5782  1.1060
  162SAPE   H7Y18228   4.453   5.598   7.169  0.8442  1.3674  1.5093
  162SAPE   C3818229   4.552   5.484   7.332  0.9466  0.2633 -0.0966
  162SAPE   H8X18230   4.572   5.560   7.410  0.0116  0.5796 -0.1457
  162SAPE   H8Y18231   4.638   5.465   7.264  0.0692  1.5083 -1.6410
  162SAPE   C3918232   4.524   5.361   7.418  0.0073 -0.2518  0.2670
  162SAPE   H9X18233   4.512   5.272   7.352 -0.3258 -0.3242  0.4231
  162SAPE   H9Y18234   4.425   5.369   7.468  0.1535 -0.1348  0.5326
  162SAPE  C31018235   4.637   5.344   7.515 -0.5144 -0.4449  0.1339
  162SAPE  H10X18236   4.637   5.412   7.602 -1.1616 -2.9680  2.2433
  162SAPE  H10Y18237   4.734   5.378   7.471  0.5594 -1.6636  1.4562
  162SAPE  C31118238   4.653   5.197   7.573 -0.1407 -0.2518 -0.0368
  162SAPE  H11X18239   4.695   5.136   7.491 -2.3620 -1.2104 -0.5521
  162SAPE  H11Y18240   4.551   5.155   7.587 -1.2474  2.0469 -0.6451
  162SAPE  C31218241   4.741   5.192   7.699 -0.4510  0.0522 -0.5877
  162SAPE  H12X18242   4.701   5.250   7.786  0.3785 -0.8634  0.4354
  162SAPE  H12Y18243   4.840   5.237   7.677 -0.7229  1.2938  0.5854
  162SAPE  C31318244   4.769   5.044   7.744  0.2587  0.1359 -0.5883
  162SAPE  H13X18245   4.805   4.988   7.656 -0.7649 -1.3871 -0.0894
  162SAPE  H13Y18246   4.679   4.984   7.771  2.5167 -3.9846 -1.3378
  162SAPE  C31418247   4.869   5.042   7.869  0.2512  0.0974 -0.6255
  162SAPE  H14X18248   4.886   4.946   7.923  1.6199  0.2802 -0.7067
  162SAPE  H14Y18249   4.823   5.113   7.940  2.5533 -0.9172  2.0475
  162SAPE  C31518250   5.015   5.099   7.835  0.1242  0.1976 -0.7388
  162SAPE  H15X18251   5.013   5.209   7.819  1.0478  0.1077 -1.6225
  162SAPE  H15Y18252   5.063   5.066   7.740  1.7738 -1.0444  0.4502
  162SAPE  C31618253   5.116   5.066   7.945 -0.2685  0.2350  0.0017
  162SAPE  H16X18254   5.221   5.090   7.915  1.4923 -2.6963  3.0795
  162SAPE  H16Y18255   5.119   4.956   7.959 -0.8887 -0.0593 -1.8854
  162SAPE  C31718256   5.076   5.149   8.070  0.9119 -0.4134 -0.2078
  162SAPE  H17X18257   4.983   5.100   8.105 -0.5602  0.6320 -2.4135
  162SAPE  H17Y18258   5.068   5.257   8.046 -0.7852 -0.8112 -1.6809
  162SAPE  C31818259   5.178   5.141   8.176  0.1299  0.0663  0.1043
  162SAPE  H18X18260   5.285   5.152   8.146  1.0454 -1.9102  2.2668
  162SAPE  H18Y18261   5.166   5.046   8.233 -3.6760  2.0183  2.9800
  162SAPE  H18Z18262   5.159   5.225   8.246 -0.3950 -1.4801  1.9207
  163SAPE     N18263   3.474   3.301   6.425 -0.1254  1.2561  0.4240
  163SAPE   HN118264   3.385   3.355   6.421 -0.1610  1.2371  0.9766
  163SAPE   HN218265   3.546   3.357   6.374 -0.0906  1.4186  0.6509
  163SAPE   HN318266   3.458   3.213   6.372 -0.1877  2.3090 -1.4000
  163SAPE   C1218267   3.515   3.284   6.566 -0.1584 -1.1076 -0.7372
  163SAPE  H12A18268   3.625   3.270   6.563  0.1114  0.1518  1.0704
  163SAPE  H12B18269   3.465   3.200   6.619 -0.7397 -0.2727  0.0915
  163SAPE   C1118270   3.481   3.401   6.653  0.0927 -1.3106  0.2034
  163SAPE  H11A18271   3.541   3.378   6.744  1.0779 -0.3228 -0.1590
  163SAPE  H11B18272   3.373   3.408   6.676 -0.2886 -1.8155 -1.3054
  163SAPE     P18273   3.643   3.602   6.655 -0.0637  0.5970  0.1477
  163SAPE   O1318274   3.759   3.509   6.662  0.6532  0.0071  0.5670
  163SAPE   O1418275   3.666   3.735   6.593 -0.7369  0.4145  1.1154
  163SAPE   O1218276   3.516   3.531   6.595 -0.5300  0.2259  0.0201
  163SAPE   O1118277   3.599   3.635   6.805  0.0139 -0.7679  0.0857
  163SAPE    C118278   3.516   3.747   6.830 -0.1138 -0.2300 -0.0604
  163SAPE    HA18279   3.578   3.833   6.866  2.6062 -1.5087 -1.3581
  163SAPE    HB18280   3.450   3.789   6.751 -0.8178 -0.9440  0.1353
  163SAPE    C218281   3.423   3.700   6.954 -0.3370 -0.0684  0.7284
  163SAPE    HS18282   3.349   3.781   6.970 -1.0772 -0.2709 -1.3778
  163SAPE   O2118283   3.501   3.664   7.071 -0.0910 -0.0052 -0.3368
  163SAPE   C2118284   3.554   3.754   7.146  0.4372  0.5381 -0.3707
  163SAPE   O2218285   3.525   3.871   7.133  0.4610  0.0723 -0.2480
  163SAPE   C2218286   3.632   3.687   7.262 -0.3790 -0.2735  0.4046
  163SAPE   H2R18287   3.566   3.613   7.312  0.2981  1.3745  4.1590
  163SAPE   H2S18288   3.720   3.632   7.224 -0.5371 -0.0501 -0.2976
  163SAPE    C318289   3.338   3.581   6.920  0.2244 -0.0951 -0.2766
  163SAPE    HX18290   3.395   3.486   6.918 -0.3966 -0.4654 -0.8802
  163SAPE    HY18291   3.290   3.587   6.820 -2.4740  2.5435  1.0356
  163SAPE   O3118292   3.226   3.579   7.010 -0.3804 -0.0923 -0.4709
  163SAPE   C3118293   3.171   3.460   7.034  0.4754  0.2905  0.3738
  163SAPE   O3218294   3.192   3.358   6.971  0.2174 -0.1649 -0.2808
  163SAPE   C3218295   3.088   3.473   7.157  0.4027  0.3507 -0.8503
  163SAPE   H2X18296   3.007   3.398   7.144  0.3409  0.3122 -0.2966
  163SAPE   H2Y18297   3.043   3.574   7.169 -1.5871 -0.8247  3.4764
  163SAPE   C2318298   3.685   3.786   7.372 -0.3718 -0.0288  0.3079
  163SAPE   H3R18299   3.612   3.867   7.392  0.6768  0.7692  1.0018
  163SAPE   H3S18300   3.772   3.845   7.336 -0.9663  0.9907  0.4972
  163SAPE   C2418301   3.739   3.718   7.496 -0.1044 -0.6716  0.1600
  163SAPE   H4R18302   3.842   3.757   7.510 -0.3705  0.6367 -1.2960
  163SAPE   H4S18303   3.733   3.612   7.463  2.4858 -0.1747 -2.3124
  163SAPE   C2518304   3.663   3.745   7.621  0.2623 -0.0736  0.1230
  163SAPE   H5R18305   3.556   3.761   7.603  0.6391  1.3230 -1.0298
  163SAPE   C2618306   3.704   3.764   7.749  0.1271  0.2674 -0.4695
  163SAPE   H6R18307   3.631   3.795   7.825  0.4852  0.4311 -0.1891
  163SAPE   C2718308   3.852   3.772   7.788 -0.1443 -0.6478 -0.9461
  163SAPE   H7R18309   3.916   3.825   7.715 -0.1901  0.1757 -0.4102
  163SAPE   H7S18310   3.890   3.669   7.807 -0.9447 -1.0594 -1.4979
  163SAPE   C2818311   3.871   3.848   7.922  0.8299  0.2991 -0.0675
  163SAPE   H8R18312   3.879   3.958   7.926  2.0560  0.3288 -1.9550
  163SAPE   C2918313   3.879   3.782   8.046  0.1454  0.0935  0.3451
  163SAPE   H9R18314   3.851   3.837   8.137 -3.9024 -0.7758 -0.2240
  163SAPE  C21018315   3.861   3.631   8.066 -0.0818 -0.0751 -0.3211
  163SAPE  H10R18316   3.811   3.572   7.986  1.2243 -0.1503 -1.1256
  163SAPE  H10S18317   3.786   3.610   8.145 -0.0949  1.6582  0.1629
  163SAPE  C21118318   3.994   3.569   8.103  0.4382  0.4937 -0.7142
  163SAPE  H11R18319   4.061   3.550   8.017  2.6165  0.4069  0.9090
  163SAPE  C21218320   4.029   3.521   8.223 -0.3774  0.5549 -0.8145
  163SAPE  H12R18321   4.124   3.467   8.220 -0.1961  0.7603  0.5120
  163SAPE  C21318322   3.944   3.528   8.344 -0.3207  0.5619  0.3493
  163SAPE  H13R18323   3.842   3.492   8.320  0.3273 -0.2278 -1.3728
  163SAPE  H13S18324   3.926   3.632   8.379  1.5622  1.3822 -0.9615
  163SAPE  C21418325   3.983   3.451   8.465  0.4930  0.3553 -0.4598
  163SAPE  H14R18326   3.923   3.368   8.505  1.0736  0.8951  1.6929
  163SAPE  C21518327   4.105   3.477   8.526  0.4882 -0.1778  0.1218
  163SAPE  H15R18328   4.141   3.412   8.607  0.6468  0.1984  0.3559
  163SAPE  C21618329   4.207   3.579   8.501  0.0919 -0.0753  0.2866
  163SAPE  H16R18330   4.213   3.608   8.394  0.4065 -0.9720  0.0586
  163SAPE  H16S18331   4.310   3.538   8.509  0.8733  1.4096 -1.4042
  163SAPE  C21718332   4.202   3.706   8.587  0.3915 -0.2097 -0.8253
  163SAPE  H17R18333   4.202   3.681   8.695 -1.0023  0.3134 -0.6804
  163SAPE  H17S18334   4.112   3.764   8.559 -0.1861 -0.5927  0.1541
  163SAPE  C21818335   4.324   3.803   8.573 -1.0864 -0.6087 -0.2841
  163SAPE  H18R18336   4.336   3.836   8.468 -0.1382 -1.4165 -0.4464
  163SAPE  H18S18337   4.417   3.748   8.601 -1.5295 -1.2906 -0.1105
  163SAPE  C21918338   4.318   3.934   8.653  0.0282  0.1531  0.2619
  163SAPE  H19R18339   4.416   3.985   8.645  0.4143 -0.7411 -0.8017
  163SAPE  H19S18340   4.315   3.908   8.761 -0.9241 -0.9858 -0.0183
  163SAPE  C22018341   4.199   4.028   8.615  0.5110  0.0108  0.1533
  163SAPE  H20R18342   4.113   3.968   8.578  0.5285  0.1694 -0.1505
  163SAPE  H20S18343   4.227   4.106   8.541 -0.4958  1.0374  0.8353
  163SAPE  H20T18344   4.177   4.081   8.710  1.3316 -0.7902  0.8114
  163SAPE   C3318345   3.161   3.452   7.290  0.9812  0.6577  0.0874
  163SAPE   H3X18346   3.252   3.516   7.287  0.8540  0.8743  0.7439
  163SAPE   H3Y18347   3.194   3.346   7.289 -3.3529 -0.9074  1.5611
  163SAPE   C3418348   3.075   3.491   7.403 -0.7933 -0.3146  1.0141
  163SAPE   H4X18349   2.989   3.421   7.391  0.9537 -2.5472  0.8756
  163SAPE   H4Y18350   3.047   3.598   7.393 -0.7065 -0.3568  0.2069
  163SAPE   C3518351   3.137   3.459   7.540 -0.2270 -0.0594 -0.2146
  163SAPE   H5X18352   3.222   3.522   7.573 -1.4196  0.3596  2.2563
  163SAPE   H5Y18353   3.167   3.352   7.531  2.0532  0.5317 -0.2730
  163SAPE   C3618354   3.042   3.464   7.654  0.0893 -0.0234  0.6982
  163SAPE   H6X18355   2.952   3.405   7.627  0.0196  0.3036  0.2121
  163SAPE   H6Y18356   3.010   3.570   7.655 -0.3499 -0.1518  0.4068
  163SAPE   C3718357   3.105   3.430   7.785 -0.3629 -0.6006 -0.2185
  163SAPE   H7X18358   3.171   3.514   7.816 -1.9468  1.7507 -2.7256
  163SAPE   H7Y18359   3.162   3.335   7.788 -0.4730 -0.6479  1.7109
  163SAPE   C3818360   2.996   3.413   7.891 -0.6703  0.4148 -0.2446
  163SAPE   H8X18361   2.931   3.336   7.844  0.7713 -1.4645  0.7661
  163SAPE   H8Y18362   2.941   3.510   7.890 -0.1637  0.7202  0.8803
  163SAPE   C3918363   3.053   3.368   8.023 -0.1471  0.3220  1.0000
  163SAPE   H9X18364   3.134   3.438   8.049  1.5513 -0.9735 -0.5624
  163SAPE   H9Y18365   3.111   3.275   8.004 -2.7938 -1.2867  0.1022
  163SAPE  C31018366   2.957   3.335   8.139 -0.1732 -0.3271 -0.1003
  163SAPE  H10X18367   3.014   3.259   8.196 -1.3374 -1.6200 -0.5994
  163SAPE  H10Y18368   2.864   3.289   8.100  1.4629 -3.1088 -0.9705
  163SAPE  C31118369   2.926   3.445   8.237  0.0773 -0.1049  0.3497
  163SAPE  H11X18370   2.822   3.426   8.272 -0.6544 -3.2485 -3.0246
  163SAPE  H11Y18371   2.929   3.550   8.201  0.8556  0.5854  2.2858
  163SAPE  C31218372   3.014   3.456   8.357 -0.0898  0.7325  0.1938
  163SAPE  H12X18373   2.966   3.543   8.407  2.2422  2.6392 -0.6798
  163SAPE  H12Y18374   3.117   3.485   8.329  0.3565  1.0705  2.0794
  163SAPE  C31318375   3.014   3.334   8.457  0.2257 -0.4508 -0.5598
  163SAPE  H13X18376   3.113   3.285   8.441  1.1221  1.0037  0.3204
  163SAPE  H13Y18377   2.928   3.264   8.444 -0.5668  0.4591 -0.2693
  163SAPE  C31418378   3.022   3.382   8.604  0.6567 -1.2627 -0.3614
  163SAPE  H14X18379   2.939   3.456   8.614  0.5289 -1.2508 -1.4348
  163SAPE  H14Y18380   3.117   3.439   8.616 -0.2492  0.4161 -0.7874
  163SAPE  C31518381   3.021   3.282   8.716  0.1157  0.5318 -0.1218
  163SAPE  H15X18382   2.944   3.203   8.703 -2.0772  2.6934 -1.0212
  163SAPE  H15Y18383   2.995   3.333   8.811 -2.1600 -0.4954 -0.1356
  163SAPE  C31618384   3.161   3.219   8.728  0.2766  0.3553  0.1351
  163SAPE  H16X18385   3.226   3.302   8.765 -0.4074  0.5052  1.0150
  163SAPE  H16Y18386   3.190   3.173   8.631  0.4002 -1.0775  0.8211
  163SAPE  C31718387   3.166   3.097   8.825  0.0818  0.0030 -0.4354
  163SAPE  H17X18388   3.093   3.020   8.793 -1.5423  1.1335  0.3624
  163SAPE  H17Y18389   3.129   3.134   8.923 -3.0516  1.3305 -1.9434
  163SAPE  C31818390   3.306   3.047   8.843  0.3512  0.7510  0.2122
  163SAPE  H18X18391   3.377   3.130   8.862  0.9471 -0.0158  1.4555
  163SAPE  H18Y18392   3.326   3.007   8.742 -1.0323  1.0359 -0.2034
  163SAPE  H18Z18393   3.317   2.965   8.917 -0.5997 -0.8432 -1.3514
  164SAPE     N18394   6.054   0.931   5.609 -0.2060 -0.0474  0.1156
  164SAPE   HN118395   6.005   0.974   5.690  1.0689 -2.8459  2.5631
  164SAPE   HN218396   6.155   0.953   5.609 -0.2540  0.1788  0.4630
  164SAPE   HN318397   6.019   0.963   5.517  2.2557  0.6635 -0.6421
  164SAPE   C1218398   6.046   0.784   5.628  0.0809  0.5851  0.0842
  164SAPE  H12A18399   6.109   0.737   5.550 -0.9666 -1.5686  0.4510
  164SAPE  H12B18400   5.943   0.747   5.609 -0.0314  0.0741  1.5347
  164SAPE   C1118401   6.093   0.735   5.759  0.3563  0.4140 -0.2147
  164SAPE  H11A18402   6.090   0.625   5.770 -2.1130  0.6551  3.3525
  164SAPE  H11B18403   6.035   0.773   5.846  1.8440  1.1542  0.4923
  164SAPE     P18404   6.312   0.740   5.905 -0.5198  0.5044 -0.2330
  164SAPE   O1318405   6.399   0.625   5.861 -0.1675  1.0674  0.5347
  164SAPE   O1418406   6.388   0.858   5.959 -0.5744 -0.0622 -0.2849
  164SAPE   O1218407   6.222   0.776   5.782 -0.2132 -0.6196 -0.1729
  164SAPE   O1118408   6.211   0.679   6.018  0.0687  0.1322  0.1505
  164SAPE    C118409   6.118   0.761   6.088  0.3307  0.2995 -0.2769
  164SAPE    HA18410   6.114   0.865   6.048 -2.1034  0.3604 -0.0325
  164SAPE    HB18411   6.013   0.725   6.081  0.1630  0.9552 -1.2458
  164SAPE    C218412   6.145   0.772   6.239  0.3513 -0.0126 -0.3685
  164SAPE    HS18413   6.236   0.829   6.266  0.2667 -0.6307  1.3425
  164SAPE   O2118414   6.152   0.640   6.291 -0.0678 -0.3555 -0.7295
  164SAPE   C2118415   6.272   0.593   6.325  0.0503  0.1999  0.0141
  164SAPE   O2218416   6.378   0.644   6.300 -0.2533 -0.7372  0.0803
  164SAPE   C2218417   6.262   0.464   6.413 -0.1860 -0.0975  0.2088
  164SAPE   H2R18418   6.157   0.456   6.449  0.3428 -2.2348  1.4539
  164SAPE   H2S18419   6.289   0.379   6.348  1.7657  1.2268 -0.8146
  164SAPE    C318420   6.025   0.841   6.310 -0.3494  0.0623  0.1865
  164SAPE    HX18421   5.933   0.786   6.281  1.1908 -0.4372 -4.6170
  164SAPE    HY18422   6.010   0.945   6.275  0.6696  0.7458  1.6773
  164SAPE   O3118423   6.039   0.841   6.452 -0.7892  0.2855 -1.0123
  164SAPE   C3118424   6.127   0.929   6.495  0.1580 -0.3478  0.4159
  164SAPE   O3218425   6.196   1.002   6.426  0.8410 -0.1756 -0.6356
  164SAPE   C3218426   6.124   0.926   6.646  0.1635 -0.5264 -0.2829
  164SAPE   H2X18427   6.192   1.001   6.691  0.8412 -0.6556 -1.0651
  164SAPE   H2Y18428   6.158   0.825   6.676  0.4917  0.1393  1.7476
  164SAPE   C2318429   6.360   0.457   6.538  0.0270 -1.1970  0.2510
  164SAPE   H3R18430   6.466   0.472   6.506 -0.2188 -1.2482 -0.6243
  164SAPE   H3S18431   6.362   0.358   6.587 -1.4194 -1.7309 -0.7067
  164SAPE   C2418432   6.308   0.568   6.635  0.3155 -0.0668 -0.1987
  164SAPE   H4R18433   6.324   0.665   6.582  0.4870  0.3787  0.6505
  164SAPE   H4S18434   6.372   0.570   6.726 -0.0230 -0.4335  0.0516
  164SAPE   C2518435   6.163   0.558   6.683  0.7748  0.5135  0.3329
  164SAPE   H5R18436   6.101   0.628   6.624  0.8025  0.7607  0.5939
  164SAPE   C2618437   6.109   0.480   6.784 -0.4345  0.5689 -0.1137
  164SAPE   H6R18438   6.006   0.504   6.815 -1.0018 -2.9590  1.1073
  164SAPE   C2718439   6.188   0.382   6.875 -0.4371  0.0689  0.1991
  164SAPE   H7R18440   6.261   0.329   6.809  0.9557  0.4957  1.3520
  164SAPE   H7S18441   6.114   0.303   6.899  0.6915 -1.3372 -0.7754
  164SAPE   C2818442   6.261   0.453   6.984  0.5220 -0.3690 -0.4407
  164SAPE   H8R18443   6.190   0.508   7.048  1.9288  0.9746  0.0441
  164SAPE   C2918444   6.388   0.461   7.006  0.4560 -0.0592 -0.8629
  164SAPE   H9R18445   6.424   0.525   7.089 -2.4678  1.4965 -0.6679
  164SAPE  C21018446   6.493   0.413   6.906  0.3740  0.3395  0.0140
  164SAPE  H10R18447   6.536   0.504   6.859  1.1713  0.1411  0.3385
  164SAPE  H10S18448   6.452   0.353   6.822  2.0082  0.5007 -0.9377
  164SAPE  C21118449   6.609   0.345   6.966  0.6072 -0.2027 -0.3722
  164SAPE  H11R18450   6.579   0.256   7.022 -1.0355  0.5944  0.0810
  164SAPE  C21218451   6.735   0.394   6.979 -1.2625  0.3665  0.0531
  164SAPE  H12R18452   6.811   0.328   7.023 -1.1078 -0.2529 -1.1180
  164SAPE  C21318453   6.792   0.520   6.914  0.2404 -0.6116 -0.8589
  164SAPE  H13R18454   6.808   0.602   6.987 -0.5975  0.4747 -1.8536
  164SAPE  H13S18455   6.716   0.585   6.866 -1.2673  0.7635  2.9257
  164SAPE  C21418456   6.919   0.497   6.839 -0.7301 -0.6119 -0.1448
  164SAPE  H14R18457   6.902   0.472   6.733  1.8868 -1.0573 -0.5181
  164SAPE  C21518458   7.053   0.497   6.878  0.2462  0.7392 -0.5424
  164SAPE  H15R18459   7.137   0.461   6.816  1.2834 -0.1100  1.2757
  164SAPE  C21618460   7.096   0.529   7.019 -0.4073  0.0424  0.2816
  164SAPE  H16R18461   7.150   0.438   7.053  0.8172  0.6749  0.0691
  164SAPE  H16S18462   7.013   0.530   7.094 -0.5696 -0.5436  0.1220
  164SAPE  C21718463   7.178   0.660   7.033  1.1882 -0.1557 -0.0369
  164SAPE  H17R18464   7.268   0.647   6.968  2.1546  0.7236  1.0882
  164SAPE  H17S18465   7.192   0.662   7.143  1.1072  1.8257 -0.0351
  164SAPE  C21818466   7.100   0.789   6.996 -0.1121  0.4406  0.4868
  164SAPE  H18R18467   6.999   0.785   7.041  0.1502  1.2265  1.1631
  164SAPE  H18S18468   7.084   0.792   6.886  0.7939  2.5429  0.3567
  164SAPE  C21918469   7.178   0.910   7.042  0.6678 -0.2972  0.1608
  164SAPE  H19R18470   7.275   0.904   6.988 -0.2590  0.2129 -1.6231
  164SAPE  H19S18471   7.189   0.899   7.152  1.3154 -1.5179 -0.0088
  164SAPE  C22018472   7.103   1.039   7.019  0.5502  0.4920 -0.6679
  164SAPE  H20R18473   7.002   1.021   7.062  1.3870 -1.3967  0.6580
  164SAPE  H20S18474   7.088   1.074   6.915  0.2200  1.2927 -0.3553
  164SAPE  H20T18475   7.154   1.114   7.084  0.0052 -0.2822  0.7094
  164SAPE   C3318476   5.983   0.944   6.711 -0.1828  0.1091  0.0117
  164SAPE   H3X18477   5.915   0.870   6.663  0.3479  0.6859 -1.6988
  164SAPE   H3Y18478   5.931   1.042   6.703 -1.2870 -0.4530 -0.0140
  164SAPE   C3418479   5.978   0.923   6.866  0.0364  0.6704  0.5438
  164SAPE   H4X18480   5.877   0.940   6.909 -1.9760 -4.7635 -1.1881
  164SAPE   H4Y18481   6.062   0.973   6.919  0.1778  0.3857  0.5910
  164SAPE   C3518482   5.977   0.775   6.905 -0.6104 -0.5957 -0.5896
  164SAPE   H5X18483   6.079   0.741   6.875 -0.9916  1.0889 -4.3311
  164SAPE   H5Y18484   5.906   0.730   6.832 -0.2841  0.2994 -1.4762
  164SAPE   C3618485   5.971   0.725   7.051 -0.6198 -0.1346  0.6487
  164SAPE   H6X18486   5.975   0.615   7.060 -1.4727 -0.0935  1.7663
  164SAPE   H6Y18487   5.880   0.766   7.101 -0.8548 -0.2496  0.3233
  164SAPE   C3718488   6.096   0.762   7.130 -0.9715  0.5418 -0.4546
  164SAPE   H7X18489   6.102   0.870   7.154 -2.7555  0.2882  1.3877
  164SAPE   H7Y18490   6.183   0.742   7.062  1.2098 -0.3459  2.4060
  164SAPE   C3818491   6.105   0.686   7.258 -0.1233 -1.1322  0.4359
  164SAPE   H8X18492   6.103   0.575   7.247 -0.3872 -1.1057  0.2120
  164SAPE   H8Y18493   6.017   0.715   7.320  0.4591 -1.3301  1.3895
  164SAPE   C3918494   6.239   0.706   7.337  0.0490 -1.1856  0.8997
  164SAPE   H9X18495   6.266   0.813   7.352  0.4072 -1.3217  1.2179
  164SAPE   H9Y18496   6.328   0.663   7.286 -0.0406 -0.3036 -0.0356
  164SAPE  C31018497   6.230   0.644   7.479  0.1766  0.9179 -0.2286
  164SAPE  H10X18498   6.333   0.612   7.505 -0.3262 -0.9031 -0.3593
  164SAPE  H10Y18499   6.180   0.545   7.487 -1.8624  1.8176 -1.1150
  164SAPE  C31118500   6.168   0.741   7.577 -0.2998  0.7509 -0.1208
  164SAPE  H11X18501   6.087   0.790   7.518 -0.3218  1.9691  0.8722
  164SAPE  H11Y18502   6.246   0.817   7.600  0.0453  0.7131 -1.1131
  164SAPE  C31218503   6.097   0.696   7.699  0.6970  0.5784  0.2608
  164SAPE  H12X18504   6.011   0.636   7.662  0.7190  1.4628 -1.3034
  164SAPE  H12Y18505   6.057   0.786   7.751 -0.4039 -0.6290  1.6112
  164SAPE  C31318506   6.183   0.616   7.798 -0.0670 -0.2938  0.0329
  164SAPE  H13X18507   6.286   0.657   7.789 -0.0621 -0.4548 -0.6302
  164SAPE  H13Y18508   6.196   0.511   7.764  0.9578 -0.3745  0.6456
  164SAPE  C31418509   6.136   0.616   7.942 -1.1368 -0.0172 -0.4999
  164SAPE  H14X18510   6.039   0.562   7.951 -0.7847 -0.4183  1.2900
  164SAPE  H14Y18511   6.126   0.723   7.971 -0.9429 -0.3498  0.9018
  164SAPE  C31518512   6.250   0.556   8.026  0.3417 -0.1467 -0.1694
  164SAPE  H15X18513   6.333   0.626   8.002  0.7242 -0.0521  1.3263
  164SAPE  H15Y18514   6.273   0.452   7.994  0.7497 -0.4508  1.0412
  164SAPE  C31618515   6.227   0.529   8.176  0.4891 -0.5708  0.6270
  164SAPE  H16X18516   6.136   0.465   8.170  1.6314 -2.1671 -0.7503
  164SAPE  H16Y18517   6.226   0.631   8.219  1.5122 -0.1708 -0.2413
  164SAPE  C31718518   6.336   0.439   8.237 -0.2211 -0.5832 -0.8386
  164SAPE  H17X18519   6.430   0.498   8.247 -1.1477  0.5272  2.9852
  164SAPE  H17Y18520   6.355   0.343   8.186  3.1355 -0.3792 -0.1923
  164SAPE  C31818521   6.306   0.390   8.380 -0.8142 -0.3157  0.2088
  164SAPE  H18X18522   6.237   0.303   8.370 -0.4520 -0.4202 -2.1243
  164SAPE  H18Y18523   6.282   0.476   8.445  1.4130 -0.0464  0.7598
  164SAPE  H18Z18524   6.402   0.348   8.419 -0.2574  0.5179 -0.2203
  165SAPE     N18525   6.042   3.724   6.364 -0.1406 -0.7380  0.3020
  165SAPE   HN118526   6.043   3.644   6.430  0.0001 -0.2246  0.9318
  165SAPE   HN218527   6.099   3.802   6.401 -1.9661  2.1882 -2.4510
  165SAPE   HN318528   5.949   3.771   6.369 -0.7494 -1.6616 -1.4625
  165SAPE   C1218529   6.072   3.671   6.225  0.1555 -0.1035 -0.4320
  165SAPE  H12A18530   6.042   3.753   6.156 -1.6831 -0.7822 -0.5156
  165SAPE  H12B18531   6.007   3.582   6.207 -0.2802  0.2087 -0.4329
  165SAPE   C1118532   6.222   3.642   6.209 -0.6088 -0.8278 -0.4937
  165SAPE  H11A18533   6.263   3.744   6.225  0.1440 -1.1878 -0.0577
  165SAPE  H11B18534   6.245   3.619   6.102 -1.7022  4.0374 -2.0509
  165SAPE     P18535   6.432   3.537   6.297  0.2032 -0.0623 -0.1313
  165SAPE   O1318536   6.467   3.394   6.287  0.1314  0.1209 -0.1833
  165SAPE   O1418537   6.495   3.622   6.189 -0.2857 -0.2505 -0.4259
  165SAPE   O1218538   6.270   3.545   6.302  0.2451 -0.0625 -0.4672
  165SAPE   O1118539   6.475   3.586   6.441 -0.6435 -0.2433 -0.4566
  165SAPE    C118540   6.369   3.585   6.540  0.0421 -0.1331 -0.2797
  165SAPE    HA18541   6.280   3.643   6.509  1.6602  1.7311 -1.6859
  165SAPE    HB18542   6.335   3.483   6.566  2.6105 -0.8909  0.3440
  165SAPE    C218543   6.416   3.661   6.665 -0.3734  0.0455  0.3134
  165SAPE    HS18544   6.413   3.768   6.636  1.5344 -0.4742 -2.1284
  165SAPE   O2118545   6.547   3.613   6.710  0.3230  0.3099  0.2821
  165SAPE   C2118546   6.602   3.695   6.798 -0.1913  0.0098 -0.7032
  165SAPE   O2218547   6.569   3.815   6.818  0.5564  0.2941  0.1962
  165SAPE   C2218548   6.728   3.626   6.849 -0.3914 -0.3174 -0.6892
  165SAPE   H2R18549   6.754   3.534   6.792  2.6746 -0.8247  1.2825
  165SAPE   H2S18550   6.809   3.699   6.829 -1.2884  0.4317 -1.7114
  165SAPE    C318551   6.305   3.646   6.776  0.0082  0.0515 -0.5582
  165SAPE    HX18552   6.211   3.669   6.722 -0.7995 -1.3706  0.1686
  165SAPE    HY18553   6.323   3.714   6.862 -0.4919 -1.1628  0.5409
  165SAPE   O3118554   6.301   3.505   6.824  0.0369 -0.3640 -0.0011
  165SAPE   C3118555   6.216   3.483   6.927  0.2057 -0.8728 -0.1474
  165SAPE   O3218556   6.140   3.567   6.977  0.4234  0.4338 -0.4104
  165SAPE   C3218557   6.245   3.353   6.989  0.0815 -0.7295  0.3738
  165SAPE   H2X18558   6.339   3.379   7.041 -1.0593  1.7649  1.3824
  165SAPE   H2Y18559   6.255   3.282   6.904  0.4744  0.4456 -0.5956
  165SAPE   C2318560   6.719   3.603   6.995  0.7947  0.2077 -0.4487
  165SAPE   H3R18561   6.718   3.700   7.049 -1.2284  0.0874 -0.1929
  165SAPE   H3S18562   6.819   3.562   7.020  0.2960  0.3152  1.9726
  165SAPE   C2418563   6.613   3.498   7.041  0.6833 -0.4168  0.1401
  165SAPE   H4R18564   6.516   3.510   6.987  1.5746  1.1059 -1.2522
  165SAPE   H4S18565   6.598   3.523   7.148 -0.9570 -1.6943  0.2450
  165SAPE   C2518566   6.665   3.364   7.015  0.3167 -0.2634  0.1840
  165SAPE   H5R18567   6.692   3.343   6.910  0.8551 -0.7754  0.4176
  165SAPE   C2618568   6.677   3.264   7.103 -0.3581  0.0603 -0.8482
  165SAPE   H6R18569   6.722   3.173   7.061  1.7124  0.5962  0.0517
  165SAPE   C2718570   6.633   3.262   7.248  0.6811 -0.1440 -0.0191
  165SAPE   H7R18571   6.596   3.162   7.278  2.6394 -1.3425 -1.3636
  165SAPE   H7S18572   6.548   3.333   7.253 -0.9316 -2.0373  1.1499
  165SAPE   C2818573   6.742   3.309   7.338 -0.0682  0.1832  0.2942
  165SAPE   H8R18574   6.850   3.303   7.318  0.0879  0.0462  1.1236
  165SAPE   C2918575   6.703   3.358   7.457 -0.2706 -0.1173  0.5651
  165SAPE   H9R18576   6.786   3.407   7.511  0.0842  0.7955 -0.7637
  165SAPE  C21018577   6.571   3.377   7.523  0.0510 -0.2625  0.2836
  165SAPE  H10R18578   6.498   3.415   7.448  0.9000  0.2661 -0.2985
  165SAPE  H10S18579   6.571   3.462   7.593  0.8810  0.9294 -1.1011
  165SAPE  C21118580   6.512   3.251   7.580 -0.3041 -0.5405  0.6863
  165SAPE  H11R18581   6.465   3.183   7.507  1.6375  0.0119 -1.1713
  165SAPE  C21218582   6.515   3.220   7.711  0.7816  0.0135  0.0070
  165SAPE  H12R18583   6.456   3.135   7.746 -0.3940  1.4154  1.5543
  165SAPE  C21318584   6.588   3.292   7.829  0.0975  0.0022  0.5743
  165SAPE  H13R18585   6.682   3.336   7.789 -0.4376  0.9230  0.3191
  165SAPE  H13S18586   6.621   3.210   7.897  1.5780  0.6040  0.6306
  165SAPE  C21418587   6.499   3.393   7.898 -0.3288 -0.4253 -0.2930
  165SAPE  H14R18588   6.463   3.479   7.839  2.8668  1.4429  0.1969
  165SAPE  C21518589   6.448   3.381   8.020 -0.1472 -0.1106 -0.4056
  165SAPE  H15R18590   6.393   3.464   8.067 -1.4941  0.2077 -2.4201
  165SAPE  C21618591   6.485   3.272   8.123 -0.2893 -0.4972  0.0221
  165SAPE  H16R18592   6.570   3.207   8.094  0.4939 -0.0380  1.2348
  165SAPE  H16S18593   6.394   3.211   8.140 -1.8486  1.2942 -1.3283
  165SAPE  C21718594   6.538   3.354   8.244 -0.1100 -0.2917 -0.8963
  165SAPE  H17R18595   6.460   3.407   8.302  0.6871  1.8002 -1.6466
  165SAPE  H17S18596   6.621   3.425   8.222  0.9606 -1.1305  0.2553
  165SAPE  C21818597   6.592   3.272   8.363  0.2587  0.0978  0.1262
  165SAPE  H18R18598   6.646   3.187   8.315 -2.8324 -1.1729 -1.3767
  165SAPE  H18S18599   6.505   3.210   8.392  1.7234 -3.4243 -2.2668
  165SAPE  C21918600   6.656   3.355   8.473  0.6399  0.5621  0.4674
  165SAPE  H19R18601   6.662   3.303   8.571  2.4470  0.8321  0.5309
  165SAPE  H19S18602   6.606   3.454   8.479 -1.3607 -0.4884  3.1389
  165SAPE  C22018603   6.800   3.379   8.443 -0.2345  0.4412  0.1294
  165SAPE  H20R18604   6.849   3.429   8.529 -1.7583 -0.9991  1.9290
  165SAPE  H20S18605   6.823   3.439   8.352  4.3883  0.9034  1.3615
  165SAPE  H20T18606   6.849   3.281   8.426 -1.6283 -0.6023  1.7093
  165SAPE   C3318607   6.143   3.316   7.101 -0.3893 -0.1577 -0.4399
  165SAPE   H3X18608   6.161   3.207   7.104 -1.5443 -0.4119 -1.7779
  165SAPE   H3Y18609   6.040   3.331   7.063 -1.2852 -1.6500  1.2567
  165SAPE   C3418610   6.153   3.388   7.239  0.5949  0.5598 -0.8319
  165SAPE   H4X18611   6.139   3.497   7.220 -2.0079  0.2632 -0.9212
  165SAPE   H4Y18612   6.257   3.387   7.278  1.2213 -0.5723 -2.4214
  165SAPE   C3518613   6.072   3.334   7.354  0.6338 -0.2934  1.0407
  165SAPE   H5X18614   6.109   3.230   7.372  0.0281 -0.7761 -0.3508
  165SAPE   H5Y18615   5.967   3.336   7.318  1.1979  0.3734 -0.6897
  165SAPE   C3618616   6.093   3.408   7.489  0.6280 -0.8591 -0.1512
  165SAPE   H6X18617   6.075   3.516   7.472 -2.2356 -0.5644  3.4582
  165SAPE   H6Y18618   6.192   3.399   7.540  0.2227 -0.4537  0.7273
  165SAPE   C3718619   5.993   3.372   7.598 -0.2286  0.0368  0.5926
  165SAPE   H7X18620   5.892   3.361   7.552  0.9763  0.5296 -2.3685
  165SAPE   H7Y18621   5.997   3.458   7.668  0.0615  0.7471 -0.2854
  165SAPE   C3818622   6.033   3.245   7.669 -0.3136  0.1858 -0.8631
  165SAPE   H8X18623   6.062   3.169   7.593 -0.4651 -2.0128  1.1485
  165SAPE   H8Y18624   5.941   3.205   7.716 -0.4976  0.9740 -0.5427
  165SAPE   C3918625   6.139   3.277   7.780  0.2998 -0.4025  0.9298
  165SAPE   H9X18626   6.123   3.378   7.824  0.5031  0.8826 -1.7531
  165SAPE   H9Y18627   6.234   3.277   7.723  1.3031 -0.5112  2.5257
  165SAPE  C31018628   6.147   3.176   7.896 -0.1829 -0.3884  0.9951
  165SAPE  H10X18629   6.254   3.147   7.910 -0.4438 -1.7471  0.3382
  165SAPE  H10Y18630   6.111   3.079   7.855 -0.8622  1.2441 -2.6113
  165SAPE  C31118631   6.068   3.211   8.023  0.0106 -0.0155  0.2100
  165SAPE  H11X18632   5.962   3.224   7.993 -0.2263  1.2288  1.5009
  165SAPE  H11Y18633   6.105   3.308   8.061  1.4304 -0.7409  0.7475
  165SAPE  C31218634   6.083   3.111   8.131 -0.3394  0.1918 -0.4245
  165SAPE  H12X18635   6.193   3.110   8.148 -0.3379  0.5839 -0.4017
  165SAPE  H12Y18636   6.060   3.008   8.097 -2.2009 -0.4794  2.4902
  165SAPE  C31318637   6.015   3.153   8.261  0.0745  0.1143 -0.0211
  165SAPE  H13X18638   5.908   3.171   8.238  0.2569  2.4313  0.7118
  165SAPE  H13Y18639   6.068   3.245   8.293  0.6255 -0.5466  1.0106
  165SAPE  C31418640   6.033   3.060   8.386 -0.2193 -0.4160 -0.0753
  165SAPE  H14X18641   6.135   3.062   8.429 -0.7450 -0.5803  1.2437
  165SAPE  H14Y18642   6.031   2.954   8.353  1.0852  0.3417 -2.8692
  165SAPE  C31518643   5.932   3.087   8.506 -0.2313  0.1808  0.4528
  165SAPE  H15X18644   5.973   3.047   8.602 -1.2372  2.2217  1.8261
  165SAPE  H15Y18645   5.836   3.037   8.482  0.6386 -1.9698  1.1439
  165SAPE  C31618646   5.909   3.231   8.529 -0.0910  0.0332 -0.4798
  165SAPE  H16X18647   5.877   3.289   8.440  2.8545  0.9234 -1.0633
  165SAPE  H16Y18648   6.006   3.274   8.562 -0.1552  0.1416 -0.4354
  165SAPE  C31718649   5.796   3.258   8.630  0.1017 -0.5488 -0.1708
  165SAPE  H17X18650   5.815   3.360   8.670  0.3253 -1.1869  1.4393
  165SAPE  H17Y18651   5.803   3.195   8.722 -0.0280 -2.2142 -1.2490
  165SAPE  C31818652   5.653   3.246   8.582 -0.3205  0.2349  0.4774
  165SAPE  H18X18653   5.575   3.281   8.652 -0.1306 -0.9813  1.3322
  165SAPE  H18Y18654   5.627   3.142   8.553 -2.5109  1.4718 -2.5699
  165SAPE  H18Z18655   5.649   3.298   8.484 -1.6049 -1.1149 -0.2176
  166SAPE     N18656   5.478   6.577   5.625  0.6879 -0.4853 -0.1467
  166SAPE   HN118657   5.487   6.479   5.658 -1.7474 -0.5998  0.4221
  166SAPE   HN218658   5.443   6.582   5.527 -2.2166 -0.0006  0.8118
  166SAPE   HN318659   5.562   6.633   5.648 -0.4632  0.3459  2.4950
  166SAPE   C1218660   5.364   6.641   5.711  0.0396 -0.2785 -0.7467
  166SAPE  H12A18661   5.369   6.591   5.811  2.1317 -1.9049 -1.5745
  166SAPE  H12B18662   5.266   6.623   5.663 -1.4714  1.5743  1.4273
  166SAPE   C1118663   5.357   6.793   5.744  0.0307 -0.5853  0.0250
  166SAPE  H11A18664   5.281   6.810   5.824  1.3020  1.4087  0.8999
  166SAPE  H11B18665   5.328   6.849   5.652 -0.3725 -2.5495 -1.0855
  166SAPE     P18666   5.524   6.981   5.853  0.1598  0.2494  0.0910
  166SAPE   O1318667   5.666   6.984   5.894  0.2202 -0.6083 -0.0393
  166SAPE   O1418668   5.477   7.090   5.761 -0.1722  0.0043 -0.0245
  166SAPE   O1218669   5.488   6.846   5.782 -0.5659  0.2582  0.0690
  166SAPE   O1118670   5.439   6.998   5.982  0.1441  0.0509 -0.8571
  166SAPE    C118671   5.418   6.894   6.074 -0.1954  0.5843 -0.0851
  166SAPE    HA18672   5.309   6.870   6.072 -0.7177  2.8212 -0.4691
  166SAPE    HB18673   5.484   6.809   6.045  0.1145  0.5990  0.5537
  166SAPE    C218674   5.453   6.944   6.218  0.9127  0.6247 -0.9020
  166SAPE    HS18675   5.395   7.036   6.241  1.1275  0.6895 -0.6115
  166SAPE   O2118676   5.595   6.969   6.229  0.2283 -0.0657 -0.6595
  166SAPE   C2118677   5.630   7.099   6.244  0.0726 -0.1491 -0.3004
  166SAPE   O2218678   5.558   7.193   6.281  0.0005  0.2577  0.4072
  166SAPE   C2218679   5.782   7.124   6.237  0.6794 -0.5254 -0.3451
  166SAPE   H2R18680   5.803   7.078   6.138  0.2303 -1.4884 -0.0138
  166SAPE   H2S18681   5.790   7.234   6.249  1.5484 -0.8216  2.9018
  166SAPE    C318682   5.408   6.830   6.319  0.0441 -0.1239  0.0357
  166SAPE    HX18683   5.406   6.726   6.279  0.4403 -0.3119  0.4835
  166SAPE    HY18684   5.301   6.855   6.336  0.1314  1.2272 -1.1967
  166SAPE   O3118685   5.460   6.839   6.456  0.3548  0.5445  0.1409
  166SAPE   C3118686   5.564   6.760   6.471  0.3314  0.3038 -0.1016
  166SAPE   O3218687   5.611   6.684   6.385 -0.0960  0.1387  0.2736
  166SAPE   C3218688   5.611   6.772   6.618  0.2347 -0.2783  0.4280
  166SAPE   H2X18689   5.518   6.762   6.677 -0.7432  1.2557 -0.8000
  166SAPE   H2Y18690   5.676   6.862   6.627 -0.0903 -0.0005 -0.0069
  166SAPE   C2318691   5.860   7.066   6.360  0.2172  0.5103  0.3455
  166SAPE   H3R18692   5.965   7.097   6.345  0.0465  1.2725  0.6672
  166SAPE   H3S18693   5.862   6.956   6.346 -1.1668  0.7195 -1.9016
  166SAPE   C2418694   5.802   7.103   6.500 -0.1702 -1.0669 -0.0025
  166SAPE   H4R18695   5.857   7.045   6.577 -1.5754 -1.5184  0.7051
  166SAPE   H4S18696   5.695   7.072   6.497 -0.0311 -1.4832 -1.2065
  166SAPE   C2518697   5.807   7.245   6.541 -0.4992  0.2307  0.2733
  166SAPE   H5R18698   5.828   7.314   6.458 -0.6754  0.9483  0.8123
  166SAPE   C2618699   5.746   7.306   6.653  0.7987  0.1845 -0.5450
  166SAPE   H6R18700   5.770   7.412   6.671 -0.2960  0.8168 -2.5642
  166SAPE   C2718701   5.676   7.226   6.760 -0.1821 -0.8824  0.1013
  166SAPE   H7R18702   5.639   7.130   6.719 -1.6213  1.2023 -4.1541
  166SAPE   H7S18703   5.583   7.280   6.789  0.2710 -0.4155  0.7149
  166SAPE   C2818704   5.760   7.203   6.885 -0.4286  0.1057 -1.0961
  166SAPE   H8R18705   5.849   7.141   6.868  0.3025  0.3449  1.4231
  166SAPE   C2918706   5.738   7.256   7.009 -0.2177  1.0492  0.5986
  166SAPE   H9R18707   5.819   7.240   7.082  0.6275 -1.0443 -0.7147
  166SAPE  C21018708   5.628   7.345   7.054  0.2432  0.3603 -0.2302
  166SAPE  H10R18709   5.552   7.355   6.973  2.4372 -2.0163 -2.8405
  166SAPE  H10S18710   5.671   7.446   7.068  3.4029 -0.9597  0.3932
  166SAPE  C21118711   5.570   7.281   7.179  0.2459  0.6632  0.0490
  166SAPE  H11R18712   5.504   7.195   7.158  0.7160  0.3443 -0.1587
  166SAPE  C21218713   5.580   7.325   7.307  0.4444 -0.1562 -0.5553
  166SAPE  H12R18714   5.550   7.270   7.397 -0.9580  0.9792 -0.2787
  166SAPE  C21318715   5.665   7.438   7.354 -0.0065 -0.3594  0.0830
  166SAPE  H13R18716   5.596   7.519   7.386 -2.1518 -1.3107 -1.8915
  166SAPE  H13S18717   5.711   7.488   7.266 -1.4838  0.6439 -0.1487
  166SAPE  C21418718   5.766   7.408   7.459 -0.4227  0.6250  0.9639
  166SAPE  H14R18719   5.865   7.378   7.421 -0.1431  0.6667  1.6474
  166SAPE  C21518720   5.741   7.408   7.587  0.2781 -0.0693 -0.3959
  166SAPE  H15R18721   5.819   7.377   7.657  0.0220 -0.5880 -0.3402
  166SAPE  C21618722   5.619   7.476   7.650  0.0398  0.1242  0.4950
  166SAPE  H16R18723   5.566   7.538   7.574  1.5370 -0.6648 -1.2667
  166SAPE  H16S18724   5.659   7.536   7.734  1.2184 -0.9700  0.7523
  166SAPE  C21718725   5.522   7.377   7.714  0.1287 -0.5514 -0.3649
  166SAPE  H17R18726   5.477   7.300   7.647  0.3171 -1.0193  0.0337
  166SAPE  H17S18727   5.426   7.421   7.749  0.8783 -1.2183  2.9346
  166SAPE  C21818728   5.568   7.279   7.830 -0.0151  0.0340  0.2948
  166SAPE  H18R18729   5.640   7.341   7.888  0.0407  1.3082 -1.0808
  166SAPE  H18S18730   5.615   7.185   7.793 -1.6628 -1.2040  1.2186
  166SAPE  C21918731   5.456   7.231   7.931 -0.5437 -0.2142  0.4274
  166SAPE  H19R18732   5.357   7.222   7.881 -1.1696 -0.3325  1.6543
  166SAPE  H19S18733   5.453   7.312   8.007  0.5402 -0.3711  0.6566
  166SAPE  C22018734   5.486   7.096   8.008 -0.3084 -0.5082 -0.3249
  166SAPE  H20R18735   5.388   7.050   8.032  0.0570 -0.7797  0.7087
  166SAPE  H20S18736   5.536   7.125   8.103  0.1485  0.8898 -0.9666
  166SAPE  H20T18737   5.539   7.034   7.933  0.6750  0.9204 -0.8693
  166SAPE   C3318738   5.693   6.655   6.665  0.1461  0.1701  0.1907
  166SAPE   H3X18739   5.790   6.666   6.610  0.8806 -1.5701  1.0793
  166SAPE   H3Y18740   5.651   6.554   6.653  1.2318 -0.5424  2.0097
  166SAPE   C3418741   5.744   6.664   6.807  0.6435 -0.1928  0.3259
  166SAPE   H4X18742   5.759   6.557   6.833  1.1748 -0.4521 -0.9624
  166SAPE   H4Y18743   5.667   6.689   6.884 -0.1931 -1.3648 -0.1018
  166SAPE   C3518744   5.875   6.753   6.824 -0.7923 -0.5652 -0.3289
  166SAPE   H5X18745   5.845   6.849   6.776 -0.4330  0.3746  1.2362
  166SAPE   H5Y18746   5.964   6.718   6.767 -0.5335  1.2500 -1.1284
  166SAPE   C3618747   5.915   6.793   6.969  0.1592  0.1830 -0.2137
  166SAPE   H6X18748   6.004   6.859   6.972 -0.7123  1.3712  0.8849
  166SAPE   H6Y18749   5.944   6.703   7.028  0.9317 -0.2001 -1.1483
  166SAPE   C3718750   5.796   6.859   7.046 -0.1498 -0.3062 -0.2175
  166SAPE   H7X18751   5.723   6.786   7.088  2.9250 -3.1612  0.6831
  166SAPE   H7Y18752   5.736   6.924   6.979  0.5781 -2.5763 -3.2820
  166SAPE   C3818753   5.834   6.967   7.155  0.2723  0.4399 -0.3279
  166SAPE   H8X18754   5.743   7.027   7.175 -0.8887 -0.8752 -1.4216
  166SAPE   H8Y18755   5.905   7.041   7.112 -2.0126  2.2885 -1.1603
  166SAPE   C3918756   5.901   6.901   7.275 -1.0005 -0.4647  0.0307
  166SAPE   H9X18757   6.000   6.857   7.248 -0.9169 -0.9996  1.1636
  166SAPE   H9Y18758   5.836   6.818   7.311  0.9324 -1.1283  2.2316
  166SAPE  C31018759   5.934   7.008   7.382  0.7172 -0.5516 -0.3507
  166SAPE  H10X18760   5.837   7.049   7.419  0.7348 -1.9071  1.3403
  166SAPE  H10Y18761   5.993   7.094   7.346  0.9944 -0.6044 -0.0293
  166SAPE  C31118762   6.004   6.956   7.511 -0.6727  0.5820 -0.3935
  166SAPE  H11X18763   6.096   7.017   7.518 -1.0929  1.1641  0.2280
  166SAPE  H11Y18764   6.029   6.849   7.493  0.5839  0.9482 -0.8576
  166SAPE  C31218765   5.923   6.963   7.638 -0.5758  0.3905 -0.3948
  166SAPE  H12X18766   5.835   6.896   7.635  0.6869 -1.2764 -2.3027
  166SAPE  H12Y18767   5.895   7.070   7.646  2.9941  1.4562 -0.4505
  166SAPE  C31318768   6.003   6.934   7.764  0.2115 -0.6352 -0.5679
  166SAPE  H13X18769   6.108   6.969   7.757  0.3351 -1.2435 -2.0453
  166SAPE  H13Y18770   5.997   6.828   7.798  2.0143 -1.3679 -2.3447
  166SAPE  C31418771   5.938   7.001   7.887 -0.2941 -0.0609  0.4561
  166SAPE  H14X18772   5.830   6.974   7.878  0.6286 -3.6780 -2.0983
  166SAPE  H14Y18773   5.944   7.110   7.869  1.9254 -0.1330  0.5568
  166SAPE  C31518774   6.012   6.958   8.013 -0.9848  0.6350 -0.6497
  166SAPE  H15X18775   6.117   6.992   8.002 -0.5838 -0.9489 -2.2439
  166SAPE  H15Y18776   6.009   6.849   8.034 -1.3377  0.9813  1.2979
  166SAPE  C31618777   5.967   7.017   8.153 -0.0972 -0.3555  0.0722
  166SAPE  H16X18778   5.968   7.127   8.135  1.4277 -0.2580  0.6320
  166SAPE  H16Y18779   6.047   7.001   8.228 -0.1331 -1.2232 -0.0660
  166SAPE  C31718780   5.834   6.963   8.200  0.5207 -0.2749 -0.2352
  166SAPE  H17X18781   5.838   6.852   8.206  1.7702 -0.2964 -1.0440
  166SAPE  H17Y18782   5.757   6.981   8.121 -2.6388 -0.3510  2.5960
  166SAPE  C31818783   5.787   7.013   8.335 -0.0655  0.1435  0.1011
  166SAPE  H18X18784   5.846   6.974   8.421 -0.0991  0.1491  0.1267
  166SAPE  H18Y18785   5.678   6.996   8.347 -0.1632  0.2813 -0.5825
  166SAPE  H18Z18786   5.801   7.123   8.338  1.5369  0.0052 -1.0960
  167SAPE     N18787   6.594   6.565   6.158 -0.4153 -0.2765 -0.0742
  167SAPE   HN118788   6.598   6.665   6.184  0.6873  0.1756 -1.8490
  167SAPE   HN218789   6.664   6.538   6.086 -2.1361 -0.3441 -1.7927
  167SAPE   HN318790   6.502   6.547   6.112 -0.9707  1.7046  0.1639
  167SAPE   C1218791   6.611   6.471   6.273  0.2406 -0.8143 -0.2420
  167SAPE  H12A18792   6.523   6.478   6.340 -0.5883 -2.6139 -1.0821
  167SAPE  H12B18793   6.697   6.500   6.337 -0.6065  0.7441  0.2280
  167SAPE   C1118794   6.631   6.323   6.230 -0.3379 -0.1410  0.1607
  167SAPE  H11A18795   6.533   6.278   6.204 -0.5262  0.8818 -1.0025
  167SAPE  H11B18796   6.668   6.265   6.317 -1.0862 -0.5225  0.2290
  167SAPE     P18797   6.881   6.360   6.140 -0.3235 -0.4861  0.2247
  167SAPE   O1318798   6.973   6.250   6.094 -0.4822 -0.3961 -0.3165
  167SAPE   O1418799   6.899   6.493   6.074 -0.4237 -0.1525  0.0464
  167SAPE   O1218800   6.727   6.314   6.126  0.5335 -0.5977 -0.7522
  167SAPE   O1118801   6.903   6.375   6.302  0.3393  0.6437 -0.3456
  167SAPE    C118802   6.992   6.288   6.383  0.3849  0.3632 -0.0120
  167SAPE    HA18803   7.071   6.248   6.316  1.3317  1.1516  0.6139
  167SAPE    HB18804   7.045   6.350   6.459 -3.3161  0.0936  3.1262
  167SAPE    C218805   6.912   6.190   6.468 -0.0973  0.3599  0.3705
  167SAPE    HS18806   6.874   6.116   6.395 -0.2830  1.6568 -0.9024
  167SAPE   O2118807   6.813   6.260   6.536 -0.3625  0.0506 -0.3323
  167SAPE   C2118808   6.707   6.183   6.566 -0.4929 -0.5506 -0.3058
  167SAPE   O2218809   6.691   6.070   6.520  0.0371 -0.3573 -0.1288
  167SAPE   C2218810   6.609   6.250   6.670 -0.2325  0.0718  0.7755
  167SAPE   H2R18811   6.620   6.361   6.673  0.7495 -0.0326  1.5695
  167SAPE   H2S18812   6.507   6.230   6.633 -0.2412  0.2940  0.6743
  167SAPE    C318813   7.005   6.105   6.569 -0.0406  0.1887  0.6239
  167SAPE    HX18814   7.037   6.178   6.647 -1.0159  1.2610  0.0415
  167SAPE    HY18815   7.084   6.049   6.515  0.6101  0.1218  1.6130
  167SAPE   O3118816   6.936   5.998   6.641 -0.1933 -0.0271  0.2248
  167SAPE   C3118817   7.014   5.939   6.736 -0.1723 -0.6273  0.7391
  167SAPE   O3218818   7.124   5.974   6.774 -0.2844  0.5272  0.4089
  167SAPE   C3218819   6.933   5.825   6.799  0.7298  0.5143 -0.4323
  167SAPE   H2X18820   6.858   5.798   6.722 -0.2784  1.7964  0.0586
  167SAPE   H2Y18821   6.872   5.868   6.882 -1.1875 -0.5688 -1.2083
  167SAPE   C2318822   6.628   6.199   6.819 -0.0192 -0.0389 -0.6689
  167SAPE   H3R18823   6.661   6.094   6.820 -0.1304 -0.1625  2.4966
  167SAPE   H3S18824   6.527   6.205   6.866  0.9262  1.2754  1.3315
  167SAPE   C2418825   6.727   6.278   6.906  0.0500  0.0096 -0.6373
  167SAPE   H4R18826   6.719   6.220   7.000  1.0600 -0.5753 -0.8947
  167SAPE   H4S18827   6.681   6.376   6.930  2.5946  1.0081  0.4481
  167SAPE   C2518828   6.871   6.302   6.871  0.0718 -0.2455  0.0651
  167SAPE   H5R18829   6.884   6.350   6.772 -0.3628  0.2665  0.2529
  167SAPE   C2618830   6.979   6.276   6.950 -0.2192 -0.2639 -0.0861
  167SAPE   H6R18831   7.079   6.285   6.905 -1.1347 -1.1412 -2.4544
  167SAPE   C2718832   6.969   6.211   7.087 -0.2723 -0.5712 -0.0414
  167SAPE   H7R18833   6.896   6.127   7.080  1.1989 -1.9259  0.1119
  167SAPE   H7S18834   6.921   6.276   7.162 -1.6530 -1.8789  0.2589
  167SAPE   C2818835   7.101   6.147   7.131 -0.4770  0.1677 -0.3815
  167SAPE   H8R18836   7.164   6.113   7.047  1.0805  0.2535  0.7237
  167SAPE   C2918837   7.149   6.135   7.252  0.1356 -0.5547 -0.2119
  167SAPE   H9R18838   7.240   6.075   7.268  2.0625  2.0456 -0.7817
  167SAPE  C21018839   7.082   6.184   7.380 -0.2870  0.0081  0.9838
  167SAPE  H10R18840   7.128   6.127   7.464 -2.1860 -1.9727  0.7508
  167SAPE  H10S18841   6.974   6.158   7.377 -0.1894 -0.3070 -1.1953
  167SAPE  C21118842   7.095   6.336   7.404  0.0289  0.3759  0.0145
  167SAPE  H11R18843   7.112   6.401   7.317  1.1139 -1.1222 -0.9537
  167SAPE  C21218844   7.076   6.386   7.532 -0.0796 -0.3488  0.3924
  167SAPE  H12R18845   7.099   6.493   7.541  0.2901 -0.2705 -1.1539
  167SAPE  C21318846   7.043   6.305   7.652  0.4665 -0.1847  0.5631
  167SAPE  H13R18847   7.063   6.198   7.630  0.5658  0.6038 -4.4819
  167SAPE  H13S18848   6.932   6.312   7.647  0.4555 -1.1560 -1.7527
  167SAPE  C21418849   7.093   6.349   7.791 -0.1527 -0.0567  0.4961
  167SAPE  H14R18850   7.196   6.313   7.806  1.3851  3.0861 -1.4274
  167SAPE  C21518851   7.040   6.442   7.877  0.2142  0.6052  0.1196
  167SAPE  H15R18852   7.095   6.477   7.966 -1.9573  0.1355  1.7300
  167SAPE  C21618853   6.903   6.502   7.853 -0.3415 -0.0887  0.2074
  167SAPE  H16R18854   6.826   6.422   7.858  0.1524 -0.5092  1.2665
  167SAPE  H16S18855   6.884   6.546   7.753 -0.6834  1.8880  1.0972
  167SAPE  C21718856   6.865   6.604   7.964 -0.3954  0.1659 -0.2094
  167SAPE  H17R18857   6.781   6.666   7.928  2.9035  3.9467 -2.2308
  167SAPE  H17S18858   6.958   6.665   7.973  0.3860 -1.1136  0.8099
  167SAPE  C21818859   6.842   6.544   8.103  0.9109  0.1670  0.1879
  167SAPE  H18R18860   6.920   6.469   8.130  0.3886  0.2326  1.9831
  167SAPE  H18S18861   6.743   6.493   8.097  2.6884 -3.3927 -2.2563
  167SAPE  C21918862   6.850   6.658   8.212  0.2343 -0.2620 -0.5570
  167SAPE  H19R18863   6.778   6.639   8.295  0.6740  1.2869  0.2204
  167SAPE  H19S18864   6.811   6.749   8.159 -1.4047 -1.0255 -0.7328
  167SAPE  C22018865   6.983   6.669   8.279 -0.3085  0.0744  0.1973
  167SAPE  H20R18866   7.051   6.734   8.219 -1.3267  1.8906  0.9529
  167SAPE  H20S18867   7.029   6.573   8.312  0.2729  0.1565 -0.3409
  167SAPE  H20T18868   6.972   6.722   8.376 -1.5848  0.1434  0.0306
  167SAPE   C3318869   7.014   5.700   6.846 -0.1715 -0.3410  0.2439
  167SAPE   H3X18870   7.087   5.661   6.772  0.7994  0.7892  0.5634
  167SAPE   H3Y18871   6.939   5.619   6.853 -1.6204  0.6818 -2.2778
  167SAPE   C3418872   7.086   5.708   6.982 -0.2777  0.1633 -0.2884
  167SAPE   H4X18873   7.179   5.764   6.962  0.7290 -0.4844  2.1728
  167SAPE   H4Y18874   7.126   5.609   7.015 -0.8220  0.3749  1.0908
  167SAPE   C3518875   7.003   5.775   7.089 -0.7255  0.5122 -0.4469
  167SAPE   H5X18876   6.908   5.718   7.101  0.3537 -1.4642 -0.8615
  167SAPE   H5Y18877   6.990   5.883   7.066  2.0217  0.6820 -1.5490
  167SAPE   C3618878   7.080   5.763   7.218 -0.2208  0.4815 -0.1583
  167SAPE   H6X18879   7.181   5.809   7.217  1.6321 -3.2319 -1.1963
  167SAPE   H6Y18880   7.101   5.656   7.236  1.6729  0.1386 -3.5426
  167SAPE   C3718881   7.001   5.829   7.330 -0.7829 -0.4506  0.0579
  167SAPE   H7X18882   6.903   5.780   7.351 -0.3634 -1.1553  0.3752
  167SAPE   H7Y18883   6.985   5.935   7.299  0.2552 -0.4905 -0.6546
  167SAPE   C3818884   7.080   5.831   7.465  0.2512 -0.0428  0.1978
  167SAPE   H8X18885   7.179   5.882   7.457  0.9554 -1.4210 -0.1034
  167SAPE   H8Y18886   7.106   5.725   7.486 -0.3703 -0.4280 -0.8752
  167SAPE   C3918887   6.990   5.882   7.577  0.4986  0.4067  0.1857
  167SAPE   H9X18888   6.895   5.827   7.568  1.6429 -1.6248 -0.0300
  167SAPE   H9Y18889   6.976   5.992   7.569  0.2522  0.5545  2.0774
  167SAPE  C31018890   7.050   5.880   7.715 -0.1342  0.0992  0.0047
  167SAPE  H10X18891   7.154   5.916   7.702  0.2874 -0.8136  0.6567
  167SAPE  H10Y18892   7.064   5.773   7.745 -0.6613  0.0465  0.0725
  167SAPE  C31118893   6.976   5.955   7.820  0.2171 -0.1964  0.4599
  167SAPE  H11X18894   6.870   5.925   7.830 -0.0643 -0.1796 -1.9077
  167SAPE  H11Y18895   6.955   6.061   7.791  3.1850 -0.0352 -1.5457
  167SAPE  C31218896   7.043   5.961   7.956 -0.0961  0.6158 -0.1553
  167SAPE  H12X18897   7.143   6.006   7.938  1.0525 -1.7943 -0.2809
  167SAPE  H12Y18898   7.045   5.863   8.009 -1.2890  0.3226 -0.6203
  167SAPE  C31318899   6.969   6.058   8.048 -0.1931 -0.3834  0.2379
  167SAPE  H13X18900   6.863   6.034   8.073 -1.5849  2.1357 -2.5309
  167SAPE  H13Y18901   6.958   6.150   7.985  1.8297  1.0943  1.9112
  167SAPE  C31418902   7.047   6.100   8.174  0.0004 -0.1471  0.3881
  167SAPE  H14X18903   6.993   6.180   8.229 -2.0281 -2.4094  1.9565
  167SAPE  H14Y18904   7.150   6.131   8.148 -0.0848  0.8041  1.1040
  167SAPE  C31518905   7.053   5.981   8.276 -0.2172 -0.6791 -0.2472
  167SAPE  H15X18906   7.095   6.016   8.373 -0.6944 -1.5291  0.2800
  167SAPE  H15Y18907   7.133   5.913   8.240  0.1085 -0.0969 -0.6405
  167SAPE  C31618908   6.926   5.902   8.303 -0.0507  0.0613 -0.7333
  167SAPE  H16X18909   6.889   5.852   8.210  0.1924  2.4096 -2.1835
  167SAPE  H16Y18910   6.853   5.980   8.333  0.0348  1.5595 -3.9463
  167SAPE  C31718911   6.942   5.798   8.411 -0.3861  0.6570 -0.2893
  167SAPE  H17X18912   7.013   5.720   8.377 -1.4156  0.1473 -1.3456
  167SAPE  H17Y18913   6.850   5.737   8.407 -1.0080  1.5927 -0.6446
  167SAPE  C31818914   6.959   5.845   8.556  0.4793 -0.0598 -1.2610
  167SAPE  H18X18915   6.952   5.761   8.629 -0.3230 -0.0576 -1.3171
  167SAPE  H18Y18916   6.884   5.920   8.590 -0.5241 -1.7690  0.5660
  167SAPE  H18Z18917   7.054   5.898   8.575  0.2004  0.3201 -0.8966
  168SAPE     N18918   1.254   0.993   6.436 -0.5565 -0.4777 -0.5163
  168SAPE   HN118919   1.153   0.968   6.442 -0.3974 -1.0542 -0.2387
  168SAPE   HN218920   1.271   1.048   6.350 -1.7666 -0.8658 -1.0231
  168SAPE   HN318921   1.296   0.899   6.425  0.5917  0.0067 -0.4312
  168SAPE   C1218922   1.303   1.067   6.554 -0.1581  0.2262 -0.4810
  168SAPE  H12A18923   1.264   1.011   6.642 -2.5983  0.2869 -1.4514
  168SAPE  H12B18924   1.255   1.167   6.547 -0.6735  0.1158  1.0931
  168SAPE   C1118925   1.456   1.074   6.567  0.2040 -0.4555  0.1269
  168SAPE  H11A18926   1.501   0.972   6.571 -0.0209 -0.5883 -0.4975
  168SAPE  H11B18927   1.480   1.133   6.657  0.9922  1.3897 -1.2267
  168SAPE     P18928   1.607   1.240   6.422 -0.6608 -0.1421  0.0231
  168SAPE   O1318929   1.706   1.185   6.328 -0.3625  0.3584  0.0245
  168SAPE   O1418930   1.553   1.368   6.383  0.2231 -0.1156  0.2731
  168SAPE   O1218931   1.508   1.125   6.443 -0.1588 -0.5296  0.6252
  168SAPE   O1118932   1.685   1.253   6.559 -0.1753  0.1563 -0.4778
  168SAPE    C118933   1.771   1.147   6.601 -0.2748 -0.2941 -0.9728
  168SAPE    HA18934   1.714   1.051   6.606 -0.9919  0.1050 -1.3782
  168SAPE    HB18935   1.859   1.132   6.535  0.1535  0.8149 -0.6696
  168SAPE    C218936   1.830   1.176   6.738  0.2718  0.2519  0.4617
  168SAPE    HS18937   1.884   1.088   6.779 -0.5605 -0.2748  0.4477
  168SAPE   O2118938   1.746   1.218   6.841 -0.1477  0.2045 -0.8526
  168SAPE   C2118939   1.646   1.140   6.871 -0.4402  0.1174 -0.5908
  168SAPE   O2218940   1.627   1.029   6.823 -0.1011  0.2722 -0.4314
  168SAPE   C2218941   1.567   1.209   6.980  0.4869  0.5444  0.3373
  168SAPE   H2R18942   1.638   1.266   7.044  0.4441 -0.2791  1.1393
  168SAPE   H2S18943   1.500   1.283   6.933 -0.7106  0.3031  1.6300
  168SAPE    C318944   1.937   1.284   6.723 -0.3594  0.1225 -0.3461
  168SAPE    HX18945   1.909   1.371   6.659 -3.1885 -0.5848 -0.2144
  168SAPE    HY18946   2.016   1.235   6.662 -1.2887 -0.5725 -1.0183
  168SAPE   O3118947   1.983   1.347   6.852 -0.4984  0.4176  0.4073
  168SAPE   C3118948   2.073   1.274   6.929  0.3420 -0.4798  0.0713
  168SAPE   O3218949   2.120   1.170   6.891  0.7601 -0.1437  0.3688
  168SAPE   C3218950   2.086   1.335   7.065 -1.0206  0.4357 -0.5687
  168SAPE   H2X18951   2.063   1.443   7.054 -2.1676  0.1671 -1.0231
  168SAPE   H2Y18952   2.188   1.324   7.108 -2.5874 -2.7817  2.9479
  168SAPE   C2318953   1.487   1.116   7.066  0.2835  0.2012 -0.3255
  168SAPE   H3R18954   1.412   1.059   7.009  1.3625 -0.7086 -0.8627
  168SAPE   H3S18955   1.428   1.176   7.139 -1.9706 -0.9511 -1.1378
  168SAPE   C2418956   1.579   1.023   7.146  0.0734 -0.1340 -0.0628
  168SAPE   H4R18957   1.669   1.068   7.194  0.9709 -1.1012 -0.7794
  168SAPE   H4S18958   1.623   0.961   7.064 -1.0999  2.4935 -2.8937
  168SAPE   C2518959   1.501   0.937   7.243 -0.5058 -0.1081  0.3422
  168SAPE   H5R18960   1.449   0.851   7.198  0.3462  0.0096 -0.9420
  168SAPE   C2618961   1.499   0.963   7.374 -0.1071  0.0282 -0.1355
  168SAPE   H6R18962   1.441   0.901   7.444  0.3953 -0.1946  0.0934
  168SAPE   C2718963   1.573   1.077   7.447  0.0432 -0.4162 -0.6303
  168SAPE   H7R18964   1.610   1.156   7.379  1.8682 -0.6995 -0.0073
  168SAPE   H7S18965   1.657   1.026   7.499  0.9186  0.8941 -0.7067
  168SAPE   C2818966   1.480   1.137   7.548  0.0819  0.0059 -0.0634
  168SAPE   H8R18967   1.431   1.228   7.511 -1.2650  0.4006  2.5444
  168SAPE   C2918968   1.438   1.087   7.665 -0.1801  0.7930 -0.5549
  168SAPE   H9R18969   1.371   1.136   7.738  2.0120 -0.5420  2.5480
  168SAPE  C21018970   1.500   0.957   7.716  0.3071 -0.7355  0.1715
  168SAPE  H10R18971   1.490   0.967   7.826  0.4169 -0.1953  0.1370
  168SAPE  H10S18972   1.611   0.955   7.710  0.5608  0.0847  3.0604
  168SAPE  C21118973   1.447   0.819   7.690  0.1132 -0.4540 -0.2146
  168SAPE  H11R18974   1.526   0.751   7.655  0.8822  1.5027 -2.5793
  168SAPE  C21218975   1.327   0.759   7.709 -0.7140  0.6804 -0.0217
  168SAPE  H12R18976   1.322   0.653   7.681 -0.1976  0.4962  0.5550
  168SAPE  C21318977   1.200   0.814   7.764  0.0490  0.2755 -0.2019
  168SAPE  H13R18978   1.202   0.925   7.778  4.0981  0.2318  0.8092
  168SAPE  H13S18979   1.178   0.785   7.869  1.8684 -1.3531 -0.2224
  168SAPE  C21418980   1.089   0.776   7.673 -0.3327 -0.3023  0.9127
  168SAPE  H14R18981   1.113   0.795   7.568 -0.9987 -1.3562  0.5565
  168SAPE  C21518982   0.964   0.735   7.697  0.8276 -0.4062 -0.1667
  168SAPE  H15R18983   0.893   0.708   7.617  0.1538  1.4486 -0.2311
  168SAPE  C21618984   0.917   0.695   7.834  0.0401  0.6207 -0.1123
  168SAPE  H16R18985   0.849   0.774   7.872 -3.3189 -2.5004  0.8943
  168SAPE  H16S18986   1.001   0.675   7.903  0.1160 -0.3514 -0.4620
  168SAPE  C21718987   0.828   0.569   7.817  0.0286  0.2123 -0.0549
  168SAPE  H17R18988   0.871   0.484   7.759 -1.3316 -2.0947  2.1094
  168SAPE  H17S18989   0.735   0.592   7.761 -1.5288 -2.0808  1.3977
  168SAPE  C21818990   0.776   0.523   7.954 -0.4768 -0.3149  0.0028
  168SAPE  H18R18991   0.751   0.616   8.008  0.4602  1.3803 -2.3235
  168SAPE  H18S18992   0.860   0.482   8.016  0.0515  1.8877  0.8242
  168SAPE  C21918993   0.659   0.425   7.942  0.9190  0.1030  0.0836
  168SAPE  H19R18994   0.696   0.361   7.859 -0.0343 -0.1742 -0.1390
  168SAPE  H19S18995   0.573   0.483   7.902  0.0621  0.9404  2.8819
  168SAPE  C22018996   0.623   0.352   8.065 -0.2401  0.0779  0.5130
  168SAPE  H20R18997   0.690   0.264   8.077 -0.8129 -0.4122  0.1261
  168SAPE  H20S18998   0.518   0.316   8.067 -0.3453  0.4006  0.9546
  168SAPE  H20T18999   0.635   0.419   8.153  0.6311  0.6489 -0.0225
  168SAPE   C3319000   1.983   1.278   7.166 -0.3588 -0.4748 -0.2273
  168SAPE   H3X19001   1.961   1.171   7.146 -2.7612  0.0899 -0.8752
  168SAPE   H3Y19002   1.892   1.341   7.165  0.1036  0.3277  1.7978
  168SAPE   C3419003   2.030   1.298   7.317 -0.0063  0.0548  0.0875
  168SAPE   H4X19004   2.036   1.408   7.333  0.8497 -0.2385  2.1327
  168SAPE   H4Y19005   2.132   1.258   7.336  0.8272  1.7084 -0.6858
  168SAPE   C3519006   1.920   1.254   7.419  0.0532  0.1083 -0.5866
  168SAPE   H5X19007   1.908   1.143   7.422 -0.4340  0.1777  1.1105
  168SAPE   H5Y19008   1.817   1.290   7.399  0.0877  0.6965  0.2699
  168SAPE   C3619009   1.956   1.278   7.570  0.1703  0.0129  0.4961
  168SAPE   H6X19010   1.876   1.247   7.640 -0.8108  0.6111 -0.3463
  168SAPE   H6Y19011   1.969   1.387   7.579 -1.0368  0.0505  2.3526
  168SAPE   C3719012   2.098   1.220   7.608 -0.5773 -0.2277 -0.6127
  168SAPE   H7X19013   2.171   1.283   7.554 -0.4979  1.0668  0.9210
  168SAPE   H7Y19014   2.100   1.111   7.586 -0.4401 -0.6661  1.3794
  168SAPE   C3819015   2.131   1.240   7.763 -0.3763 -0.2691  0.4645
  168SAPE   H8X19016   2.126   1.348   7.792 -1.7194 -0.4764  1.0921
  168SAPE   H8Y19017   2.237   1.211   7.777 -0.1191  0.0493 -0.7103
  168SAPE   C3919018   2.040   1.164   7.855 -0.2487  0.5352  0.1580
  168SAPE   H9X19019   2.051   1.056   7.832  1.2082  0.4604  1.0245
  168SAPE   H9Y19020   1.936   1.180   7.821  0.3838  0.6452 -1.8942
  168SAPE  C31019021   2.067   1.190   8.000  0.7998 -0.1760 -0.3861
  168SAPE  H10X19022   2.172   1.185   8.035  0.2148  0.1022  1.5556
  168SAPE  H10Y19023   1.992   1.125   8.050 -0.9332  1.7160 -0.3722
  168SAPE  C31119024   2.040   1.334   8.063 -0.2259  0.4893  0.6997
  168SAPE  H11X19025   1.930   1.351   8.064 -0.5983 -0.8184 -2.6810
  168SAPE  H11Y19026   2.092   1.408   7.999 -0.7876  1.8092  1.7061
  168SAPE  C31219027   2.082   1.351   8.202 -1.0130 -0.5020 -0.3062
  168SAPE  H12X19028   2.050   1.448   8.246 -0.1837  0.8760 -2.5517
  168SAPE  H12Y19029   2.190   1.342   8.228 -1.6290 -1.2651  2.2867
  168SAPE  C31319030   2.023   1.239   8.299  0.3401 -0.4989  0.3075
  168SAPE  H13X19031   2.060   1.137   8.275  0.2734 -0.2920 -0.7509
  168SAPE  H13Y19032   1.915   1.240   8.275  0.1601 -2.1456  0.9013
  168SAPE  C31419033   2.049   1.280   8.443 -0.2145  0.0204 -0.6766
  168SAPE  H14X19034   2.005   1.378   8.470 -0.4684 -0.6870  1.7573
  168SAPE  H14Y19035   2.158   1.287   8.461 -0.2107 -1.4460  0.0777
  168SAPE  C31519036   1.989   1.178   8.548  0.2359  0.6778 -0.3423
  168SAPE  H15X19037   1.883   1.169   8.519 -0.9249  0.0844  3.5320
  168SAPE  H15Y19038   1.993   1.216   8.652 -2.5498  0.5253 -0.1208
  168SAPE  C31619039   2.066   1.045   8.555  0.1362 -0.0149 -0.3428
  168SAPE  H16X19040   2.172   1.061   8.583  0.4248 -1.0918 -0.7630
  168SAPE  H16Y19041   2.076   1.012   8.450 -3.5476 -1.6611 -0.3422
  168SAPE  C31719042   2.010   0.941   8.644 -0.0815 -0.1501  0.5546
  168SAPE  H17X19043   1.917   0.908   8.593 -1.0757 -0.2522  2.3461
  168SAPE  H17Y19044   1.986   0.982   8.745 -1.8545  1.3755 -0.4212
  168SAPE  C31819045   2.103   0.819   8.664  0.4577 -1.2116  0.1650
  168SAPE  H18X19046   2.195   0.853   8.717  0.9968  1.7431 -2.3655
  168SAPE  H18Y19047   2.123   0.782   8.561  2.8570 -1.7984  0.7759
  168SAPE  H18Z19048   2.045   0.735   8.708 -1.2218 -1.1007 -1.6586
  169SAPE     N19049   1.287   3.218   6.022 -0.4942 -0.3277 -0.2550
  169SAPE   HN119050   1.371   3.278   6.010 -1.5414  1.5224  0.9464
  169SAPE   HN219051   1.291   3.210   6.126  1.1598 -1.0334 -0.3510
  169SAPE   HN319052   1.304   3.130   5.970  1.5127 -0.2618  0.2313
  169SAPE   C1219053   1.153   3.282   5.991  0.1372  0.2141 -0.1904
  169SAPE  H12A19054   1.141   3.309   5.884 -2.3460 -1.3370 -0.3924
  169SAPE  H12B19055   1.159   3.374   6.053  0.3556 -0.4796  0.8510
  169SAPE   C1119056   1.031   3.208   6.044  0.0203 -0.3512 -0.1060
  169SAPE  H11A19057   1.024   3.128   5.967  1.6771 -0.2653 -0.3843
  169SAPE  H11B19058   0.937   3.267   6.038  1.4701  2.2138  1.1268
  169SAPE     P19059   1.003   3.252   6.308  0.0558 -0.0393  0.1032
  169SAPE   O1319060   1.072   3.204   6.430  0.3522  0.0017  1.2575
  169SAPE   O1419061   1.013   3.395   6.274 -0.1590 -0.3314 -0.8047
  169SAPE   O1219062   1.042   3.160   6.182 -0.4158  0.7362  0.1990
  169SAPE   O1119063   0.848   3.214   6.302 -0.2677 -0.3772 -0.1633
  169SAPE    C119064   0.789   3.099   6.359 -0.8457 -0.0765 -0.3914
  169SAPE    HA19065   0.745   3.045   6.273  2.2700  0.0339 -2.2056
  169SAPE    HB19066   0.868   3.028   6.392 -1.9287 -0.9224  0.4261
  169SAPE    C219067   0.681   3.118   6.465  0.2046 -0.6226 -0.0189
  169SAPE    HS19068   0.612   3.193   6.420 -0.2137 -0.6548  0.5618
  169SAPE   O2119069   0.755   3.176   6.573  0.3608  1.1783 -0.3883
  169SAPE   C2119070   0.688   3.239   6.671  0.2251  0.6302  0.2767
  169SAPE   O2219071   0.568   3.259   6.677  0.0260 -0.9971  0.2808
  169SAPE   C2219072   0.796   3.280   6.779  0.5240  0.4245  0.1412
  169SAPE   H2R19073   0.725   3.309   6.860 -0.2417 -1.9306  0.3977
  169SAPE   H2S19074   0.862   3.196   6.809  0.3422  0.5294  0.8549
  169SAPE    C319075   0.617   2.977   6.486 -0.0255  0.8693 -0.0832
  169SAPE    HX19076   0.699   2.903   6.485  0.0251  0.8632  1.6467
  169SAPE    HY19077   0.555   2.952   6.396 -0.4714  0.1470  0.4143
  169SAPE   O3119078   0.538   2.984   6.605  0.3402  0.1821  0.7315
  169SAPE   C3119079   0.483   2.869   6.644  0.3310  0.3075  0.3060
  169SAPE   O3219080   0.481   2.767   6.582 -0.1240 -0.1040 -0.2983
  169SAPE   C3219081   0.435   2.892   6.783  0.1758 -0.5584  0.4795
  169SAPE   H2X19082   0.328   2.863   6.782 -0.2069  0.7977 -0.3397
  169SAPE   H2Y19083   0.444   3.001   6.803  2.3059 -0.6090  0.0158
  169SAPE   C2319084   0.870   3.405   6.739 -0.5856  0.1566 -0.1848
  169SAPE   H3R19085   0.809   3.473   6.676 -1.1654  0.8765  1.1252
  169SAPE   H3S19086   0.963   3.374   6.686  1.0711 -0.8135  3.0206
  169SAPE   C2419087   0.912   3.485   6.871 -0.2601 -0.1841  0.5096
  169SAPE   H4R19088   0.826   3.533   6.922 -0.8148 -0.6150  0.0058
  169SAPE   H4S19089   0.980   3.568   6.842  0.0877 -0.8189 -0.5819
  169SAPE   C2519090   0.980   3.396   6.966 -0.0506  0.9397 -0.1449
  169SAPE   H5R19091   1.055   3.325   6.929 -1.2943 -0.9819  0.9148
  169SAPE   C2619092   0.956   3.388   7.101 -0.4710 -0.6104 -0.2877
  169SAPE   H6R19093   1.018   3.324   7.165  0.0150  0.2724  0.1368
  169SAPE   C2719094   0.867   3.461   7.196 -0.6173  0.3452  0.0426
  169SAPE   H7R19095   0.792   3.526   7.147  0.9724  2.1313 -0.1160
  169SAPE   H7S19096   0.935   3.522   7.260 -0.6821  2.3264 -1.6693
  169SAPE   C2819097   0.789   3.360   7.282 -0.3880 -0.2948  0.4841
  169SAPE   H8R19098   0.695   3.326   7.237 -1.6165  1.8545  1.2540
  169SAPE   C2919099   0.824   3.314   7.404 -0.5940  0.2589  0.8439
  169SAPE   H9R19100   0.760   3.237   7.450 -0.9349 -1.7659 -2.6803
  169SAPE  C21019101   0.957   3.331   7.475  0.1441 -0.1542 -0.2644
  169SAPE  H10R19102   1.042   3.328   7.403 -0.8052 -0.6730 -1.3816
  169SAPE  H10S19103   0.973   3.243   7.541 -3.3163 -0.7859 -0.0851
  169SAPE  C21119104   0.960   3.466   7.548 -0.5944 -0.7718 -0.0447
  169SAPE  H11R19105   1.029   3.543   7.513 -0.2807 -0.7845  0.5347
  169SAPE  C21219106   0.892   3.484   7.665  0.3875 -0.9112  0.4673
  169SAPE  H12R19107   0.886   3.588   7.699 -1.9062 -0.7141 -0.3282
  169SAPE  C21319108   0.805   3.379   7.743  0.1661 -0.4074  0.3058
  169SAPE  H13R19109   0.845   3.333   7.836 -0.4833 -1.8017 -0.0748
  169SAPE  H13S19110   0.789   3.286   7.684  1.9851  0.0310 -0.9719
  169SAPE  C21419111   0.675   3.448   7.750  0.3636  1.2032 -0.0460
  169SAPE  H14R19112   0.601   3.411   7.677  1.1755  0.4806 -0.5185
  169SAPE  C21519113   0.630   3.521   7.853 -0.0939 -0.0286  1.1039
  169SAPE  H15R19114   0.523   3.548   7.855 -0.6631 -1.9669  0.2969
  169SAPE  C21619115   0.702   3.549   7.987  0.7527  0.3985  0.6296
  169SAPE  H16R19116   0.802   3.501   7.980 -0.7077 -2.5825 -4.3071
  169SAPE  H16S19117   0.637   3.502   8.064 -1.1828  0.6623 -0.7667
  169SAPE  C21719118   0.729   3.700   8.011 -0.1279 -0.4956 -0.2665
  169SAPE  H17R19119   0.732   3.716   8.121 -0.3780  1.4615 -0.5090
  169SAPE  H17S19120   0.643   3.754   7.967 -0.8730 -1.5741 -0.1903
  169SAPE  C21819121   0.862   3.738   7.952 -0.7614 -0.3181  0.9205
  169SAPE  H18R19122   0.879   3.701   7.849  1.8161  0.6930  0.9163
  169SAPE  H18S19123   0.944   3.687   8.007  0.3149 -0.3844 -0.6991
  169SAPE  C21919124   0.895   3.888   7.967 -0.5024 -0.5684  0.0076
  169SAPE  H19R19125   0.999   3.892   7.929 -1.1819 -0.9336 -1.9932
  169SAPE  H19S19126   0.886   3.924   8.072  3.1829  2.1935 -0.4229
  169SAPE  C22019127   0.802   3.974   7.875 -0.0064  0.5087  0.3731
  169SAPE  H20R19128   0.827   3.944   7.771  1.2039  1.6309  0.3124
  169SAPE  H20S19129   0.837   4.077   7.896 -1.5762  0.8159  1.6444
  169SAPE  H20T19130   0.693   3.959   7.893 -0.6586  0.6660 -2.7783
  169SAPE   C3319131   0.509   2.812   6.897  0.4061  0.1505  0.4543
  169SAPE   H3X19132   0.492   2.703   6.880 -0.3463  0.4486 -0.8432
  169SAPE   H3Y19133   0.452   2.817   6.993  0.4447  1.0065  0.4368
  169SAPE   C3419134   0.661   2.831   6.917 -0.0161  0.2914  0.1226
  169SAPE   H4X19135   0.716   2.817   6.822 -0.4510  0.3814 -0.1485
  169SAPE   H4Y19136   0.708   2.762   6.991  1.0167  0.6949 -0.1474
  169SAPE   C3519137   0.688   2.979   6.954  0.4307  0.2616 -0.7994
  169SAPE   H5X19138   0.653   3.050   6.876 -1.4837  0.3679  0.1234
  169SAPE   H5Y19139   0.798   2.997   6.957  0.8260 -1.9446 -0.2231
  169SAPE   C3619140   0.619   3.020   7.088 -0.2296 -0.5574  0.0416
  169SAPE   H6X19141   0.509   3.010   7.083 -0.2764 -1.0927  1.5115
  169SAPE   H6Y19142   0.642   3.129   7.096 -0.6877 -0.5163  0.9271
  169SAPE   C3719143   0.675   2.956   7.215  0.0256 -0.1560  0.1050
  169SAPE   H7X19144   0.780   2.985   7.234 -0.3874  1.1592  0.4961
  169SAPE   H7Y19145   0.658   2.846   7.204 -1.5185  0.1363 -0.7741
  169SAPE   C3819146   0.600   3.012   7.333  0.0480 -0.1517 -0.9702
  169SAPE   H8X19147   0.492   2.985   7.337  0.0929 -0.4148 -1.4664
  169SAPE   H8Y19148   0.601   3.122   7.321  1.7124 -0.1070 -0.5910
  169SAPE   C3919149   0.664   2.971   7.471  0.4281 -0.2411 -0.2955
  169SAPE   H9X19150   0.774   2.976   7.461  0.3437  1.4841 -0.6348
  169SAPE   H9Y19151   0.650   2.861   7.467  0.8355 -0.2613 -1.4424
  169SAPE  C31019152   0.604   3.041   7.589  0.1595 -0.4599 -0.1583
  169SAPE  H10X19153   0.501   3.005   7.609 -0.4355  0.6805 -0.9872
  169SAPE  H10Y19154   0.596   3.149   7.565 -0.7546 -0.1046  1.5672
  169SAPE  C31119155   0.699   3.021   7.710 -0.2581 -0.3918 -0.4192
  169SAPE  H11X19156   0.798   3.066   7.687 -0.7162  0.2920 -1.1113
  169SAPE  H11Y19157   0.733   2.915   7.717  1.3207  0.1225  0.1410
  169SAPE  C31219158   0.643   3.069   7.839 -0.5395 -0.5899  0.3926
  169SAPE  H12X19159   0.540   3.031   7.858  0.3816 -3.4749  0.1838
  169SAPE  H12Y19160   0.639   3.179   7.848 -0.0540 -0.6505  1.6801
  169SAPE  C31319161   0.719   3.016   7.968 -0.5464 -0.2150 -0.1919
  169SAPE  H13X19162   0.818   3.066   7.975 -0.8675  0.3511  0.4110
  169SAPE  H13Y19163   0.722   2.905   7.957 -0.2190 -0.1894 -0.3818
  169SAPE  C31419164   0.634   3.054   8.089 -0.1501  0.6725  0.7329
  169SAPE  H14X19165   0.673   2.995   8.176 -1.1515 -0.1998  0.6129
  169SAPE  H14Y19166   0.525   3.036   8.074  0.0209 -0.4754  0.7508
  169SAPE  C31519167   0.646   3.199   8.123 -0.2309 -0.0175  0.3393
  169SAPE  H15X19168   0.562   3.250   8.071 -1.2176 -2.6351 -0.7842
  169SAPE  H15Y19169   0.747   3.242   8.102 -0.4704  1.4591  1.9315
  169SAPE  C31619170   0.637   3.227   8.274  0.0542  0.0800  0.5558
  169SAPE  H16X19171   0.643   3.337   8.288  2.2230  0.2318 -1.1257
  169SAPE  H16Y19172   0.730   3.187   8.319  0.4296  1.7774  1.3647
  169SAPE  C31719173   0.514   3.174   8.347  0.5228 -0.1509  0.1710
  169SAPE  H17X19174   0.517   3.068   8.381 -3.2075 -0.5426 -0.2876
  169SAPE  H17Y19175   0.423   3.176   8.285  0.0957 -0.4909  0.7710
  169SAPE  C31819176   0.491   3.260   8.472 -0.1552 -0.0053 -0.8007
  169SAPE  H18X19177   0.493   3.368   8.449  1.0166 -0.1141 -1.2549
  169SAPE  H18Y19178   0.574   3.244   8.544 -2.0872  0.2980  1.6341
  169SAPE  H18Z19179   0.393   3.230   8.516  0.2186 -0.7854 -0.4805
  170SAPE     N19180   2.117   0.160   5.977 -0.0708  0.5569 -0.9002
  170SAPE   HN119181   2.201   0.211   6.012 -2.2694  3.4669  0.6032
  170SAPE   HN219182   2.133   0.132   5.878 -0.8767  0.5907 -1.0484
  170SAPE   HN319183   2.040   0.230   5.981  0.8694  1.6249 -1.2163
  170SAPE   C1219184   2.088   0.044   6.072 -1.1211 -0.0559  0.5359
  170SAPE  H12A19185   2.182  -0.007   6.103 -2.0206 -1.4786  1.0437
  170SAPE  H12B19186   2.039  -0.029   6.004 -0.2193  1.0513 -1.3617
  170SAPE   C1119187   2.005   0.097   6.187  0.2795 -0.0956  0.3641
  170SAPE  H11A19188   2.070   0.162   6.250 -2.4964  3.8518 -0.4384
  170SAPE  H11B19189   1.968   0.001   6.230 -0.7453 -0.4036 -1.1512
  170SAPE     P19190   1.872   0.322   6.161  0.0885 -0.3338  0.0827
  170SAPE   O1319191   1.961   0.397   6.065 -0.3925  0.2939  0.2719
  170SAPE   O1419192   1.727   0.343   6.157 -0.1495 -0.1316  0.5458
  170SAPE   O1219193   1.896   0.173   6.139 -0.3654 -0.4381  0.1828
  170SAPE   O1119194   1.936   0.343   6.299  0.3857  0.2202 -0.2418
  170SAPE    C119195   1.874   0.323   6.428  0.0717 -0.7830 -0.2960
  170SAPE    HA19196   1.837   0.219   6.432 -0.8539 -0.4796 -0.6902
  170SAPE    HB19197   1.955   0.341   6.502 -1.3046  1.7414  0.7096
  170SAPE    C219198   1.764   0.427   6.458  0.5179  0.0507 -0.0630
  170SAPE    HS19199   1.689   0.424   6.376  0.5976  0.1423 -0.1394
  170SAPE   O2119200   1.828   0.555   6.457 -0.2626  0.1669  0.0005
  170SAPE   C2119201   1.750   0.655   6.496  0.2199  0.4630  0.0555
  170SAPE   O2219202   1.625   0.656   6.501  0.2699 -0.3935  0.3416
  170SAPE   C2219203   1.838   0.772   6.550  0.7437 -0.3106  0.1386
  170SAPE   H2R19204   1.880   0.826   6.462 -0.6922 -2.4788 -2.0043
  170SAPE   H2S19205   1.774   0.844   6.606  0.9768  0.1282 -0.1534
  170SAPE    C319206   1.688   0.383   6.591  0.7277 -0.3667 -0.6516
  170SAPE    HX19207   1.600   0.448   6.610  0.1457 -0.3929 -2.9023
  170SAPE    HY19208   1.755   0.402   6.677  0.7707 -0.6842 -0.6130
  170SAPE   O3119209   1.643   0.247   6.590 -0.7829  0.6592 -0.1042
  170SAPE   C3119210   1.529   0.231   6.536  0.0483  0.1630  0.0397
  170SAPE   O3219211   1.447   0.319   6.513  0.1037  0.3260 -0.2082
  170SAPE   C3219212   1.509   0.083   6.496 -0.8055  0.0191  0.1070
  170SAPE   H2X19213   1.599   0.058   6.436 -2.1164  1.2400 -2.4819
  170SAPE   H2Y19214   1.419   0.091   6.432 -0.0320  0.1050 -0.9996
  170SAPE   C2319215   1.954   0.720   6.633 -0.8644  0.2564  0.3458
  170SAPE   H3R19216   2.031   0.801   6.626 -2.2184  1.4739 -1.3359
  170SAPE   H3S19217   2.004   0.636   6.581  0.0206  2.3972 -2.4993
  170SAPE   C2419218   1.927   0.665   6.774  0.4452 -1.1816  0.1337
  170SAPE   H4R19219   2.028   0.639   6.812  1.1170  0.3239 -0.5280
  170SAPE   H4S19220   1.859   0.577   6.767 -1.3788  0.2511 -1.5441
  170SAPE   C2519221   1.873   0.765   6.869  0.2071  0.5416  0.5929
  170SAPE   H5R19222   1.769   0.798   6.852  0.3548 -0.5851 -3.5479
  170SAPE   C2619223   1.923   0.798   6.989 -0.2387  0.1710 -0.3320
  170SAPE   H6R19224   1.869   0.866   7.056  2.8603  0.2815  2.3762
  170SAPE   C2719225   2.055   0.751   7.052  0.1053  0.4198  0.2477
  170SAPE   H7R19226   2.116   0.683   6.989 -2.0211  0.9300 -2.5269
  170SAPE   H7S19227   2.034   0.700   7.148 -0.5000 -0.3365 -0.2789
  170SAPE   C2819228   2.136   0.874   7.073 -0.8360 -0.9257  0.1402
  170SAPE   H8R19229   2.188   0.915   6.985  1.2929  0.3986  1.9113
  170SAPE   C2919230   2.165   0.935   7.187  1.1391 -0.9574  0.6593
  170SAPE   H9R19231   2.247   1.008   7.199 -0.1325  0.4131  1.3053
  170SAPE  C21019232   2.110   0.893   7.319 -0.1848 -0.4057  0.5027
  170SAPE  H10R19233   2.000   0.881   7.310 -0.4197  2.4536 -2.0586
  170SAPE  H10S19234   2.123   0.975   7.393 -0.0164  0.1145 -0.0976
  170SAPE  C21119235   2.175   0.771   7.377 -0.3991  0.1633  0.1864
  170SAPE  H11R19236   2.166   0.691   7.302 -0.4162  1.4714 -1.2639
  170SAPE  C21219237   2.204   0.740   7.506 -0.2847 -0.1239 -0.2389
  170SAPE  H12R19238   2.247   0.641   7.527 -0.8913 -0.5427 -0.9595
  170SAPE  C21319239   2.200   0.829   7.626 -0.0892 -0.8693 -0.3494
  170SAPE  H13R19240   2.157   0.773   7.711 -0.3241 -2.2264 -1.3330
  170SAPE  H13S19241   2.126   0.911   7.615 -0.9368 -1.3941  1.1885
  170SAPE  C21419242   2.324   0.911   7.661 -0.1379  0.3318 -0.3979
  170SAPE  H14R19243   2.391   0.945   7.581 -1.5831  2.7042 -0.6743
  170SAPE  C21519244   2.374   0.928   7.788 -0.2070  0.8405  0.2538
  170SAPE  H15R19245   2.467   0.983   7.808  0.3870 -0.2592  0.5953
  170SAPE  C21619246   2.317   0.886   7.921 -1.5119 -0.1326  0.1422
  170SAPE  H16R19247   2.352   0.782   7.937  1.1745  0.6299 -0.3199
  170SAPE  H16S19248   2.206   0.894   7.925 -1.4741  0.3081  0.5497
  170SAPE  C21719249   2.388   0.959   8.037  0.2814 -0.1746 -0.5740
  170SAPE  H17R19250   2.374   1.069   8.039  1.0164 -0.0720  1.8364
  170SAPE  H17S19251   2.497   0.940   8.048  0.4605  1.5360  1.0092
  170SAPE  C21819252   2.325   0.910   8.173  0.6614 -0.2307  0.1159
  170SAPE  H18R19253   2.336   0.802   8.198 -1.0789 -0.6967 -0.9156
  170SAPE  H18S19254   2.215   0.927   8.170  0.6470 -0.3934 -0.4434
  170SAPE  C21919255   2.390   0.979   8.293 -0.8732 -0.2809 -0.0234
  170SAPE  H19R19256   2.500   0.962   8.292 -0.9812 -0.9857 -0.7821
  170SAPE  H19S19257   2.349   0.937   8.387  0.1391 -3.6626 -0.9475
  170SAPE  C22019258   2.375   1.128   8.293 -0.0407  0.1708 -0.0124
  170SAPE  H20R19259   2.271   1.139   8.255 -0.3641  0.5220  0.9447
  170SAPE  H20S19260   2.448   1.175   8.223 -1.7001 -0.3782 -2.2184
  170SAPE  H20T19261   2.385   1.182   8.390 -0.4265  1.6381 -0.7638
  170SAPE   C3319262   1.485   0.005   6.627  0.1876  0.1281 -0.4094
  170SAPE   H3X19263   1.566   0.027   6.700  0.3274 -2.2136  0.2496
  170SAPE   H3Y19264   1.484  -0.106   6.619 -1.5206 -0.0490  1.5708
  170SAPE   C3419265   1.352   0.041   6.690 -0.1781  0.0290  0.5750
  170SAPE   H4X19266   1.269  -0.008   6.634  1.0069 -0.9738 -0.3526
  170SAPE   H4Y19267   1.329   0.149   6.691 -2.3340 -0.3767 -0.3430
  170SAPE   C3519268   1.346   0.013   6.837  0.0114 -0.0418  0.3563
  170SAPE   H5X19269   1.418   0.084   6.884  2.7125 -2.0826 -0.4659
  170SAPE   H5Y19270   1.389  -0.087   6.861 -1.8806 -0.7894  0.8056
  170SAPE   C3619271   1.216   0.021   6.906  0.6054  1.0126 -0.2271
  170SAPE   H6X19272   1.158   0.111   6.877 -2.3345  0.0945  2.2110
  170SAPE   H6Y19273   1.233   0.049   7.012 -0.5466 -0.5723  0.4228
  170SAPE   C3719274   1.133  -0.112   6.918  0.8798  0.1818 -0.7749
  170SAPE   H7X19275   1.196  -0.203   6.909 -0.0206 -0.3052 -2.5007
  170SAPE   H7Y19276   1.068  -0.123   6.829  0.9161 -3.6960 -0.5076
  170SAPE   C3819277   1.046  -0.109   7.044 -0.3137 -0.2861  0.0936
  170SAPE   H8X19278   0.950  -0.163   7.040 -0.8395  0.6280  0.0281
  170SAPE   H8Y19279   1.000  -0.008   7.037 -1.8421 -0.8061  1.8372
  170SAPE   C3919280   1.120  -0.146   7.171 -0.8330  0.5271 -0.0637
  170SAPE   H9X19281   1.200  -0.070   7.185 -0.6977  0.4259 -0.2885
  170SAPE   H9Y19282   1.192  -0.230   7.160  0.6825  1.6091  1.1115
  170SAPE  C31019283   1.031  -0.164   7.290  0.3519 -0.9800  0.2219
  170SAPE  H10X19284   0.961  -0.246   7.264  0.5446 -1.1036  0.0840
  170SAPE  H10Y19285   0.968  -0.074   7.306  1.0312 -0.9033  2.9755
  170SAPE  C31119286   1.101  -0.182   7.418  0.1016 -0.2565 -0.3420
  170SAPE  H11X19287   1.168  -0.269   7.404  0.2728  0.0121 -1.2420
  170SAPE  H11Y19288   1.016  -0.211   7.483  0.5645  0.2216  0.4919
  170SAPE  C31219289   1.190  -0.068   7.468  0.4898 -0.5764  0.0144
  170SAPE  H12X19290   1.121   0.017   7.488 -0.8424 -1.4010 -0.9089
  170SAPE  H12Y19291   1.259  -0.042   7.385  1.9644 -2.2913  0.6476
  170SAPE  C31319292   1.273  -0.105   7.593  0.9036  1.4790 -0.2645
  170SAPE  H13X19293   1.333  -0.017   7.627  1.2178  0.9982  0.4460
  170SAPE  H13Y19294   1.348  -0.179   7.559 -1.3228 -0.5004 -1.0909
  170SAPE  C31419295   1.193  -0.155   7.719 -0.0357  0.7718  0.9897
  170SAPE  H14X19296   1.115  -0.226   7.683 -1.4955  2.0764  1.4404
  170SAPE  H14Y19297   1.138  -0.066   7.756 -0.6771  0.2485  1.3152
  170SAPE  C31519298   1.284  -0.217   7.831  0.1241 -0.6438 -0.5150
  170SAPE  H15X19299   1.374  -0.153   7.845  0.6118 -1.3117 -0.5593
  170SAPE  H15Y19300   1.312  -0.316   7.791  0.3105 -0.4539 -0.8612
  170SAPE  C31619301   1.223  -0.214   7.971  0.5506  0.1775  0.4232
  170SAPE  H16X19302   1.132  -0.278   7.969 -0.3740  1.4703 -0.3678
  170SAPE  H16Y19303   1.189  -0.114   8.006  0.4068  1.0897 -2.1427
  170SAPE  C31719304   1.320  -0.264   8.081  0.5126 -0.3021 -0.3068
  170SAPE  H17X19305   1.425  -0.235   8.056  1.6684 -4.3712 -0.9613
  170SAPE  H17Y19306   1.318  -0.375   8.076 -0.0683 -0.2720 -0.8329
  170SAPE  C31819307   1.268  -0.220   8.221  0.0010  0.1351 -1.0754
  170SAPE  H18X19308   1.157  -0.213   8.224 -0.0285  1.0116 -2.8367
  170SAPE  H18Y19309   1.313  -0.124   8.253 -1.8645  0.6289  0.2411
  170SAPE  H18Z19310   1.304  -0.298   8.291 -1.0858  0.7460  0.2057
  171SAPE     N19311   2.797   1.196   6.038 -0.2351  0.5066 -0.4931
  171SAPE   HN119312   2.735   1.247   6.105  0.9098  2.8232 -1.0668
  171SAPE   HN219313   2.861   1.270   6.001  1.9864 -0.4534  1.1970
  171SAPE   HN319314   2.742   1.149   5.964 -0.6850  0.4274 -0.1096
  171SAPE   C1219315   2.853   1.084   6.123 -0.2780  0.3354 -0.4642
  171SAPE  H12A19316   2.931   1.036   6.059  0.3674 -1.1016  1.3162
  171SAPE  H12B19317   2.774   1.008   6.143  2.8069 -2.7935  0.8541
  171SAPE   C1119318   2.922   1.133   6.247  0.1946  0.5280 -0.0894
  171SAPE  H11A19319   2.975   1.050   6.298  0.5688  0.5532 -0.4349
  171SAPE  H11B19320   2.850   1.156   6.329  0.7321  2.6179 -0.1506
  171SAPE     P19321   3.132   1.273   6.308  0.3627 -0.0861  0.3230
  171SAPE   O1319322   3.226   1.167   6.297  0.0435  1.3588 -0.0860
  171SAPE   O1419323   3.194   1.406   6.262  0.1475 -0.3967 -0.2479
  171SAPE   O1219324   3.005   1.244   6.228 -0.1393  0.4062  0.2693
  171SAPE   O1119325   3.073   1.282   6.456 -0.3807 -0.5939  0.0589
  171SAPE    C119326   3.162   1.302   6.560 -0.2536  0.0232 -0.3468
  171SAPE    HA19327   3.261   1.259   6.535  0.4358  1.2714  0.1770
  171SAPE    HB19328   3.182   1.410   6.576 -0.1379 -0.1350  0.6433
  171SAPE    C219329   3.109   1.257   6.700  0.1438  0.1338  0.6078
  171SAPE    HS19330   3.005   1.291   6.682  0.0728 -0.4194 -0.0656
  171SAPE   O2119331   3.174   1.329   6.801 -0.1340 -0.4021 -0.9376
  171SAPE   C2119332   3.101   1.346   6.915 -0.1660  0.0911  0.8082
  171SAPE   O2219333   2.985   1.309   6.933  0.1549 -0.8009  0.9398
  171SAPE   C2219334   3.186   1.422   7.019  0.4298 -0.0818  0.1127
  171SAPE   H2R19335   3.285   1.442   6.972  0.9102 -2.3706  0.0153
  171SAPE   H2S19336   3.130   1.516   7.039  0.4956  0.2656 -1.2682
  171SAPE    C319337   3.138   1.101   6.713 -0.6382 -0.3190  0.3915
  171SAPE    HX19338   3.242   1.080   6.677 -0.7042 -2.4559  1.2959
  171SAPE    HY19339   3.070   1.047   6.644  0.4321  1.5766 -2.3620
  171SAPE   O3119340   3.134   1.062   6.852 -0.0230  0.4677  0.8423
  171SAPE   C3119341   3.023   1.008   6.894  0.3362  0.3241 -0.1172
  171SAPE   O3219342   2.922   0.990   6.830  0.8890  0.2350  0.2186
  171SAPE   C3219343   3.031   0.998   7.048 -0.2901  0.7017  0.3347
  171SAPE   H2X19344   3.013   1.099   7.090  0.6778  1.1974 -0.4119
  171SAPE   H2Y19345   3.133   0.965   7.075 -0.8711  0.0380  1.8754
  171SAPE   C2319346   3.232   1.355   7.149  0.3276 -0.0631 -0.6246
  171SAPE   H3R19347   3.326   1.399   7.188  1.1363 -1.2442 -1.1857
  171SAPE   H3S19348   3.263   1.254   7.113  1.4350  0.3807 -0.9317
  171SAPE   C2419349   3.130   1.358   7.266  0.5463  0.4057  0.0320
  171SAPE   H4R19350   3.040   1.301   7.236  1.3554 -1.0357  0.2696
  171SAPE   H4S19351   3.097   1.464   7.270  0.0135  0.2362  0.1482
  171SAPE   C2519352   3.183   1.297   7.393  0.8409 -0.0433 -0.8049
  171SAPE   H5R19353   3.164   1.190   7.408 -3.0523  0.5378 -0.3384
  171SAPE   C2619354   3.236   1.368   7.501  0.1815 -0.1613  0.7545
  171SAPE   H6R19355   3.278   1.310   7.585  2.9058  1.0439  0.3449
  171SAPE   C2719356   3.255   1.520   7.505  0.2104 -0.3887 -0.7907
  171SAPE   H7R19357   3.214   1.561   7.409  0.3547 -2.4462 -1.7901
  171SAPE   H7S19358   3.360   1.553   7.497 -0.8462  3.1750 -1.7441
  171SAPE   C2819359   3.178   1.579   7.623  0.8354 -0.3584  0.5524
  171SAPE   H8R19360   3.070   1.592   7.611  0.9358  3.5938  2.3465
  171SAPE   C2919361   3.230   1.631   7.732 -0.3499 -0.9648  0.2509
  171SAPE   H9R19362   3.172   1.692   7.803  0.4695 -0.4520  0.4938
  171SAPE  C21019363   3.375   1.637   7.770 -0.1022 -0.1451 -0.8619
  171SAPE  H10R19364   3.444   1.617   7.686  0.8274  0.0394 -0.1528
  171SAPE  H10S19365   3.393   1.544   7.829  2.9626  0.4018 -0.7900
  171SAPE  C21119366   3.403   1.764   7.854  0.3135  0.2612  0.6142
  171SAPE  H11R19367   3.454   1.846   7.801  1.2715 -0.4462  0.4226
  171SAPE  C21219368   3.381   1.784   7.989 -0.1039 -0.6984 -0.3101
  171SAPE  H12R19369   3.401   1.882   8.033  0.6231 -1.1825  0.4726
  171SAPE  C21319370   3.326   1.685   8.085 -0.2478  0.3708  0.2997
  171SAPE  H13R19371   3.226   1.649   8.055 -0.3147  1.0364 -0.3199
  171SAPE  H13S19372   3.311   1.734   8.184 -0.4157 -1.0427  0.9981
  171SAPE  C21419373   3.424   1.566   8.104 -0.6895  0.0327  0.4222
  171SAPE  H14R19374   3.427   1.490   8.024 -2.2077  0.6313 -0.2500
  171SAPE  C21519375   3.489   1.534   8.214 -0.1771 -0.0111  0.3820
  171SAPE  H15R19376   3.539   1.436   8.217  0.3766  0.1835 -1.4664
  171SAPE  C21619377   3.491   1.604   8.349 -0.5494  0.3040 -0.6236
  171SAPE  H16R19378   3.514   1.540   8.437  1.7829  0.6950 -0.8853
  171SAPE  H16S19379   3.391   1.650   8.370  0.2204  2.4161 -1.3276
  171SAPE  C21719380   3.609   1.706   8.354  0.2727 -0.2875  0.5254
  171SAPE  H17R19381   3.585   1.783   8.278  1.0306 -0.6087 -0.0574
  171SAPE  H17S19382   3.709   1.663   8.329  0.3023 -0.1523  0.4092
  171SAPE  C21819383   3.622   1.771   8.488  0.0642  0.8123  0.4526
  171SAPE  H18R19384   3.685   1.708   8.554 -0.5007  0.2504  0.4615
  171SAPE  H18S19385   3.528   1.784   8.545 -0.8770  1.3186 -1.1482
  171SAPE  C21919386   3.697   1.909   8.478 -0.4821 -0.0589  0.0150
  171SAPE  H19R19387   3.634   1.988   8.430  1.2792  0.4228 -1.6670
  171SAPE  H19S19388   3.796   1.911   8.427  0.0632  1.4709  1.0354
  171SAPE  C22019389   3.724   1.968   8.623 -0.3718  0.0596  0.4576
  171SAPE  H20R19390   3.779   1.904   8.695  1.0001  2.2678  1.4937
  171SAPE  H20S19391   3.628   1.994   8.672 -1.0155  1.5797 -1.4876
  171SAPE  H20T19392   3.782   2.062   8.613  0.8146 -0.5686  1.2664
  171SAPE   C3319393   2.934   0.885   7.102 -0.6809  0.2411  0.7202
  171SAPE   H3X19394   2.986   0.787   7.107  1.1013  1.1950  2.5789
  171SAPE   H3Y19395   2.844   0.887   7.037  1.4828  2.1785 -2.4729
  171SAPE   C3419396   2.885   0.915   7.238 -0.1152  0.2562  1.2775
  171SAPE   H4X19397   2.831   0.825   7.273  1.8811 -1.3553  0.4382
  171SAPE   H4Y19398   2.811   0.996   7.222  1.0282  1.0640 -0.2009
  171SAPE   C3519399   2.984   0.964   7.348  0.3501  0.5988  0.3103
  171SAPE   H5X19400   2.928   0.989   7.440  0.5252  1.3480  0.2186
  171SAPE   H5Y19401   3.039   1.050   7.304  2.1646 -0.1398  1.0362
  171SAPE   C3619402   3.078   0.850   7.396  0.5754 -0.1844  0.5224
  171SAPE   H6X19403   3.133   0.816   7.306 -0.6629  0.3502 -0.4627
  171SAPE   H6Y19404   3.012   0.765   7.425  0.0468  0.6234  1.7714
  171SAPE   C3719405   3.166   0.879   7.510  0.6684  0.6244  0.2442
  171SAPE   H7X19406   3.242   0.954   7.478  1.6098 -1.3666 -2.5774
  171SAPE   H7Y19407   3.227   0.786   7.521 -0.6997 -0.4829 -1.0977
  171SAPE   C3819408   3.087   0.900   7.637  0.2445  0.2614  0.7466
  171SAPE   H8X19409   3.015   0.816   7.648  0.5306 -0.1189 -0.1875
  171SAPE   H8Y19410   3.048   1.002   7.619  2.8212  1.5047  1.6200
  171SAPE   C3919411   3.165   0.896   7.766  0.0306  0.3267 -0.2059
  171SAPE   H9X19412   3.231   0.985   7.755 -0.8127  0.6586 -3.5349
  171SAPE   H9Y19413   3.243   0.816   7.760  0.2850  0.0443  4.0094
  171SAPE  C31019414   3.079   0.896   7.892 -0.1774 -0.0048 -0.0484
  171SAPE  H10X19415   2.987   0.834   7.892 -0.7328  0.7953 -1.0044
  171SAPE  H10Y19416   3.043   1.001   7.891  0.0101  0.0615  0.0570
  171SAPE  C31119417   3.164   0.888   8.016  0.7119  0.0811  0.1462
  171SAPE  H11X19418   3.093   0.920   8.094 -1.3876 -0.7833 -1.3171
  171SAPE  H11Y19419   3.252   0.956   8.013  0.2876  0.6264 -2.6342
  171SAPE  C31219420   3.209   0.746   8.028  0.3190 -0.4925  0.0340
  171SAPE  H12X19421   3.261   0.716   7.934 -0.4296  0.9820 -0.8924
  171SAPE  H12Y19422   3.114   0.689   8.039  0.7787 -1.0429  1.3760
  171SAPE  C31319423   3.301   0.723   8.151  0.2317 -0.2582 -0.1798
  171SAPE  H13X19424   3.245   0.743   8.245  1.9296 -2.6013  1.4659
  171SAPE  H13Y19425   3.391   0.787   8.134 -0.8717  0.6642 -3.1408
  171SAPE  C31419426   3.345   0.573   8.154  0.5127 -0.4719  0.1258
  171SAPE  H14X19427   3.381   0.538   8.055  0.3858  1.6530 -0.7313
  171SAPE  H14Y19428   3.252   0.517   8.177 -1.6727  2.7660 -0.0763
  171SAPE  C31519429   3.454   0.538   8.256  0.0808  0.2999  0.6946
  171SAPE  H15X19430   3.477   0.430   8.248  1.5439  0.5893  0.7389
  171SAPE  H15Y19431   3.420   0.541   8.362  0.4941 -2.1609  0.9549
  171SAPE  C31619432   3.580   0.620   8.237  0.3955  0.0359  0.0042
  171SAPE  H16X19433   3.644   0.593   8.323  0.8891 -1.3399 -0.7643
  171SAPE  H16Y19434   3.560   0.729   8.243  1.8572  0.2436  1.9714
  171SAPE  C31719435   3.661   0.567   8.121  0.9269  0.6208  0.8708
  171SAPE  H17X19436   3.585   0.561   8.041 -1.4840 -1.3160  3.1155
  171SAPE  H17Y19437   3.699   0.463   8.133 -1.4387 -0.1924  1.8210
  171SAPE  C31819438   3.770   0.656   8.068 -0.0555 -0.5867 -0.2672
  171SAPE  H18X19439   3.730   0.756   8.043 -3.6191 -1.6015  0.8401
  171SAPE  H18Y19440   3.812   0.608   7.976 -0.2457 -0.2852 -0.5097
  171SAPE  H18Z19441   3.856   0.664   8.138 -0.0648 -3.1218  0.1376
  172SAPE     N19442   2.280   6.406   6.048 -0.2347 -0.0889 -0.2067
  172SAPE   HN119443   2.258   6.381   5.950 -0.9121  2.1726 -0.6686
  172SAPE   HN219444   2.192   6.391   6.102  0.5776 -2.7577  0.5454
  172SAPE   HN319445   2.319   6.501   6.034  3.2243 -1.3620 -0.3802
  172SAPE   C1219446   2.385   6.330   6.116 -0.1650  0.1815 -0.4081
  172SAPE  H12A19447   2.464   6.315   6.039 -0.3979  0.5978 -0.7296
  172SAPE  H12B19448   2.326   6.238   6.139  0.1288 -0.2536 -1.3240
  172SAPE   C1119449   2.447   6.391   6.241  1.0800  0.2811 -0.4889
  172SAPE  H11A19450   2.504   6.324   6.309 -0.0194  1.2617  1.4847
  172SAPE  H11B19451   2.362   6.427   6.302  1.5160 -1.1598  1.0391
  172SAPE     P19452   2.680   6.521   6.223 -0.1899  0.2876 -0.1151
  172SAPE   O1319453   2.754   6.398   6.188  0.0121  0.2929 -0.2739
  172SAPE   O1419454   2.719   6.646   6.153  0.0998 -0.9592  0.2401
  172SAPE   O1219455   2.531   6.496   6.197  0.6963  0.2745  0.0752
  172SAPE   O1119456   2.682   6.534   6.379 -0.0841  0.0562 -0.1817
  172SAPE    C119457   2.653   6.665   6.444 -0.2962  0.3670 -0.3778
  172SAPE    HA19458   2.750   6.716   6.464  0.9439 -0.9293 -2.6576
  172SAPE    HB19459   2.602   6.739   6.379  0.7150  1.2343 -0.2172
  172SAPE    C219460   2.576   6.634   6.580 -0.3683 -0.3931 -0.3566
  172SAPE    HS19461   2.559   6.731   6.631  1.1271  1.4734 -3.1284
  172SAPE   O2119462   2.648   6.537   6.661 -0.4217 -0.2215  0.0807
  172SAPE   C2119463   2.756   6.587   6.721 -0.2787 -0.2611  1.0867
  172SAPE   O2219464   2.795   6.702   6.705 -0.1559  0.0855 -0.1252
  172SAPE   C2219465   2.814   6.480   6.820  0.1588 -0.4461 -0.2455
  172SAPE   H2R19466   2.735   6.474   6.897  0.3312  1.5781  0.1329
  172SAPE   H2S19467   2.831   6.380   6.776  0.1078 -0.9117  0.7665
  172SAPE    C319468   2.432   6.573   6.562 -0.5522 -0.5339 -0.0948
  172SAPE    HX19469   2.446   6.484   6.496 -2.3250 -0.1139 -1.0898
  172SAPE    HY19470   2.381   6.653   6.505 -0.8892 -1.6105 -1.3573
  172SAPE   O3119471   2.363   6.534   6.687  0.1173  0.3130  0.5586
  172SAPE   C3119472   2.229   6.523   6.668  0.1776  0.1445 -0.2641
  172SAPE   O3219473   2.169   6.540   6.567  0.7803  0.3686 -0.4206
  172SAPE   C3219474   2.161   6.509   6.803 -0.2824  0.9218 -0.1270
  172SAPE   H2X19475   2.185   6.406   6.838 -1.6362  0.6616  0.0798
  172SAPE   H2Y19476   2.052   6.519   6.788 -0.4367  1.3832  1.1760
  172SAPE   C2319477   2.945   6.519   6.888 -0.5416  0.4307  0.5682
  172SAPE   H3R19478   2.935   6.614   6.945  3.7288  1.7633 -0.5535
  172SAPE   H3S19479   3.022   6.544   6.812  1.3184 -1.1575  1.8548
  172SAPE   C2419480   2.995   6.405   6.986 -0.0764  0.3868  0.1792
  172SAPE   H4R19481   2.995   6.313   6.924 -2.3290  0.2368  0.3040
  172SAPE   H4S19482   2.916   6.392   7.064 -1.2514  0.5481 -0.9530
  172SAPE   C2519483   3.127   6.428   7.050  0.5481  0.3281 -0.0239
  172SAPE   H5R19484   3.215   6.419   6.985 -0.8575  1.2104 -2.1421
  172SAPE   C2619485   3.159   6.454   7.182  0.0496  0.3435 -0.1778
  172SAPE   H6R19486   3.263   6.443   7.215 -0.4915 -0.5517  1.3097
  172SAPE   C2719487   3.060   6.478   7.294 -0.0778 -0.7154  0.1156
  172SAPE   H7R19488   3.014   6.382   7.324 -0.6866 -0.5631 -0.3007
  172SAPE   H7S19489   2.979   6.545   7.257  0.4736 -0.4748 -0.6659
  172SAPE   C2819490   3.120   6.549   7.419 -0.0286  0.1994  0.5504
  172SAPE   H8R19491   3.148   6.655   7.408  3.3244 -0.7127 -1.1380
  172SAPE   C2919492   3.159   6.485   7.524  0.0109  1.1202 -1.0647
  172SAPE   H9R19493   3.184   6.545   7.613  0.9158  0.2500 -0.7166
  172SAPE  C21019494   3.145   6.334   7.557  0.1497 -0.6017  0.0672
  172SAPE  H10R19495   3.128   6.279   7.462 -0.8296  0.5230 -0.4369
  172SAPE  H10S19496   3.058   6.311   7.622  0.4683  0.0333  0.7337
  172SAPE  C21119497   3.276   6.295   7.615  0.4522 -0.1974  0.2618
  172SAPE  H11R19498   3.345   6.249   7.543  0.1149 -0.7204  0.2698
  172SAPE  C21219499   3.301   6.285   7.749 -0.6027  1.3570  0.3020
  172SAPE  H12R19500   3.399   6.240   7.772 -0.7362 -0.9960 -2.9219
  172SAPE  C21319501   3.227   6.326   7.870 -0.0464 -0.4263  0.3278
  172SAPE  H13R19502   3.120   6.296   7.865 -0.5059  1.2468 -0.8847
  172SAPE  H13S19503   3.219   6.437   7.873  1.1701 -0.3426  1.2250
  172SAPE  C21419504   3.277   6.278   8.003 -0.6387 -0.0909 -0.4718
  172SAPE  H14R19505   3.331   6.356   8.059 -1.9333  1.1438 -0.8680
  172SAPE  C21519506   3.272   6.155   8.056 -0.6219  0.8129 -0.3209
  172SAPE  H15R19507   3.308   6.125   8.155 -0.1850 -2.8792 -1.4635
  172SAPE  C21619508   3.172   6.051   8.008 -0.0139  0.0810  0.0169
  172SAPE  H16R19509   3.211   5.947   8.008 -3.7202 -1.5045  1.8376
  172SAPE  H16S19510   3.153   6.058   7.899  0.7373 -0.0398 -0.1253
  172SAPE  C21719511   3.052   6.059   8.105  0.6636 -0.3848  0.1937
  172SAPE  H17R19512   3.078   6.054   8.212  0.6627 -0.7177  0.1777
  172SAPE  H17S19513   2.987   5.972   8.084  0.4857 -0.2410  0.1418
  172SAPE  C21819514   2.957   6.183   8.077 -0.4467 -0.1023 -0.4261
  172SAPE  H18R19515   2.942   6.172   7.967 -0.2358 -2.4837 -0.2759
  172SAPE  H18S19516   3.023   6.271   8.091 -0.1488 -0.4670  0.5294
  172SAPE  C21919517   2.820   6.201   8.149  0.3862  0.3773  0.1567
  172SAPE  H19R19518   2.760   6.110   8.126 -0.1324  1.0296 -1.1560
  172SAPE  H19S19519   2.763   6.289   8.112 -2.1415 -0.2895  2.2171
  172SAPE  C22019520   2.841   6.212   8.301 -1.2839 -0.2787  0.2497
  172SAPE  H20R19521   2.748   6.207   8.362 -0.4366 -0.4512  1.5692
  172SAPE  H20S19522   2.901   6.305   8.312 -2.2351  0.4634 -0.6034
  172SAPE  H20T19523   2.905   6.129   8.338 -2.6863 -1.3381  0.3950
  172SAPE   C3319524   2.206   6.593   6.919 -0.8954 -0.5738 -0.1341
  172SAPE   H3X19525   2.181   6.699   6.900 -1.6318 -0.5035  1.1416
  172SAPE   H3Y19526   2.313   6.575   6.946 -0.7075  0.5458 -0.1181
  172SAPE   C3419527   2.119   6.562   7.049 -0.6300  0.1329  0.3373
  172SAPE   H4X19528   2.099   6.453   7.064 -0.4480  0.1825  1.0059
  172SAPE   H4Y19529   2.021   6.606   7.021 -1.2874 -0.1323  2.0856
  172SAPE   C3519530   2.192   6.611   7.174  0.3256 -0.4093  0.3745
  172SAPE   H5X19531   2.253   6.701   7.149 -0.4527 -0.1390 -0.6256
  172SAPE   H5Y19532   2.269   6.537   7.205  1.5243  1.3264  1.7433
  172SAPE   C3619533   2.099   6.638   7.289  0.4096  0.4364  0.2913
  172SAPE   H6X19534   2.038   6.547   7.310 -0.7272  0.9935 -0.4708
  172SAPE   H6Y19535   2.017   6.705   7.252 -0.3203  0.0799  1.2294
  172SAPE   C3719536   2.178   6.684   7.408  0.9191  0.3867 -0.0080
  172SAPE   H7X19537   2.114   6.735   7.483  0.2127  0.3712 -0.5895
  172SAPE   H7Y19538   2.247   6.758   7.361 -0.5939  0.1162 -2.9141
  172SAPE   C3819539   2.261   6.575   7.477  0.0716 -0.1006 -0.0936
  172SAPE   H8X19540   2.337   6.524   7.415 -0.7112  0.7084 -1.7953
  172SAPE   H8Y19541   2.195   6.490   7.504 -0.6651  0.4031 -0.2655
  172SAPE   C3919542   2.321   6.639   7.608 -0.2050  0.3698 -0.3115
  172SAPE   H9X19543   2.339   6.747   7.590 -2.9560  0.5662 -2.5131
  172SAPE   H9Y19544   2.425   6.600   7.619 -1.1142 -2.1618 -0.0526
  172SAPE  C31019545   2.229   6.623   7.725 -0.3100  0.5608 -0.0953
  172SAPE  H10X19546   2.230   6.522   7.770 -0.7392  0.8500  0.5829
  172SAPE  H10Y19547   2.124   6.637   7.692 -0.4305  0.2714  0.1562
  172SAPE  C31119548   2.251   6.724   7.843 -0.1256  0.3896  0.3610
  172SAPE  H11X19549   2.239   6.833   7.825  1.0155  0.3311 -0.8604
  172SAPE  H11Y19550   2.353   6.702   7.881 -0.7919 -1.8372  1.0114
  172SAPE  C31219551   2.152   6.696   7.961 -0.5274  0.0963 -0.8380
  172SAPE  H12X19552   2.162   6.591   7.995  0.9861  1.3558  3.2294
  172SAPE  H12Y19553   2.051   6.716   7.920 -1.2270 -0.8631  0.3368
  172SAPE  C31319554   2.182   6.786   8.076  0.5209 -0.7919  0.1224
  172SAPE  H13X19555   2.142   6.884   8.044 -0.8702 -1.0951  0.8068
  172SAPE  H13Y19556   2.291   6.795   8.094  0.1424 -0.6217  2.7232
  172SAPE  C31419557   2.097   6.761   8.205 -0.6880 -0.3975  0.6437
  172SAPE  H14X19558   1.988   6.771   8.182 -0.3798  5.6390  0.0791
  172SAPE  H14Y19559   2.121   6.842   8.276  0.3392 -0.1384  0.0187
  172SAPE  C31519560   2.130   6.634   8.277 -0.3069  0.2526 -0.4205
  172SAPE  H15X19561   2.237   6.636   8.306 -0.4288  1.1239  0.0010
  172SAPE  H15Y19562   2.116   6.547   8.210  1.9929 -1.1219  0.7693
  172SAPE  C31619563   2.038   6.604   8.400 -1.7107  0.4231 -0.3723
  172SAPE  H16X19564   2.064   6.501   8.432 -0.5540  1.3231  1.8443
  172SAPE  H16Y19565   1.931   6.615   8.371 -1.1679  2.1924 -1.8268
  172SAPE  C31719566   2.069   6.700   8.519 -0.0009 -0.1611 -0.4938
  172SAPE  H17X19567   2.018   6.650   8.604 -0.0100 -1.8014 -1.4244
  172SAPE  H17Y19568   2.013   6.794   8.502 -0.9463 -0.4658  0.7404
  172SAPE  C31819569   2.207   6.727   8.573 -0.5621  0.1937 -0.1425
  172SAPE  H18X19570   2.255   6.788   8.493  1.2624  1.8593  2.0779
  172SAPE  H18Y19571   2.265   6.637   8.604 -2.6040 -0.2170  2.8802
  172SAPE  H18Z19572   2.205   6.795   8.661 -0.9129 -0.1819  0.1440
  173SOPE     N19573   2.963   3.970  11.088 -0.4524 -0.5887  0.5078
  173SOPE   HN119574   2.876   3.985  11.144  0.0084  1.5809  0.7524
  173SOPE   HN219575   3.025   3.908  11.143  2.5187  2.0737  0.4151
  173SOPE   HN319576   3.021   4.056  11.079  1.7455 -2.1673 -1.8252
  173SOPE   C1219577   2.935   3.931  10.939 -0.5004  0.3159 -0.8435
  173SOPE  H12A19578   2.859   3.997  10.893  1.0632  1.8202 -1.3594
  173SOPE  H12B19579   2.894   3.827  10.938  1.3293 -0.7006  3.4907
  173SOPE   C1119580   3.068   3.937  10.865 -0.6689  0.7718  0.2258
  173SOPE  H11A19581   3.093   4.045  10.870 -0.5735  0.8298 -1.2433
  173SOPE  H11B19582   3.059   3.916  10.757  0.6538  0.5519  0.1352
  173SOPE     P19583   3.202   3.715  10.926  0.0449  0.4140  0.0512
  173SOPE   O1319584   3.069   3.653  10.950 -0.2091 -0.0280  0.2708
  173SOPE   O1419585   3.305   3.669  11.020 -0.6906 -0.5200 -0.2002
  173SOPE   O1219586   3.176   3.868  10.935  0.2202 -0.3530  0.1222
  173SOPE   O1119587   3.261   3.693  10.779 -0.5665  0.9222  0.2542
  173SOPE    C119588   3.338   3.783  10.703  0.3909 -0.2050 -0.9695
  173SOPE    HA19589   3.432   3.815  10.753 -0.0370  1.1474 -1.0040
  173SOPE    HB19590   3.283   3.878  10.688 -0.7612 -1.1160 -2.8529
  173SOPE    C219591   3.355   3.724  10.560 -0.5415 -0.0711 -0.3686
  173SOPE    HS19592   3.423   3.790  10.503  0.6149 -1.3371 -0.5001
  173SOPE   O2119593   3.236   3.701  10.481  0.5581 -0.2500  0.0082
  173SOPE   C2119594   3.171   3.811  10.444  0.3407 -0.2769  0.0025
  173SOPE   O2219595   3.201   3.922  10.482  0.2219  0.2954  0.6974
  173SOPE   C2219596   3.070   3.777  10.329  0.7052  0.0091 -0.3409
  173SOPE   H2R19597   2.966   3.778  10.368 -0.0696  3.2431 -2.1187
  173SOPE   H2S19598   3.092   3.671  10.304  0.5938  0.1178 -0.9155
  173SOPE    C319599   3.437   3.593  10.564 -0.4301  0.0605  0.0393
  173SOPE    HX19600   3.404   3.526  10.645 -1.6241  1.5010  0.7931
  173SOPE    HY19601   3.534   3.622  10.610 -0.6089  0.1907  0.3388
  173SOPE   O3119602   3.450   3.535  10.429 -0.6755 -0.5281  0.1651
  173SOPE   C3119603   3.360   3.439  10.410  0.2145 -0.3967 -0.2464
  173SOPE   O3219604   3.274   3.395  10.480  0.4577 -0.2055 -0.0211
  173SOPE   C3219605   3.384   3.388  10.262  0.4624  0.1606 -0.3838
  173SOPE   H2X19606   3.375   3.277  10.264  0.1195  0.1903 -0.2183
  173SOPE   H2Y19607   3.480   3.427  10.222  0.7249  0.5374  0.5826
  173SOPE   C2319608   3.071   3.855  10.201  0.0486 -0.0079  0.4751
  173SOPE   H3R19609   3.100   3.960  10.226 -1.7156  0.0896  2.3592
  173SOPE   H3S19610   2.978   3.857  10.141 -1.3377 -2.2027  2.3783
  173SOPE   C2419611   3.173   3.792  10.102  0.4696  0.0816 -0.3525
  173SOPE   H4R19612   3.274   3.784  10.149  0.0875 -0.7392  0.3647
  173SOPE   H4S19613   3.127   3.691  10.093 -1.6117  0.9922 -0.3348
  173SOPE   C2519614   3.159   3.860   9.962  0.1143  0.1895  0.3984
  173SOPE   H5R19615   3.219   3.802   9.889 -0.7655 -0.1597 -0.0610
  173SOPE   H5S19616   3.056   3.848   9.922  0.5330  1.6151 -1.1871
  173SOPE   C2619617   3.202   4.004   9.950 -0.6419  0.0063 -0.2381
  173SOPE   H6R19618   3.136   4.073  10.007  1.0853  0.8227  0.8948
  173SOPE   H6S19619   3.297   4.020  10.006 -1.1183  1.4612  0.2109
  173SOPE   C2719620   3.214   4.049   9.797  0.7985  0.3607  0.0089
  173SOPE   H7R19621   3.286   3.974   9.760 -1.7856 -2.2954 -0.0352
  173SOPE   H7S19622   3.115   4.030   9.750  0.7450 -1.0709  0.6459
  173SOPE   C2819623   3.250   4.196   9.786 -0.6424  0.0001 -0.2394
  173SOPE   H8R19624   3.339   4.216   9.849  1.2321 -0.5079 -2.5680
  173SOPE   H8S19625   3.301   4.209   9.688  2.0570 -2.9940  0.6440
  173SOPE   C2919626   3.129   4.282   9.820  0.4313 -1.2003  1.0134
  173SOPE   H9119627   3.088   4.287   9.922 -2.9304  0.4057 -0.2355
  173SOPE  C21019628   3.073   4.362   9.725  0.3372  0.1826 -0.1556
  173SOPE  H10119629   2.990   4.428   9.755 -0.5878 -1.3184  0.7543
  173SOPE  C21119630   3.113   4.354   9.579 -0.3005  0.2133  0.7467
  173SOPE  H11R19631   3.103   4.249   9.544 -1.7290  0.1195  1.3873
  173SOPE  H11S19632   3.219   4.387   9.566 -0.4923  2.0120  3.0772
  173SOPE  C21219633   3.018   4.449   9.502  0.2474  0.2443  0.0997
  173SOPE  H12R19634   3.002   4.553   9.539  0.2190  0.8706 -1.5973
  173SOPE  H12S19635   2.922   4.393   9.507  0.1025  0.3664 -0.9650
  173SOPE  C21319636   3.064   4.473   9.359  0.0935  0.3537 -0.2301
  173SOPE  H13R19637   3.087   4.369   9.329  1.0047 -0.1792  2.1306
  173SOPE  H13S19638   3.161   4.527   9.357  0.4856 -0.3378 -2.1783
  173SOPE  C21419639   2.966   4.537   9.266  0.3057 -0.0777 -0.3380
  173SOPE  H14R19640   3.021   4.568   9.174 -1.6075 -1.6294 -2.1149
  173SOPE  H14S19641   2.915   4.628   9.303  3.6822  1.1186  1.9107
  173SOPE  C21519642   2.855   4.441   9.223 -0.0147  0.1540 -0.1281
  173SOPE  H15R19643   2.807   4.385   9.306 -0.1530 -0.1038 -0.3762
  173SOPE  H15S19644   2.910   4.364   9.166 -0.3779  0.1035 -0.4178
  173SOPE  C21619645   2.756   4.517   9.129 -0.3182  0.5169 -0.5021
  173SOPE  H16R19646   2.802   4.591   9.061 -0.8865  0.8211 -0.5608
  173SOPE  H16S19647   2.692   4.574   9.200  1.2627  0.8573  0.7009
  173SOPE  C21719648   2.650   4.437   9.053  0.3221 -0.2187  0.2796
  173SOPE  H17R19649   2.591   4.388   9.133 -1.0963 -0.0202 -0.5969
  173SOPE  H17S19650   2.690   4.354   8.992 -1.8768 -0.5711 -0.7862
  173SOPE  C21819651   2.569   4.531   8.965 -0.4394  0.1176  0.7025
  173SOPE  H18R19652   2.517   4.471   8.887  1.0028  0.8282 -0.8747
  173SOPE  H18S19653   2.639   4.610   8.931  1.8770 -1.8690  0.6213
  173SOPE  H18T19654   2.489   4.569   9.032 -2.3745 -2.3301 -0.0526
  173SOPE   C3319655   3.257   3.424  10.177  0.1813  0.0717 -0.1053
  173SOPE   H3X19656   3.270   3.533  10.157  1.1183  0.6229  3.0500
  173SOPE   H3Y19657   3.157   3.436  10.224 -1.5182  0.8849 -3.5287
  173SOPE   C3419658   3.229   3.347  10.046  0.0417  0.1078 -0.4022
  173SOPE   H4X19659   3.188   3.247  10.072  0.8980 -0.1181  0.1569
  173SOPE   H4Y19660   3.325   3.320   9.996 -0.6076 -0.2053 -1.4914
  173SOPE   C3519661   3.144   3.415   9.945  0.4879  0.4629  0.7285
  173SOPE   H5X19662   3.171   3.381   9.843  1.0324 -0.3557  1.1367
  173SOPE   H5Y19663   3.172   3.522   9.956 -0.2589  0.4874  2.8268
  173SOPE   C3619664   2.998   3.387   9.979  0.2499  0.1591  0.3188
  173SOPE   H6X19665   2.962   3.469  10.045  0.0240  0.8357 -0.6118
  173SOPE   H6Y19666   2.980   3.295  10.038 -1.9992  0.2325 -0.1375
  173SOPE   C3719667   2.899   3.392   9.851  0.1823 -0.0770 -0.0393
  173SOPE   H7X19668   2.939   3.471   9.784 -0.5620  1.7333  1.5528
  173SOPE   H7Y19669   2.797   3.418   9.887  1.3016  3.3585  0.9987
  173SOPE   C3819670   2.889   3.256   9.782 -0.0024  0.0575  0.1356
  173SOPE   H8X19671   2.865   3.181   9.860  1.6515  1.3588  1.9994
  173SOPE   H8Y19672   2.988   3.237   9.736 -0.8325  0.4508 -1.9679
  173SOPE   C3919673   2.797   3.252   9.660  0.2733 -0.1738 -1.0545
  173SOPE   H9X19674   2.810   3.342   9.596  0.1400  0.8886  0.3761
  173SOPE   H9Y19675   2.692   3.247   9.696  1.1559 -1.3322  1.6191
  173SOPE  C31019676   2.840   3.136   9.565  0.6406 -0.1599  0.7107
  173SOPE  H10X19677   2.796   3.048   9.616 -2.0526  1.4360  1.3430
  173SOPE  H10Y19678   2.951   3.141   9.558  0.5202  2.4834 -0.5338
  173SOPE  C31119679   2.778   3.160   9.426 -0.2146 -0.1173 -0.3472
  173SOPE  H11X19680   2.808   3.250   9.368  2.1581 -1.2736 -1.0581
  173SOPE  H11Y19681   2.667   3.168   9.434 -0.3412 -0.7070 -1.3375
  173SOPE  C31219682   2.800   3.038   9.329 -0.6214  0.3542 -0.6408
  173SOPE  H12X19683   2.734   2.959   9.368 -1.2958  0.9539 -0.5464
  173SOPE  H12Y19684   2.905   3.005   9.341 -0.4958  0.4945 -1.2785
  173SOPE  C31319685   2.763   3.072   9.187 -0.2056 -0.2363 -0.1126
  173SOPE  H13X19686   2.819   3.165   9.164  0.6503 -0.9053 -0.7679
  173SOPE  H13Y19687   2.657   3.100   9.165 -0.5061 -0.9282  0.4017
  173SOPE  C31419688   2.808   2.964   9.086 -0.8092  0.0149 -0.3177
  173SOPE  H14X19689   2.774   2.860   9.106  2.2182 -0.7805  1.1786
  173SOPE  H14Y19690   2.917   2.948   9.095 -0.9763 -2.1427 -1.4019
  173SOPE  C31519691   2.775   2.999   8.934 -0.2768  0.1538 -0.1542
  173SOPE  H15X19692   2.805   3.100   8.897  0.3311  0.9402  2.3047
  173SOPE  H15Y19693   2.665   2.991   8.938 -0.2012 -0.2720  2.1380
  173SOPE  C31619694   2.830   2.907   8.825 -0.4103  0.4542 -0.2695
  173SOPE  H16X19695   2.796   2.805   8.854 -0.0642 -0.2947 -2.3181
  173SOPE  H16Y19696   2.941   2.901   8.818 -0.4162  0.0222 -0.0227
  173SOPE  C31719697   2.768   2.936   8.687 -0.8133 -0.0738  0.4083
  173SOPE  H17X19698   2.754   3.045   8.673 -2.4566 -0.2568  0.5062
  173SOPE  H17Y19699   2.666   2.894   8.685 -0.7701 -0.1917 -1.3641
  173SOPE  C31819700   2.838   2.862   8.572  0.0625 -0.0604  0.0754
  173SOPE  H18X19701   2.788   2.878   8.474  0.7421 -0.3389 -0.3249
  173SOPE  H18Y19702   2.825   2.755   8.601  2.1007 -0.5862 -0.8097
  173SOPE  H18Z19703   2.943   2.894   8.558 -0.9734  2.7465 -2.2067
  174SOPE     N19704   2.669   3.355  10.903 -0.1022  0.0428 -0.2905
  174SOPE   HN119705   2.771   3.343  10.890 -0.1439 -2.3431  1.1364
  174SOPE   HN219706   2.633   3.440  10.951  1.2496  1.8060 -2.2206
  174SOPE   HN319707   2.629   3.267  10.941 -0.4874 -0.2567 -1.3416
  174SOPE   C1219708   2.606   3.376  10.775  0.0498  0.2111  0.3484
  174SOPE  H12A19709   2.645   3.473  10.736 -1.2401 -0.0415 -1.7216
  174SOPE  H12B19710   2.499   3.398  10.795 -0.0267  2.4739 -2.0261
  174SOPE   C1119711   2.615   3.266  10.671 -0.2041 -0.6430  0.2562
  174SOPE  H11A19712   2.564   3.308  10.582  3.9824  0.7895 -1.7492
  174SOPE  H11B19713   2.567   3.174  10.712  0.1813 -0.2355  1.7012
  174SOPE     P19714   2.833   3.125  10.691 -0.2850  0.0617 -0.0496
  174SOPE   O1319715   2.747   3.011  10.719  0.3956 -0.3560  0.1090
  174SOPE   O1419716   2.899   3.179  10.817  0.6328  0.2168  0.3807
  174SOPE   O1219717   2.750   3.240  10.623 -0.5140  0.0147  0.2145
  174SOPE   O1119718   2.937   3.078  10.587  0.1010  0.2856 -0.2884
  174SOPE    C119719   3.021   3.177  10.526  0.0434  0.1686 -0.1663
  174SOPE    HA19720   3.124   3.179  10.565  0.3406  1.4784 -0.9341
  174SOPE    HB19721   2.989   3.281  10.549 -2.1281 -0.7298  1.2320
  174SOPE    C219722   3.025   3.166  10.368  0.1644 -0.8593 -0.3227
  174SOPE    HS19723   3.106   3.236  10.337 -1.4522  0.9163 -0.6731
  174SOPE   O2119724   2.901   3.187  10.298  0.9170 -0.0202  0.2765
  174SOPE   C2119725   2.836   3.294  10.330  0.5613  1.1122  0.0649
  174SOPE   O2219726   2.887   3.400  10.374  0.6720 -0.4715 -0.3393
  174SOPE   C2219727   2.694   3.282  10.294  0.7705 -0.8895  0.0243
  174SOPE   H2R19728   2.644   3.381  10.284  1.2171 -0.7483 -0.8506
  174SOPE   H2S19729   2.644   3.231  10.380  0.4714  2.6043  2.1057
  174SOPE    C319730   3.086   3.038  10.338 -0.4050  0.2699  0.1890
  174SOPE    HX19731   3.025   2.952  10.373 -0.4350 -0.0736 -0.6874
  174SOPE    HY19732   3.176   3.020  10.400  0.4671 -1.5194 -1.4863
  174SOPE   O3119733   3.127   3.029  10.198  0.2400 -0.0562 -0.3841
  174SOPE   C3119734   3.062   2.940  10.123  0.1183 -0.5070 -0.3624
  174SOPE   O3219735   2.980   2.856  10.156 -0.2452 -0.3046  0.1131
  174SOPE   C3219736   3.124   2.948   9.988  0.5101 -0.3536  0.1841
  174SOPE   H2X19737   3.218   2.889   9.997  0.1296 -1.3009 -1.6218
  174SOPE   H2Y19738   3.146   3.055   9.971  2.2217 -0.6925  0.0880
  174SOPE   C2319739   2.668   3.207  10.157  0.1058 -0.3243  0.2197
  174SOPE   H3R19740   2.695   3.099  10.156 -2.5615 -1.0627  1.1327
  174SOPE   H3S19741   2.731   3.252  10.077  0.0986 -0.7564 -0.0348
  174SOPE   C2419742   2.518   3.210  10.112  0.0028 -1.0363  0.0449
  174SOPE   H4R19743   2.469   3.136  10.178  0.1471 -0.3693  0.9149
  174SOPE   H4S19744   2.484   3.315  10.126  0.8460 -0.5957 -1.0388
  174SOPE   C2519745   2.512   3.159   9.966  0.7317  0.0199  0.0167
  174SOPE   H5R19746   2.549   3.238   9.897  1.5057  0.1074  0.5153
  174SOPE   H5S19747   2.580   3.072   9.963  0.2715 -0.3852  1.0008
  174SOPE   C2619748   2.375   3.113   9.920 -0.4730  0.4985 -0.2930
  174SOPE   H6R19749   2.349   3.034   9.994  2.3437  1.8450  2.3788
  174SOPE   H6S19750   2.299   3.194   9.927  1.9025  2.8212  0.2418
  174SOPE   C2719751   2.373   3.045   9.782  0.2674 -0.1458  0.5155
  174SOPE   H7R19752   2.455   3.082   9.717  1.1172 -2.0161  0.4757
  174SOPE   H7S19753   2.394   2.936   9.788  1.6070  0.0193 -0.5075
  174SOPE   C2819754   2.240   3.064   9.708 -0.6583 -0.4387  0.0309
  174SOPE   H8R19755   2.156   3.054   9.780 -0.1964  0.9519  0.7883
  174SOPE   H8S19756   2.244   3.168   9.671 -1.7702 -0.2063  0.5233
  174SOPE   C2919757   2.241   2.968   9.594  0.2711  0.4022  0.3026
  174SOPE   H9119758   2.202   2.869   9.623  1.3697 -0.1984 -0.1923
  174SOPE  C21019759   2.265   2.994   9.458 -0.3065  0.0285  0.0358
  174SOPE  H10119760   2.260   2.920   9.377 -2.1904 -0.5832  0.6640
  174SOPE  C21119761   2.320   3.127   9.403  0.8130  0.1504  0.0088
  174SOPE  H11R19762   2.382   3.180   9.479 -3.2302 -0.7250  4.4538
  174SOPE  H11S19763   2.235   3.193   9.376 -0.5322 -1.7465 -0.5466
  174SOPE  C21219764   2.410   3.097   9.282 -0.2537 -0.2927  0.6420
  174SOPE  H12R19765   2.464   3.002   9.302 -0.2673 -0.5695 -0.5521
  174SOPE  H12S19766   2.482   3.181   9.276 -1.5468  1.1673  3.4511
  174SOPE  C21319767   2.324   3.082   9.158 -0.0140  0.3744 -0.1016
  174SOPE  H13R19768   2.275   3.181   9.141  2.1361  1.8247  1.6400
  174SOPE  H13S19769   2.242   3.010   9.177 -0.2911 -0.3652 -3.3969
  174SOPE  C21419770   2.403   3.041   9.033 -0.3295  0.0245  0.1423
  174SOPE  H14R19771   2.456   2.947   9.060 -0.6220  0.2000  1.3756
  174SOPE  H14S19772   2.484   3.115   9.011  1.1733 -1.1393  1.5169
  174SOPE  C21519773   2.316   2.999   8.912 -0.1949  0.7057  0.2662
  174SOPE  H15R19774   2.247   3.081   8.885  0.1225  0.4947 -1.2669
  174SOPE  H15S19775   2.262   2.905   8.938 -0.8053  0.9909  0.0460
  174SOPE  C21619776   2.414   2.973   8.790  0.5180 -0.3450  0.3190
  174SOPE  H16R19777   2.485   2.895   8.824 -1.5246 -0.9745  3.5710
  174SOPE  H16S19778   2.470   3.068   8.774 -0.5469  0.5005  1.4694
  174SOPE  C21719779   2.331   2.941   8.661  0.2029 -0.2122 -0.2477
  174SOPE  H17R19780   2.258   3.020   8.634  0.7932  0.3120 -0.3494
  174SOPE  H17S19781   2.270   2.848   8.667 -1.8915  1.0474 -1.0919
  174SOPE  C21819782   2.419   2.925   8.541 -0.9725  0.2778  0.0109
  174SOPE  H18R19783   2.376   2.908   8.439  0.0623  0.1101 -0.4134
  174SOPE  H18S19784   2.479   2.834   8.560 -0.5659  0.7079  0.7905
  174SOPE  H18T19785   2.493   3.007   8.541 -0.7214  0.1564  3.3033
  174SOPE   C3319786   3.040   2.878   9.875  0.2703  0.1970 -0.3087
  174SOPE   H3X19787   2.943   2.931   9.859 -0.8501 -1.3256  1.0220
  174SOPE   H3Y19788   3.000   2.782   9.914 -0.6161  0.6937  0.0378
  174SOPE   C3419789   3.121   2.850   9.746  0.7784 -0.2882  0.1248
  174SOPE   H4X19790   3.200   2.775   9.768 -0.7174 -2.0606 -0.2486
  174SOPE   H4Y19791   3.165   2.948   9.720  1.8405 -0.6266  0.6244
  174SOPE   C3519792   3.028   2.795   9.634 -0.3100 -0.0864 -0.3071
  174SOPE   H5X19793   2.938   2.860   9.631 -0.3114  0.0074  1.0015
  174SOPE   H5Y19794   3.005   2.688   9.655 -0.2219 -0.1702 -0.6407
  174SOPE   C3619795   3.103   2.812   9.501  0.1813 -0.9442  0.0336
  174SOPE   H6X19796   3.209   2.783   9.512  0.4054 -0.0394  0.3262
  174SOPE   H6Y19797   3.098   2.915   9.461 -0.1824 -1.1397 -0.4504
  174SOPE   C3719798   3.046   2.718   9.394 -0.3693  0.1213 -0.5228
  174SOPE   H7X19799   2.935   2.725   9.390 -0.5160 -0.9779  0.9918
  174SOPE   H7Y19800   3.072   2.615   9.425 -0.0134  0.3497 -0.0596
  174SOPE   C3819801   3.116   2.738   9.259 -0.8561  0.4185 -0.2423
  174SOPE   H8X19802   3.218   2.697   9.269 -1.3587 -1.0119 -0.6878
  174SOPE   H8Y19803   3.112   2.843   9.223 -0.9423  0.4216 -0.2236
  174SOPE   C3919804   3.050   2.649   9.157  0.7594 -0.1176  0.6960
  174SOPE   H9X19805   2.942   2.675   9.155  1.1457  1.6182  0.7894
  174SOPE   H9Y19806   3.060   2.544   9.192 -1.8003 -0.5487  0.2841
  174SOPE  C31019807   3.114   2.662   9.014  0.3750 -0.2639  0.1611
  174SOPE  H10X19808   3.223   2.648   9.030  0.0829 -0.0128  2.8012
  174SOPE  H10Y19809   3.090   2.760   8.967 -1.1041 -0.4261  0.5262
  174SOPE  C31119810   3.066   2.549   8.924  0.2030  0.9865 -0.1130
  174SOPE  H11X19811   2.957   2.562   8.911 -0.5141 -1.5423  2.4350
  174SOPE  H11Y19812   3.093   2.450   8.965  0.2313  0.5522 -1.1496
  174SOPE  C31219813   3.139   2.551   8.787 -0.0285  0.4738 -0.1166
  174SOPE  H12X19814   3.242   2.591   8.796  0.4483 -0.5393 -0.9785
  174SOPE  H12Y19815   3.081   2.618   8.720 -0.8272 -0.7859 -0.7183
  174SOPE  C31319816   3.140   2.413   8.722 -0.1531 -0.0743  0.4665
  174SOPE  H13X19817   3.039   2.370   8.742 -1.3052  2.2236 -0.0433
  174SOPE  H13Y19818   3.216   2.350   8.772  0.8328 -1.1521 -2.2250
  174SOPE  C31419819   3.164   2.415   8.566  0.6546 -0.3447  0.0023
  174SOPE  H14X19820   3.162   2.310   8.531 -1.0207 -0.8428  1.4612
  174SOPE  H14Y19821   3.265   2.451   8.537  1.2701 -2.6882 -0.9994
  174SOPE  C31519822   3.064   2.505   8.488 -0.1873 -0.4520  0.0647
  174SOPE  H15X19823   3.096   2.611   8.499 -1.9386  0.3251 -1.7846
  174SOPE  H15Y19824   2.965   2.499   8.537  0.9849 -2.7775  2.4134
  174SOPE  C31619825   3.047   2.465   8.342  0.4284  0.5846 -0.5481
  174SOPE  H16X19826   3.022   2.357   8.332  2.4769  0.0646 -0.6442
  174SOPE  H16Y19827   3.145   2.480   8.291  0.6175  1.5743  0.0770
  174SOPE  C31719828   2.953   2.554   8.258  0.2779  0.0821 -0.4545
  174SOPE  H17X19829   2.954   2.517   8.154  2.6254  0.7225 -0.6998
  174SOPE  H17Y19830   2.980   2.661   8.247 -1.4958  0.7344  0.9558
  174SOPE  C31819831   2.800   2.549   8.285  0.5366 -0.0947 -0.1081
  174SOPE  H18X19832   2.769   2.443   8.293  0.2417  0.0434  0.6776
  174SOPE  H18Y19833   2.734   2.589   8.206 -0.0787 -3.1797 -1.2679
  174SOPE  H18Z19834   2.779   2.602   8.381  1.5883 -1.1921  0.7681
  175SOPE     N19835   4.955   5.438  10.709 -0.1284  0.4305 -0.2618
  175SOPE   HN119836   4.911   5.512  10.769  0.9276  0.5205  0.4382
  175SOPE   HN219837   5.012   5.371  10.765  1.0706 -0.2002 -2.1642
  175SOPE   HN319838   5.017   5.499  10.653 -0.7433 -0.4019 -1.9106
  175SOPE   C1219839   4.857   5.362  10.628 -0.5089 -0.4649 -0.9588
  175SOPE  H12A19840   4.790   5.439  10.583  0.9806  1.6712  0.2716
  175SOPE  H12B19841   4.792   5.314  10.704  1.0853  1.6306  1.9628
  175SOPE   C1119842   4.917   5.259  10.533  0.0833  0.1097  0.2628
  175SOPE  H11A19843   4.978   5.315  10.459 -1.2222  1.6234  0.2822
  175SOPE  H11B19844   4.834   5.207  10.480  0.9402 -0.0177 -0.9985
  175SOPE     P19845   5.120   5.076  10.554 -0.1520 -0.0315 -0.0640
  175SOPE   O1319846   5.151   4.975  10.657  0.5527  0.7419  0.2555
  175SOPE   O1419847   5.231   5.167  10.510  0.1453 -0.1124 -0.1045
  175SOPE   O1219848   4.996   5.156  10.595 -0.1851 -0.5145 -0.1905
  175SOPE   O1119849   5.077   4.995  10.424  0.3931  0.2113 -0.8884
  175SOPE    C119850   4.947   4.925  10.414  0.7752  0.3414  0.6170
  175SOPE    HA19851   4.894   4.934  10.511 -0.6751  1.6424 -0.2658
  175SOPE    HB19852   4.959   4.816  10.400  1.9884  0.7464 -2.0827
  175SOPE    C219853   4.856   4.977  10.299 -0.3762  0.3907 -0.7904
  175SOPE    HS19854   4.791   5.059  10.337 -0.4224  0.2081 -0.4766
  175SOPE   O2119855   4.764   4.876  10.245 -0.1977 -0.1833  0.1190
  175SOPE   C2119856   4.670   4.848  10.326  0.6649 -0.3826 -0.2328
  175SOPE   O2219857   4.655   4.890  10.439 -0.0431  0.1493  0.8766
  175SOPE   C2219858   4.569   4.763  10.250 -0.2705  0.1992 -0.3144
  175SOPE   H2R19859   4.508   4.727  10.336 -0.2792  0.9812  0.0231
  175SOPE   H2S19860   4.609   4.667  10.213  1.0844 -0.4015  2.4559
  175SOPE    C319861   4.942   5.023  10.186  0.1359 -0.1470  0.2014
  175SOPE    HX19862   5.006   4.941  10.146  0.1524 -0.5171  0.9786
  175SOPE    HY19863   5.014   5.101  10.216  0.8691  1.0840 -4.1331
  175SOPE   O3119864   4.857   5.067  10.074  0.2925  0.4705 -0.5473
  175SOPE   C3119865   4.836   5.199  10.063  0.2090  0.1211 -0.3607
  175SOPE   O3219866   4.888   5.285  10.127  0.0396  0.8405  0.0830
  175SOPE   C3219867   4.730   5.233   9.950 -0.1065  1.0000 -0.1204
  175SOPE   H2X19868   4.641   5.280   9.996  0.2795  1.6724 -0.0546
  175SOPE   H2Y19869   4.702   5.139   9.897 -2.7548 -0.6992  3.8156
  175SOPE   C2319870   4.484   4.841  10.156  1.2122  0.1450 -0.0440
  175SOPE   H3R19871   4.432   4.930  10.196 -1.0688 -1.3535  0.4837
  175SOPE   H3S19872   4.399   4.774  10.131  1.7182 -0.5330  0.0016
  175SOPE   C2419873   4.552   4.877  10.031  0.3629  0.6788  0.2222
  175SOPE   H4R19874   4.636   4.949  10.037  0.3113  0.7335  0.2924
  175SOPE   H4S19875   4.579   4.778   9.988  0.8295 -0.1637  2.3548
  175SOPE   C2519876   4.449   4.939   9.932 -0.3052 -0.1964 -0.5107
  175SOPE   H5R19877   4.360   4.875   9.944  0.0787 -0.8247 -0.9346
  175SOPE   H5S19878   4.422   5.041   9.967 -2.5152 -0.0764 -2.3606
  175SOPE   C2619879   4.506   4.941   9.788 -0.1755 -0.1512  0.5086
  175SOPE   H6R19880   4.562   5.037   9.789 -0.3103 -0.0176  2.9902
  175SOPE   H6S19881   4.582   4.860   9.783  0.1811  0.2370 -0.7764
  175SOPE   C2719882   4.402   4.938   9.672 -0.0736  0.3263  0.4938
  175SOPE   H7R19883   4.368   4.832   9.671  2.7565 -0.6710  0.9783
  175SOPE   H7S19884   4.316   5.004   9.694 -0.6078  0.2282 -1.1722
  175SOPE   C2819885   4.468   4.979   9.540  0.1806  0.5712 -0.6562
  175SOPE   H8R19886   4.508   5.079   9.568 -0.0112  0.3079  0.6050
  175SOPE   H8S19887   4.553   4.913   9.514  0.5497  0.3904  0.9135
  175SOPE   C2919888   4.375   4.999   9.421  0.6155  0.0977 -0.0750
  175SOPE   H9119889   4.273   5.024   9.453 -0.0993  0.1600 -2.2657
  175SOPE  C21019890   4.386   4.958   9.294 -0.4759  0.4551 -0.0197
  175SOPE  H10119891   4.302   4.990   9.231 -2.8701 -0.7913  2.3306
  175SOPE  C21119892   4.503   4.893   9.219  0.0547  0.4376  0.8007
  175SOPE  H11R19893   4.589   4.881   9.289  1.9794 -2.0376 -1.7272
  175SOPE  H11S19894   4.529   4.965   9.139 -0.6165  1.6759  1.6693
  175SOPE  C21219895   4.462   4.760   9.157  0.3549 -0.7658  0.3597
  175SOPE  H12R19896   4.375   4.787   9.094  1.0248  0.7900  0.0591
  175SOPE  H12S19897   4.432   4.692   9.239  0.5372 -0.9138  0.3036
  175SOPE  C21319898   4.569   4.686   9.071  0.1088  0.6191 -0.9376
  175SOPE  H13R19899   4.521   4.597   9.026  0.0943 -0.1569  0.5659
  175SOPE  H13S19900   4.645   4.660   9.148 -0.7414  0.1145 -0.2531
  175SOPE  C21419901   4.639   4.773   8.958 -0.0696  0.5779 -0.0265
  175SOPE  H14R19902   4.704   4.851   9.003 -0.4252  0.4864  0.6596
  175SOPE  H14S19903   4.568   4.846   8.913 -1.7889 -0.7915  0.3596
  175SOPE  C21519904   4.721   4.699   8.856 -0.4887 -0.0017  0.3739
  175SOPE  H15R19905   4.816   4.663   8.901 -0.4842  3.3967  3.6510
  175SOPE  H15S19906   4.749   4.778   8.784  0.1450  1.4034  2.0840
  175SOPE  C21619907   4.653   4.584   8.784 -0.6947  0.3699  0.1724
  175SOPE  H16R19908   4.625   4.498   8.848 -0.8009  0.6204  0.4656
  175SOPE  H16S19909   4.721   4.545   8.705  1.1833  0.9928  1.4362
  175SOPE  C21719910   4.526   4.622   8.712 -0.2842 -0.1741  0.3583
  175SOPE  H17R19911   4.541   4.690   8.625  1.6531 -0.5771  0.3505
  175SOPE  H17S19912   4.458   4.680   8.779  0.1881 -0.2722  0.9255
  175SOPE  C21819913   4.448   4.502   8.658 -0.5602  0.0428  0.9224
  175SOPE  H18R19914   4.511   4.421   8.616 -2.2755 -1.3668  0.9163
  175SOPE  H18S19915   4.371   4.528   8.582  2.4292 -1.0074 -2.7565
  175SOPE  H18T19916   4.405   4.445   8.743  0.4297 -1.8088  0.2364
  175SOPE   C3319917   4.796   5.334   9.854 -0.8630 -0.1709  0.1620
  175SOPE   H3X19918   4.820   5.429   9.906 -0.9039  0.1064 -0.3217
  175SOPE   H3Y19919   4.730   5.372   9.773  2.0180  2.7503 -1.0386
  175SOPE   C3419920   4.913   5.272   9.781 -0.0180  0.1983 -0.3592
  175SOPE   H4X19921   4.872   5.178   9.739  0.7980 -0.7020  0.7751
  175SOPE   H4Y19922   5.004   5.272   9.845  0.7289  2.2090 -1.3171
  175SOPE   C3519923   4.946   5.360   9.660  0.1524 -0.3368 -0.3694
  175SOPE   H5X19924   4.980   5.464   9.679 -1.6383  0.1612  0.2455
  175SOPE   H5Y19925   4.849   5.364   9.606  0.0150  1.0923 -0.0571
  175SOPE   C3619926   5.053   5.287   9.573 -0.2927 -0.0209 -0.0059
  175SOPE   H6X19927   5.015   5.186   9.548  1.7748 -1.6449  2.8551
  175SOPE   H6Y19928   5.147   5.277   9.631 -0.0319  0.0488 -0.4082
  175SOPE   C3719929   5.069   5.366   9.438 -0.2661  0.7759 -0.1519
  175SOPE   H7X19930   5.146   5.310   9.381  0.0391 -0.2340  1.1893
  175SOPE   H7Y19931   5.102   5.472   9.447 -1.0415  1.0375 -0.3255
  175SOPE   C3819932   4.949   5.351   9.349 -0.3674  0.7932  0.0171
  175SOPE   H8X19933   4.970   5.394   9.249  0.8143 -0.7578 -0.4412
  175SOPE   H8Y19934   4.862   5.403   9.395  0.8232  2.0728  0.8861
  175SOPE   C3919935   4.892   5.203   9.336  0.3971  0.8536  0.5485
  175SOPE   H9X19936   4.845   5.170   9.431  0.6785 -0.4422  0.2487
  175SOPE   H9Y19937   4.979   5.138   9.311  1.5860  1.8233  1.9411
  175SOPE  C31019938   4.786   5.180   9.224  0.3820  0.4444 -0.5492
  175SOPE  H10X19939   4.694   5.231   9.260  2.3549  2.4752  1.9876
  175SOPE  H10Y19940   4.768   5.072   9.211 -2.1311  0.9590 -2.1438
  175SOPE  C31119941   4.820   5.230   9.090 -0.0979 -0.2452 -0.2816
  175SOPE  H11X19942   4.920   5.203   9.052 -0.0482  1.1413 -1.2387
  175SOPE  H11Y19943   4.817   5.341   9.083  3.2310 -0.0813 -0.6227
  175SOPE  C31219944   4.723   5.182   8.983 -0.1037 -0.2658 -0.6140
  175SOPE  H12X19945   4.623   5.217   9.015  0.2025  1.9923 -1.9668
  175SOPE  H12Y19946   4.715   5.072   8.968 -2.5530 -0.3074  0.5364
  175SOPE  C31319947   4.748   5.249   8.847 -0.5273  0.4509 -0.6463
  175SOPE  H13X19948   4.839   5.209   8.798  0.0322 -2.2346  2.3166
  175SOPE  H13Y19949   4.755   5.359   8.861 -3.0358  0.4392  1.4710
  175SOPE  C31419950   4.634   5.211   8.745  0.0661  0.2951  0.0979
  175SOPE  H14X19951   4.537   5.232   8.794  1.0175 -0.7233  2.5576
  175SOPE  H14Y19952   4.628   5.101   8.730  2.8649  0.3290 -2.0691
  175SOPE  C31519953   4.645   5.296   8.614  0.2892 -0.3298  0.5279
  175SOPE  H15X19954   4.744   5.279   8.567  0.2399 -0.3061  0.4133
  175SOPE  H15Y19955   4.643   5.404   8.637  3.1738  0.3876 -1.9233
  175SOPE  C31619956   4.536   5.251   8.514  0.5950 -0.1216  0.4722
  175SOPE  H16X19957   4.445   5.261   8.578  1.6287 -0.8136  2.0937
  175SOPE  H16Y19958   4.554   5.145   8.487 -0.9746 -0.5129  0.8211
  175SOPE  C31719959   4.524   5.337   8.384 -0.4186  0.4377 -0.9593
  175SOPE  H17X19960   4.460   5.274   8.319 -2.0258  0.8688  0.1462
  175SOPE  H17Y19961   4.626   5.330   8.340  0.7667 -0.4813  1.7130
  175SOPE  C31819962   4.471   5.477   8.405 -0.5793  0.1492 -0.7662
  175SOPE  H18X19963   4.544   5.540   8.461  0.2982 -2.0564  0.6778
  175SOPE  H18Y19964   4.378   5.476   8.467 -0.1825  0.7096 -0.1508
  175SOPE  H18Z19965   4.443   5.526   8.309 -1.1110 -0.3149 -0.8523
  176SOPE     N19966   4.719   4.448  11.014 -0.1864  0.4467 -0.5853
  176SOPE   HN119967   4.784   4.502  10.954  2.0683  0.0656  1.3727
  176SOPE   HN219968   4.665   4.513  11.075 -0.0438 -0.7841  0.9352
  176SOPE   HN319969   4.777   4.400  11.086 -1.0188 -1.0834 -0.8961
  176SOPE   C1219970   4.631   4.352  10.932  0.2360 -0.0652 -0.2655
  176SOPE  H12A19971   4.636   4.248  10.971  1.3466  0.0494 -0.0728
  176SOPE  H12B19972   4.668   4.353  10.827  0.5231  0.3780 -0.1642
  176SOPE   C1119973   4.482   4.401  10.926 -0.2147 -0.0671  0.7067
  176SOPE  H11A19974   4.434   4.413  11.026 -3.1117  0.1900 -0.6103
  176SOPE  H11B19975   4.429   4.322  10.869 -2.0137  0.5881  1.3967
  176SOPE     P19976   4.337   4.598  10.826  0.4916 -0.0441 -0.1299
  176SOPE   O1319977   4.348   4.704  10.719  0.4741  0.1063  0.0405
  176SOPE   O1419978   4.284   4.651  10.958  0.4512 -0.2647 -0.1283
  176SOPE   O1219979   4.478   4.527  10.858  0.4096 -0.7185 -0.4550
  176SOPE   O1119980   4.246   4.476  10.774 -0.1575  0.2178 -0.2342
  176SOPE    C119981   4.211   4.450  10.641  0.7305  0.1080 -0.0463
  176SOPE    HA19982   4.226   4.541  10.578  2.9682  0.3631  0.7718
  176SOPE    HB19983   4.104   4.427  10.620  0.5920 -0.5528  1.2592
  176SOPE    C219984   4.300   4.331  10.581  0.1964  0.2508 -0.4913
  176SOPE    HS19985   4.390   4.315  10.644 -0.9048  1.3990  1.4816
  176SOPE   O2119986   4.332   4.365  10.445 -0.0582  0.3734 -0.2452
  176SOPE   C2119987   4.425   4.297  10.389 -0.5692  0.9862  0.2407
  176SOPE   O2219988   4.489   4.208  10.443  0.8178  0.9216  0.8880
  176SOPE   C2219989   4.442   4.335  10.241  0.0887  0.1401  0.3347
  176SOPE   H2R19990   4.446   4.239  10.186  0.0045  0.7785 -0.8331
  176SOPE   H2S19991   4.536   4.389  10.216 -0.2925  0.0444 -1.4392
  176SOPE    C319992   4.233   4.195  10.588  0.4315  0.0793 -0.7898
  176SOPE    HX19993   4.210   4.185  10.696  0.1138  1.5437 -0.6914
  176SOPE    HY19994   4.298   4.112  10.553 -1.3649 -2.3399  1.2221
  176SOPE   O3119995   4.104   4.200  10.519  0.8458  0.0298  0.3161
  176SOPE   C3119996   4.034   4.080  10.516  0.4274  0.2372 -0.6154
  176SOPE   O3219997   4.068   3.987  10.581  0.3159  0.5858 -0.2031
  176SOPE   C3219998   3.906   4.068  10.427 -0.3338  0.1052 -0.4830
  176SOPE   H2X19999   3.930   4.105  10.325  2.3063  0.2339  0.0950
  176SOPE   H2Y20000   3.817   4.126  10.459 -0.1828 -0.5650  1.2389
  176SOPE   C2320001   4.342   4.423  10.172  0.2096 -0.8077  0.2609
  176SOPE   H3R20002   4.309   4.506  10.237 -0.5317 -2.3295  1.9238
  176SOPE   H3S20003   4.265   4.346  10.151  0.0185 -0.2788 -1.0677
  176SOPE   C2420004   4.397   4.479  10.040  0.3557  0.3952  0.0844
  176SOPE   H4R20005   4.312   4.530   9.989  0.0801 -0.3308 -0.2020
  176SOPE   H4S20006   4.488   4.542  10.048  1.0572 -0.4405 -1.0498
  176SOPE   C2520007   4.429   4.360   9.938  0.0315 -0.1776 -0.0968
  176SOPE   H5R20008   4.517   4.300   9.971 -0.1064  0.8105  2.2788
  176SOPE   H5S20009   4.343   4.291   9.953  0.2563 -0.2085  1.1733
  176SOPE   C2620010   4.462   4.414   9.799  0.1256 -0.3922  0.4737
  176SOPE   H6R20011   4.530   4.502   9.809  1.5928 -1.0558 -2.6778
  176SOPE   H6S20012   4.521   4.330   9.756 -1.2508 -1.1954  0.1127
  176SOPE   C2720013   4.335   4.430   9.711 -0.1997 -0.0757  0.0593
  176SOPE   H7R20014   4.279   4.334   9.718  1.6422 -1.1091  1.5998
  176SOPE   H7S20015   4.277   4.515   9.754 -1.1911  0.0542 -1.4677
  176SOPE   C2820016   4.362   4.471   9.566 -0.7441 -1.0584 -0.2336
  176SOPE   H8R20017   4.260   4.496   9.532 -1.1347  1.3319  2.3177
  176SOPE   H8S20018   4.419   4.566   9.565  1.9597 -2.4494  2.1456
  176SOPE   C2920019   4.424   4.354   9.495  0.1862  0.0175  0.1292
  176SOPE   H9120020   4.363   4.263   9.500  1.9847 -1.1990  0.7242
  176SOPE  C21020021   4.547   4.342   9.444 -0.3211  0.2587 -0.3026
  176SOPE  H10120022   4.572   4.237   9.421 -0.2275 -0.1434  1.5024
  176SOPE  C21120023   4.654   4.445   9.438 -0.2843  1.2200  0.2028
  176SOPE  H11R20024   4.615   4.543   9.473 -3.1874 -0.1291  1.0929
  176SOPE  H11S20025   4.699   4.457   9.337  1.1890 -0.7755  0.5625
  176SOPE  C21220026   4.772   4.411   9.539 -0.0700  0.0800  1.0051
  176SOPE  H12R20027   4.733   4.404   9.643 -1.8237 -0.1831  0.3770
  176SOPE  H12S20028   4.846   4.491   9.520 -0.5207  0.7760  2.1015
  176SOPE  C21320029   4.835   4.270   9.507  0.0788  0.9212  0.9379
  176SOPE  H13R20030   4.881   4.270   9.406  2.0032 -0.7967  1.7372
  176SOPE  H13S20031   4.761   4.187   9.499  1.0016  0.0895  0.8566
  176SOPE  C21420032   4.945   4.231   9.604 -0.1348 -0.5899 -0.5541
  176SOPE  H14R20033   4.901   4.226   9.706 -1.2115 -2.3694 -1.0544
  176SOPE  H14S20034   5.029   4.303   9.602  2.6849 -3.6227 -0.2766
  176SOPE  C21520035   4.998   4.095   9.576 -0.7000 -0.0455  0.3636
  176SOPE  H15R20036   4.998   4.083   9.466  1.7005 -2.2199  0.5137
  176SOPE  H15S20037   4.935   4.015   9.621 -1.1653 -0.9081 -1.7157
  176SOPE  C21620038   5.145   4.068   9.632 -0.3971 -0.1752  0.5315
  176SOPE  H16R20039   5.192   4.152   9.577 -2.0314 -0.2837 -1.1332
  176SOPE  H16S20040   5.171   3.966   9.595  1.6214 -0.0166  1.3940
  176SOPE  C21720041   5.177   4.079   9.779 -0.2924  0.4686 -1.0405
  176SOPE  H17R20042   5.154   4.182   9.812 -0.4248  0.3524 -0.7602
  176SOPE  H17S20043   5.287   4.064   9.793 -0.5369 -0.7546 -0.3186
  176SOPE  C21820044   5.087   3.982   9.863 -0.5374  0.5029  0.1321
  176SOPE  H18R20045   5.076   3.882   9.816 -0.8995  0.1861  0.8678
  176SOPE  H18S20046   4.981   4.016   9.872 -0.9526 -0.2558 -1.4752
  176SOPE  H18T20047   5.135   3.968   9.962 -0.0564  1.5582  0.0623
  176SOPE   C3320048   3.871   3.915  10.410  0.2658  0.2833 -0.2149
  176SOPE   H3X20049   3.873   3.867  10.511 -0.8597  0.1889 -0.2215
  176SOPE   H3Y20050   3.944   3.883  10.333  0.9925  2.6316 -0.5465
  176SOPE   C3420051   3.729   3.891  10.359  0.1971  0.3467 -0.3260
  176SOPE   H4X20052   3.726   3.943  10.260 -0.9022  0.5588 -0.2006
  176SOPE   H4Y20053   3.646   3.932  10.420  0.7556 -0.3435  0.9162
  176SOPE   C3520054   3.723   3.743  10.317 -0.2583  0.0740 -0.0136
  176SOPE   H5X20055   3.677   3.709  10.412  0.8041  1.3768  1.0053
  176SOPE   H5Y20056   3.819   3.690  10.301 -0.0804  0.2397  0.4808
  176SOPE   C3620057   3.629   3.717  10.194 -0.2323 -1.1638  0.0412
  176SOPE   H6X20058   3.534   3.764  10.226  0.2050 -0.5467  0.4686
  176SOPE   H6Y20059   3.599   3.611  10.183 -0.2185 -1.4242  2.1651
  176SOPE   C3720060   3.683   3.772  10.063  0.2920  0.6447 -0.5377
  176SOPE   H7X20061   3.761   3.697  10.036 -0.9261 -0.7048 -0.3973
  176SOPE   H7Y20062   3.729   3.873  10.070 -0.9997  1.2232 -0.2138
  176SOPE   C3820063   3.568   3.770   9.956 -0.0974 -0.1580  0.3272
  176SOPE   H8X20064   3.539   3.877   9.964  2.6665  0.6715  0.6847
  176SOPE   H8Y20065   3.489   3.701   9.992 -0.8835  0.8170  0.4872
  176SOPE   C3920066   3.619   3.730   9.817  0.0726  0.2942 -0.8815
  176SOPE   H9X20067   3.657   3.626   9.824 -1.1817 -0.0672  3.0869
  176SOPE   H9Y20068   3.709   3.789   9.788  2.8081 -2.9988  0.1940
  176SOPE  C31020069   3.506   3.727   9.715  0.9082 -0.1424 -0.5725
  176SOPE  H10X20070   3.460   3.828   9.706  0.5524 -0.2062  0.4372
  176SOPE  H10Y20071   3.422   3.660   9.744 -1.0578  2.7294  0.9295
  176SOPE  C31120072   3.561   3.693   9.576  0.4173  0.2031 -0.4433
  176SOPE  H11X20073   3.482   3.673   9.500 -2.0710  1.0945  1.7715
  176SOPE  H11Y20074   3.614   3.596   9.584  2.5880  1.2941 -0.6996
  176SOPE  C31220075   3.658   3.795   9.518 -0.5496  0.0011 -0.2185
  176SOPE  H12X20076   3.763   3.775   9.550  1.2768  0.0010 -5.2988
  176SOPE  H12Y20077   3.624   3.892   9.560  1.5443  0.8673 -0.4132
  176SOPE  C31320078   3.665   3.793   9.369  0.1320  0.7726  0.0993
  176SOPE  H13X20079   3.563   3.780   9.327 -0.4305  4.5813 -0.0829
  176SOPE  H13Y20080   3.704   3.692   9.344 -1.8156 -0.4174  1.5601
  176SOPE  C31420081   3.725   3.911   9.303  0.5404 -0.1778  0.6184
  176SOPE  H14X20082   3.833   3.925   9.324  0.1463  3.9004  0.8684
  176SOPE  H14Y20083   3.680   4.007   9.339 -0.7144 -0.3599 -0.3867
  176SOPE  C31520084   3.714   3.912   9.145  0.2175 -0.9766 -0.2686
  176SOPE  H15X20085   3.730   4.016   9.109 -1.5178 -1.4281 -2.6138
  176SOPE  H15Y20086   3.606   3.896   9.125  0.0162  0.7945 -0.7877
  176SOPE  C31620087   3.819   3.822   9.092  0.1832 -0.2815 -0.7215
  176SOPE  H16X20088   3.798   3.714   9.104  1.4814 -0.4315  0.3689
  176SOPE  H16Y20089   3.919   3.853   9.127  0.6560  2.4080 -3.9669
  176SOPE  C31720090   3.824   3.818   8.940 -0.1030 -0.3414 -0.4233
  176SOPE  H17X20091   3.882   3.908   8.908  0.3501 -0.8227 -0.9721
  176SOPE  H17Y20092   3.720   3.829   8.904 -0.3362  1.7312  0.7015
  176SOPE  C31820093   3.896   3.696   8.887  0.3490 -0.1952  0.3810
  176SOPE  H18X20094   3.921   3.697   8.779 -1.1405 -1.6597 -0.0133
  176SOPE  H18Y20095   3.839   3.602   8.904  0.5643 -0.0270  2.3025
  176SOPE  H18Z20096   3.992   3.678   8.939 -0.8677 -2.5844  2.0121
  177SOPE     N20097   3.623   2.448  11.424  0.4015  0.0735  0.3297
  177SOPE   HN120098   3.555   2.524  11.443  0.3544  0.1526 -0.1431
  177SOPE   HN220099   3.570   2.361  11.404 -1.9695  1.7186 -1.1406
  177SOPE   HN320100   3.686   2.431  11.505  2.3091  1.0828 -0.8507
  177SOPE   C1220101   3.708   2.485  11.302  0.0437 -0.0189  0.4905
  177SOPE  H12A20102   3.792   2.545  11.343 -0.1869  2.2351 -2.0690
  177SOPE  H12B20103   3.649   2.546  11.230 -2.3870 -1.8288  0.8050
  177SOPE   C1120104   3.751   2.355  11.226  0.4093  0.1760 -0.1355
  177SOPE  H11A20105   3.824   2.313  11.298  0.4378  0.5124  0.0301
  177SOPE  H11B20106   3.810   2.384  11.137  1.7861 -0.6284  0.4948
  177SOPE     P20107   3.568   2.250  11.071 -0.3271  0.0271 -0.3074
  177SOPE   O1320108   3.487   2.376  11.061  0.3538 -0.7365  0.4405
  177SOPE   O1420109   3.499   2.123  11.037  0.1342  1.5666  0.0805
  177SOPE   O1220110   3.641   2.256  11.209 -0.3779 -0.5195 -0.3177
  177SOPE   O1120111   3.676   2.278  10.969 -0.4005  0.2820  0.2406
  177SOPE    C120112   3.777   2.184  10.922  0.0351  0.3079  0.2837
  177SOPE    HA20113   3.760   2.086  10.972 -2.2642 -0.7018 -2.2116
  177SOPE    HB20114   3.879   2.211  10.957 -0.0689  1.5624 -0.3704
  177SOPE    C220115   3.781   2.173  10.768  0.1301  0.5407  0.0232
  177SOPE    HS20116   3.862   2.102  10.739 -0.0555  1.8441 -4.5074
  177SOPE   O2120117   3.805   2.307  10.720 -0.0615  0.2221 -0.0380
  177SOPE   C2120118   3.881   2.322  10.617 -0.1936  0.4844 -0.5050
  177SOPE   O2220119   3.944   2.235  10.556 -0.0173 -0.2174 -0.2746
  177SOPE   C2220120   3.905   2.470  10.587  0.6384  0.1894 -0.1176
  177SOPE   H2R20121   4.015   2.476  10.601  1.2022 -3.9647 -1.4143
  177SOPE   H2S20122   3.856   2.534  10.663  1.1353  0.8552 -0.3433
  177SOPE    C320123   3.641   2.115  10.726  0.0401 -0.7786 -0.7981
  177SOPE    HX20124   3.561   2.192  10.735 -1.1795 -2.2131  1.4262
  177SOPE    HY20125   3.609   2.035  10.795 -0.7126 -0.2727 -0.5485
  177SOPE   O3120126   3.643   2.049  10.594  0.7348 -0.2617  0.5081
  177SOPE   C3120127   3.618   2.135  10.490  0.2058 -0.6438 -0.8170
  177SOPE   O3220128   3.590   2.255  10.504  0.5384 -0.2192 -0.7195
  177SOPE   C3220129   3.634   2.059  10.365 -1.0549  0.2301 -0.2849
  177SOPE   H2X20130   3.551   2.071  10.292 -2.0678 -3.1680  0.1367
  177SOPE   H2Y20131   3.619   1.950  10.378  0.9968 -0.5608 -3.4608
  177SOPE   C2320132   3.859   2.521  10.449 -0.1285 -0.1973 -0.3050
  177SOPE   H3R20133   3.753   2.497  10.425 -1.2399  4.3309 -0.9958
  177SOPE   H3S20134   3.933   2.483  10.375  1.5276  2.5978 -0.2277
  177SOPE   C2420135   3.878   2.672  10.438 -0.4748  0.1544 -0.2937
  177SOPE   H4R20136   3.813   2.734  10.503 -0.1749 -0.0484  0.2016
  177SOPE   H4S20137   3.984   2.686  10.469 -0.3328 -2.4212  0.6545
  177SOPE   C2520138   3.848   2.732  10.299  0.6555  0.2620  0.5145
  177SOPE   H5R20139   3.738   2.724  10.285  0.7482 -0.8438  0.3345
  177SOPE   H5S20140   3.865   2.841  10.289 -1.7215  0.5672 -0.9454
  177SOPE   C2620141   3.903   2.664  10.173  0.3528 -0.5454  0.3751
  177SOPE   H6R20142   4.009   2.642  10.194  0.4666  1.3046  2.0057
  177SOPE   H6S20143   3.851   2.565  10.169 -0.4498 -0.2397  2.1709
  177SOPE   C2720144   3.878   2.740  10.040 -0.1548 -1.0000 -0.5671
  177SOPE   H7R20145   3.769   2.755  10.028 -0.1730  2.4561  2.1466
  177SOPE   H7S20146   3.923   2.838  10.065 -0.8826 -0.4616 -1.3314
  177SOPE   C2820147   3.950   2.681   9.925  0.1538 -0.4351  0.2531
  177SOPE   H8R20148   3.947   2.762   9.849 -0.2987 -0.5599  0.1349
  177SOPE   H8S20149   4.055   2.651   9.944  0.7539  1.2067 -0.2850
  177SOPE   C2920150   3.881   2.565   9.865  0.4001  0.4682  0.3690
  177SOPE   H9120151   3.862   2.486   9.939  2.8757 -0.8900 -0.3239
  177SOPE  C21020152   3.823   2.551   9.742  0.4901 -0.1466  0.1068
  177SOPE  H10120153   3.778   2.457   9.708 -0.7097  0.9830 -1.6340
  177SOPE  C21120154   3.830   2.650   9.625  0.0363 -0.2722  0.3959
  177SOPE  H11R20155   3.866   2.750   9.658  1.3863 -0.9927  1.2176
  177SOPE  H11S20156   3.734   2.655   9.569  0.8350 -1.9673 -1.2453
  177SOPE  C21220157   3.932   2.609   9.513 -0.2611  0.3333  0.0582
  177SOPE  H12R20158   4.034   2.631   9.552  0.7954  0.0834 -2.3791
  177SOPE  H12S20159   3.909   2.688   9.439  0.6994 -0.2986 -0.9390
  177SOPE  C21320160   3.912   2.476   9.444  0.2844  0.4516 -0.9919
  177SOPE  H13R20161   3.819   2.503   9.389  0.3912  0.6634 -1.0653
  177SOPE  H13S20162   3.881   2.399   9.518 -2.8392  0.0925 -2.4915
  177SOPE  C21420163   4.008   2.434   9.341  0.5090  0.2168 -0.1177
  177SOPE  H14R20164   3.976   2.332   9.308  1.1358  0.7260 -2.3966
  177SOPE  H14S20165   4.096   2.411   9.405 -1.2300 -0.3443  2.2702
  177SOPE  C21520166   4.032   2.535   9.224 -0.0746  0.0201 -0.0913
  177SOPE  H15R20167   4.092   2.625   9.249 -1.9367  0.7770  2.0318
  177SOPE  H15S20168   3.931   2.570   9.192  0.7367  1.9638 -0.6886
  177SOPE  C21620169   4.086   2.458   9.101  0.2423  0.1128  0.1430
  177SOPE  H16R20170   4.004   2.386   9.078  1.5297 -1.2947 -0.2262
  177SOPE  H16S20171   4.178   2.398   9.117  0.8150 -0.1059 -3.2407
  177SOPE  C21720172   4.106   2.561   8.989  0.2659 -0.6280 -0.1130
  177SOPE  H17R20173   4.168   2.638   9.040  0.3661 -1.1744  0.6162
  177SOPE  H17S20174   4.011   2.610   8.961  0.7089 -0.5239 -1.4979
  177SOPE  C21820175   4.169   2.502   8.869 -0.2528 -0.6170  0.3359
  177SOPE  H18R20176   4.122   2.403   8.850  2.2429 -1.7490 -0.3160
  177SOPE  H18S20177   4.278   2.483   8.873 -0.2050 -0.5099 -0.3411
  177SOPE  H18T20178   4.153   2.567   8.780  1.6195  3.5531  2.7803
  177SOPE   C3320179   3.769   2.081  10.287 -0.5238 -0.6136 -0.2717
  177SOPE   H3X20180   3.757   2.021  10.194 -2.2827  0.3724 -0.7360
  177SOPE   H3Y20181   3.853   2.028  10.336 -1.1539 -2.0717 -0.7084
  177SOPE   C3420182   3.788   2.231  10.255  0.6382  0.0568  0.3690
  177SOPE   H4X20183   3.895   2.254  10.235  0.4751  0.4809 -0.0448
  177SOPE   H4Y20184   3.766   2.297  10.341 -1.3820  0.7407 -0.6149
  177SOPE   C3520185   3.704   2.277  10.132 -0.8729  0.7327  0.1922
  177SOPE   H5X20186   3.717   2.388  10.127 -0.2235  0.6624  0.2212
  177SOPE   H5Y20187   3.597   2.247  10.137 -0.8608  0.8623  1.5586
  177SOPE   C3620188   3.768   2.215  10.005  0.5418  0.2106 -0.0602
  177SOPE   H6X20189   3.757   2.104  10.001 -0.9230  0.3654 -2.8928
  177SOPE   H6Y20190   3.874   2.248   9.992 -0.1522  2.7002  0.1152
  177SOPE   C3720191   3.685   2.251   9.877  0.1336 -0.8888  0.2712
  177SOPE   H7X20192   3.697   2.361   9.867 -1.9293 -0.7857 -2.3962
  177SOPE   H7Y20193   3.579   2.229   9.903  0.1699 -1.5914 -0.1438
  177SOPE   C3820194   3.719   2.171   9.746 -0.4562 -0.2482 -0.0015
  177SOPE   H8X20195   3.700   2.063   9.768 -0.6474  0.0663  1.4803
  177SOPE   H8Y20196   3.829   2.172   9.727 -0.2437 -3.1168  0.4782
  177SOPE   C3920197   3.651   2.230   9.620  0.5932  0.4419  0.1971
  177SOPE   H9X20198   3.677   2.338   9.614  0.6045  0.4656  0.6294
  177SOPE   H9Y20199   3.540   2.225   9.621  0.5628 -0.4473 -1.9426
  177SOPE  C31020200   3.694   2.158   9.487  0.3540  0.0188 -0.2587
  177SOPE  H10X20201   3.707   2.050   9.513 -3.7622  0.0479  2.8710
  177SOPE  H10Y20202   3.789   2.194   9.441 -0.5002  1.1214 -1.1909
  177SOPE  C31120203   3.593   2.170   9.376 -0.4418  0.1997 -0.5527
  177SOPE  H11X20204   3.523   2.255   9.388 -0.8005 -0.2807  1.1046
  177SOPE  H11Y20205   3.535   2.075   9.374  1.0456 -0.7520 -2.0239
  177SOPE  C31220206   3.659   2.177   9.240 -0.2322  0.0012  0.0023
  177SOPE  H12X20207   3.741   2.102   9.240 -2.1307 -2.1888  0.6362
  177SOPE  H12Y20208   3.703   2.279   9.236 -2.1204  0.9128  1.1878
  177SOPE  C31320209   3.560   2.160   9.116 -0.0962  0.5218  0.2156
  177SOPE  H13X20210   3.487   2.244   9.109  1.6207  2.1669  1.1742
  177SOPE  H13Y20211   3.505   2.067   9.142  0.9196 -0.2653 -0.4024
  177SOPE  C31420212   3.624   2.138   8.974 -0.3071  0.3683 -0.6367
  177SOPE  H14X20213   3.551   2.072   8.923  0.5504 -2.7324  1.8467
  177SOPE  H14Y20214   3.699   2.059   8.994 -0.3323 -0.1171 -2.3019
  177SOPE  C31520215   3.671   2.258   8.892 -0.0365  0.5130 -0.1220
  177SOPE  H15X20216   3.700   2.225   8.791  2.1459 -0.8533  0.8844
  177SOPE  H15Y20217   3.767   2.292   8.938  0.3932 -0.9433  0.1112
  177SOPE  C31620218   3.580   2.381   8.890  0.1455 -0.5608  0.2101
  177SOPE  H16X20219   3.567   2.429   8.989  0.0236  3.3533 -1.4963
  177SOPE  H16Y20220   3.477   2.351   8.861 -0.2820  1.7591 -0.9269
  177SOPE  C31720221   3.620   2.490   8.792  0.1744  0.2331  0.5034
  177SOPE  H17X20222   3.545   2.571   8.804  0.0443 -0.1062  2.2111
  177SOPE  H17Y20223   3.621   2.469   8.683 -1.7778 -0.4809  0.5806
  177SOPE  C31820224   3.757   2.544   8.837  0.2513 -0.2995  0.1375
  177SOPE  H18X20225   3.770   2.637   8.777 -2.6168 -0.4438 -0.8680
  177SOPE  H18Y20226   3.833   2.470   8.805 -0.2371 -0.7829  0.0944
  177SOPE  H18Z20227   3.766   2.566   8.945  0.0999 -1.8956  0.4975
  178SOPE     N20228   1.106   1.118  10.653 -0.4043 -0.2266 -0.2179
  178SOPE   HN120229   1.065   1.085  10.564 -1.4054  0.1799  0.0850
  178SOPE   HN220230   1.030   1.115  10.724  0.5228 -0.6933  0.7941
  178SOPE   HN320231   1.134   1.216  10.631  0.6988  0.0622  2.0924
  178SOPE   C1220232   1.229   1.027  10.688  0.2365  0.0221 -0.1279
  178SOPE  H12A20233   1.219   1.016  10.798 -4.0224 -0.4264 -0.3762
  178SOPE  H12B20234   1.323   1.080  10.661  1.8144 -1.2445  2.5155
  178SOPE   C1120235   1.202   0.888  10.617  1.2435 -0.0942 -0.2120
  178SOPE  H11A20236   1.270   0.807  10.648 -1.1540 -0.5313  4.9504
  178SOPE  H11B20237   1.222   0.915  10.511  2.1622  3.8018  0.8002
  178SOPE     P20238   1.009   0.728  10.701  0.0539  0.2346 -0.2704
  178SOPE   O1320239   0.870   0.738  10.739  0.7823  0.6823  0.0066
  178SOPE   O1420240   1.096   0.672  10.808  0.5748  0.6191  0.7494
  178SOPE   O1220241   1.062   0.857  10.630  0.2599  0.0210  0.2741
  178SOPE   O1120242   1.015   0.619  10.587 -0.2270  0.3869  0.8030
  178SOPE    C120243   0.977   0.648  10.454  0.0839 -0.1016 -0.3465
  178SOPE    HA20244   0.989   0.757  10.435  3.3919  0.2974  2.9489
  178SOPE    HB20245   0.870   0.628  10.431  0.2864 -0.4430 -1.0085
  178SOPE    C220246   1.064   0.570  10.351 -0.6041  0.1102 -0.5315
  178SOPE    HS20247   1.054   0.461  10.371 -1.6882 -1.0578 -5.8806
  178SOPE   O2120248   1.197   0.618  10.353  0.3671 -0.3959 -0.0586
  178SOPE   C2120249   1.289   0.523  10.377 -0.1941  0.2705 -0.0553
  178SOPE   O2220250   1.263   0.404  10.383 -0.3661  0.5043  0.5613
  178SOPE   C2220251   1.431   0.580  10.371 -0.6644 -0.1328  0.0141
  178SOPE   H2R20252   1.474   0.540  10.466 -0.2640  0.2084 -0.0214
  178SOPE   H2S20253   1.430   0.691  10.374  1.7159 -0.0481 -0.4409
  178SOPE    C320254   0.991   0.575  10.209 -0.1620  0.2151  0.4465
  178SOPE    HX20255   0.961   0.680  10.186 -1.9769  0.0704  1.8752
  178SOPE    HY20256   0.894   0.521  10.206 -0.7767  1.2134 -4.0429
  178SOPE   O3120257   1.068   0.516  10.105  0.3177 -0.4302 -0.2496
  178SOPE   C3120258   1.061   0.576   9.980 -0.4701  0.0486 -0.5156
  178SOPE   O3220259   1.010   0.683   9.962 -0.9088 -0.2268  0.2308
  178SOPE   C3220260   1.122   0.485   9.876 -0.1772  0.6059  0.2581
  178SOPE   H2X20261   1.084   0.381   9.887 -0.3818  0.4601 -1.6307
  178SOPE   H2Y20262   1.229   0.484   9.905  0.1586 -0.2912 -0.9408
  178SOPE   C2320263   1.525   0.544  10.251 -0.1652  0.1410  0.2834
  178SOPE   H3R20264   1.546   0.437  10.234  0.8377  0.8023 -3.6470
  178SOPE   H3S20265   1.623   0.593  10.268 -0.6326  1.3430 -0.3086
  178SOPE   C2420266   1.474   0.603  10.121  0.0383  0.1782 -0.4187
  178SOPE   H4R20267   1.377   0.562  10.086  0.7312 -0.4202 -1.6979
  178SOPE   H4S20268   1.458   0.709  10.149  0.4459  1.1086 -3.3706
  178SOPE   C2520269   1.576   0.615  10.005  0.7771  0.6283  0.1480
  178SOPE   H5R20270   1.574   0.719   9.966 -1.0857 -0.0118 -1.6237
  178SOPE   H5S20271   1.680   0.595  10.037  1.6631 -0.2301 -2.9387
  178SOPE   C2620272   1.547   0.514   9.894 -0.4530  0.3908  0.6385
  178SOPE   H6R20273   1.549   0.410   9.932  0.9973  0.2270  0.1953
  178SOPE   H6S20274   1.445   0.531   9.855 -0.3255 -0.7915 -0.2649
  178SOPE   C2720275   1.659   0.509   9.792  0.7794  0.1207 -0.1780
  178SOPE   H7R20276   1.679   0.614   9.763  1.7536 -0.0218 -0.0505
  178SOPE   H7S20277   1.758   0.470   9.822  1.7430  3.2034  1.0014
  178SOPE   C2820278   1.609   0.436   9.659 -0.0598  0.0880  0.7525
  178SOPE   H8R20279   1.608   0.330   9.692  1.3850  0.0004  0.5737
  178SOPE   H8S20280   1.504   0.469   9.644 -0.4711 -1.8725 -1.1102
  178SOPE   C2920281   1.701   0.457   9.536 -0.6397  0.4112 -0.0926
  178SOPE   H9120282   1.800   0.408   9.537 -0.6357  0.4292  0.8299
  178SOPE  C21020283   1.673   0.516   9.424  0.4105  0.4533 -0.1249
  178SOPE  H10120284   1.761   0.539   9.362  0.3098  2.9904  0.5456
  178SOPE  C21120285   1.539   0.586   9.398 -0.2031 -0.8476 -0.9015
  178SOPE  H11R20286   1.546   0.694   9.425 -1.5443 -0.9264 -0.1447
  178SOPE  H11S20287   1.466   0.548   9.472  2.0476  1.0348  2.5546
  178SOPE  C21220288   1.483   0.572   9.256 -0.2230 -0.3180  0.1930
  178SOPE  H12R20289   1.394   0.637   9.248  0.8271  1.4584  2.0160
  178SOPE  H12S20290   1.447   0.471   9.226 -0.0021 -0.0090 -1.1945
  178SOPE  C21320291   1.579   0.632   9.145 -0.0037  0.6225 -0.4329
  178SOPE  H13R20292   1.643   0.711   9.189  0.7216 -0.7148  1.0184
  178SOPE  H13S20293   1.518   0.677   9.064 -0.2565 -1.6497 -1.5831
  178SOPE  C21420294   1.662   0.529   9.071  0.1389 -0.4894  0.4170
  178SOPE  H14R20295   1.619   0.429   9.051  0.8420 -1.0702  1.7145
  178SOPE  H14S20296   1.751   0.520   9.137  0.9800 -1.6474 -0.8359
  178SOPE  C21520297   1.716   0.584   8.936 -0.0975 -0.8347 -0.1991
  178SOPE  H15R20298   1.800   0.514   8.921  1.0557 -0.0981  2.2138
  178SOPE  H15S20299   1.756   0.688   8.940  1.0694 -1.2151 -1.1991
  178SOPE  C21620300   1.623   0.558   8.821  0.0655  0.0473 -0.4559
  178SOPE  H16R20301   1.539   0.630   8.832 -0.2036 -0.3697  0.3069
  178SOPE  H16S20302   1.588   0.453   8.836  1.1543 -0.1722  0.7543
  178SOPE  C21720303   1.684   0.561   8.680 -0.0760 -0.4710 -0.5871
  178SOPE  H17R20304   1.597   0.525   8.620 -0.6465  2.4970 -1.6852
  178SOPE  H17S20305   1.765   0.486   8.666 -0.1045 -1.0040  1.6557
  178SOPE  C21820306   1.722   0.703   8.630 -0.2289 -0.5879  1.3850
  178SOPE  H18R20307   1.630   0.766   8.620 -0.0643 -0.7293 -3.4644
  178SOPE  H18S20308   1.752   0.706   8.523 -0.5457 -2.5417  1.2033
  178SOPE  H18T20309   1.795   0.769   8.683 -0.4951  1.8627 -1.0519
  178SOPE   C3320310   1.122   0.534   9.728  0.7910  0.1386 -0.1177
  178SOPE   H3X20311   1.161   0.638   9.733  0.3313  0.2524  2.4151
  178SOPE   H3Y20312   1.016   0.527   9.694  0.9961 -2.3256 -0.4563
  178SOPE   C3420313   1.207   0.445   9.631 -0.2433  0.0456 -0.2990
  178SOPE   H4X20314   1.170   0.341   9.626  0.7116 -0.3001 -0.3227
  178SOPE   H4Y20315   1.308   0.439   9.678 -0.0244 -1.1325 -0.8937
  178SOPE   C3520316   1.214   0.501   9.485 -0.5776 -0.6151 -0.4758
  178SOPE   H5X20317   1.283   0.442   9.421 -1.9480 -1.3945 -1.2816
  178SOPE   H5Y20318   1.265   0.600   9.492 -1.2448 -0.2513 -0.5883
  178SOPE   C3620319   1.086   0.499   9.404  0.9383  0.2218 -0.4491
  178SOPE   H6X20320   1.003   0.536   9.468  0.4609 -1.1511 -0.2436
  178SOPE   H6Y20321   1.061   0.392   9.388 -0.3745  0.5827 -0.9337
  178SOPE   C3720322   1.103   0.565   9.262 -0.0038 -0.2381 -0.2503
  178SOPE   H7X20323   1.187   0.636   9.263 -1.6147  1.7542 -0.2903
  178SOPE   H7Y20324   1.012   0.625   9.241  0.4374  2.3450  4.0977
  178SOPE   C3820325   1.132   0.455   9.157  0.4213 -0.1127 -0.4449
  178SOPE   H8X20326   1.042   0.389   9.150  0.4770 -0.4345  1.3770
  178SOPE   H8Y20327   1.217   0.401   9.204  0.8488 -0.4681 -1.5926
  178SOPE   C3920328   1.165   0.519   9.024 -0.0864 -1.4231 -0.2710
  178SOPE   H9X20329   1.248   0.593   9.032 -0.2527 -1.1746 -0.8070
  178SOPE   H9Y20330   1.084   0.586   8.990  1.0793 -0.5135 -1.3643
  178SOPE  C31020331   1.178   0.413   8.916  0.7051 -0.3814  0.0702
  178SOPE  H10X20332   1.153   0.459   8.818 -1.4038 -2.4781 -0.4492
  178SOPE  H10Y20333   1.092   0.345   8.933 -0.8732  1.9522  2.2066
  178SOPE  C31120334   1.313   0.341   8.908 -0.5045  0.6112  0.6972
  178SOPE  H11X20335   1.325   0.263   8.986 -0.3419  1.0098  1.0757
  178SOPE  H11Y20336   1.399   0.412   8.905  1.0733 -1.2304  0.4502
  178SOPE  C31220337   1.301   0.267   8.772  0.2095 -0.5592 -0.6496
  178SOPE  H12X20338   1.326   0.352   8.705 -0.2809 -0.5361 -0.8077
  178SOPE  H12Y20339   1.196   0.246   8.744 -0.1749  1.0603 -0.5266
  178SOPE  C31320340   1.403   0.157   8.745 -0.6336 -0.3709 -0.6024
  178SOPE  H13X20341   1.382   0.064   8.802  4.2401 -1.2155  0.2333
  178SOPE  H13Y20342   1.498   0.200   8.784 -0.9625  1.1683 -1.4658
  178SOPE  C31420343   1.413   0.126   8.596  0.6420 -1.1106 -0.4139
  178SOPE  H14X20344   1.391   0.222   8.545 -1.6704  0.3147  2.8437
  178SOPE  H14Y20345   1.323   0.075   8.556 -0.1913  1.0581 -1.4417
  178SOPE  C31520346   1.537   0.061   8.549  0.0383  1.0789  0.0624
  178SOPE  H15X20347   1.627   0.105   8.597 -0.0693 -0.3099  1.6096
  178SOPE  H15Y20348   1.548   0.057   8.438 -0.5472 -0.4779  0.0444
  178SOPE  C31620349   1.527  -0.099   8.577  0.6817 -0.1014 -0.3689
  178SOPE  H16X20350   1.489  -0.152   8.487  2.0472 -2.2687  0.2483
  178SOPE  H16Y20351   1.450  -0.107   8.657  2.4119  0.1036  1.4031
  178SOPE  C31720352   1.657  -0.167   8.633 -0.1058 -0.6871  0.6675
  178SOPE  H17X20353   1.705  -0.108   8.714  0.3766 -1.2762  0.8198
  178SOPE  H17Y20354   1.735  -0.158   8.554 -0.7815 -2.5311 -0.2627
  178SOPE  C31820355   1.652  -0.314   8.662 -0.7652 -0.0521  0.3665
  178SOPE  H18X20356   1.669  -0.324   8.771  0.8353 -1.2009  0.0512
  178SOPE  H18Y20357   1.740  -0.361   8.613  0.4377  2.5274 -0.1366
  178SOPE  H18Z20358   1.558  -0.371   8.646 -0.5475 -0.3404  0.0998
  179SOPE     N20359   0.155   1.569   6.571  0.0597  0.2035 -0.1980
  179SOPE   HN120360   0.258   1.586   6.579 -0.0580  0.4926  0.8500
  179SOPE   HN220361   0.138   1.469   6.547 -1.6597  0.9757 -2.4623
  179SOPE   HN320362   0.115   1.632   6.499 -1.4553 -0.6638 -0.1571
  179SOPE   C1220363   0.076   1.595   6.691 -0.1052  0.1129  0.2570
  179SOPE  H12A20364   0.122   1.547   6.780 -1.4783 -2.3390 -0.2857
  179SOPE  H12B20365  -0.030   1.564   6.683 -0.2643  0.2128  1.7343
  179SOPE   C1120366   0.089   1.749   6.717 -0.2712 -0.4893  0.4993
  179SOPE  H11A20367   0.198   1.758   6.736 -0.4917 -1.4967  2.5467
  179SOPE  H11B20368   0.046   1.771   6.817 -0.5172  1.2672  0.0316
  179SOPE     P20369  -0.117   1.854   6.593  0.0001 -0.6084  0.2896
  179SOPE   O1320370  -0.175   1.722   6.591 -0.5008 -0.6580  0.1224
  179SOPE   O1420371  -0.152   1.947   6.480  0.1226  0.2457 -0.3430
  179SOPE   O1220372   0.045   1.838   6.611 -0.2265  0.0509  0.2617
  179SOPE   O1120373  -0.148   1.917   6.726  0.3418  0.7857 -0.4941
  179SOPE    C120374  -0.121   2.051   6.769  0.1067 -0.1381 -0.6303
  179SOPE    HA20375  -0.202   2.084   6.839  0.7502 -0.1986  0.1647
  179SOPE    HB20376  -0.112   2.121   6.684  2.1551 -0.4448 -0.7047
  179SOPE    C220377   0.017   2.069   6.851 -0.4800 -0.7517  0.5461
  179SOPE    HS20378   0.093   2.027   6.781 -0.1669  1.7256 -0.7193
  179SOPE   O2120379   0.012   2.005   6.975  0.0696 -0.0322 -0.9660
  179SOPE   C2120380   0.130   1.951   7.020  0.4090  0.1368  0.3082
  179SOPE   O2220381   0.231   1.951   6.950  0.6402 -0.7414  0.2720
  179SOPE   C2220382   0.117   1.904   7.158  0.3585 -0.5725 -0.5741
  179SOPE   H2R20383   0.051   1.815   7.169  0.7240 -0.9335 -1.2145
  179SOPE   H2S20384   0.087   1.992   7.219 -1.8588 -0.8481 -1.1640
  179SOPE    C320385   0.034   2.227   6.865  0.9251 -0.1738  0.1209
  179SOPE    HX20386  -0.065   2.261   6.900  0.9327 -0.5642  0.5244
  179SOPE    HY20387   0.072   2.263   6.767  1.6709  0.7386  0.7299
  179SOPE   O3120388   0.136   2.252   6.966 -0.1066  0.0428  0.3054
  179SOPE   C3120389   0.102   2.297   7.081  0.1343  0.2926 -0.2893
  179SOPE   O3220390  -0.014   2.314   7.126  0.0696  0.1079  0.3755
  179SOPE   C3220391   0.227   2.317   7.171  0.6231  0.3170  0.9136
  179SOPE   H2X20392   0.239   2.427   7.167 -0.2751  0.3974 -1.8073
  179SOPE   H2Y20393   0.310   2.262   7.122 -0.1331  0.2516 -0.3374
  179SOPE   C2320394   0.256   1.876   7.223  0.1843  0.0351 -0.0789
  179SOPE   H3R20395   0.326   1.945   7.171 -0.1235 -0.1727 -0.7847
  179SOPE   H3S20396   0.285   1.770   7.208  1.4819  0.4673 -0.7916
  179SOPE   C2420397   0.261   1.912   7.379 -0.2948 -0.1292  0.7441
  179SOPE   H4R20398   0.359   1.892   7.427  1.3041  0.3049 -2.0833
  179SOPE   H4S20399   0.244   2.022   7.375  3.6836  0.5869  0.0033
  179SOPE   C2520400   0.156   1.838   7.467 -0.4832  0.2571 -1.1916
  179SOPE   H5R20401   0.052   1.874   7.448 -2.0920 -3.7813 -1.0382
  179SOPE   H5S20402   0.166   1.728   7.452  2.2647 -0.6379  4.3741
  179SOPE   C2620403   0.184   1.861   7.620  0.0788 -0.1725 -0.3944
  179SOPE   H6R20404   0.289   1.842   7.651 -0.0923  0.3626  0.5504
  179SOPE   H6S20405   0.183   1.970   7.641 -1.9982 -0.1492 -0.4133
  179SOPE   C2720406   0.081   1.793   7.712 -0.2487  0.0330 -0.3469
  179SOPE   H7R20407  -0.017   1.843   7.700  0.5854  1.6906 -0.6989
  179SOPE   H7S20408   0.070   1.683   7.702 -0.3144  0.0714 -0.7091
  179SOPE   C2820409   0.110   1.806   7.864  0.1977 -0.5927 -0.6443
  179SOPE   H8R20410   0.217   1.785   7.888  0.3187  2.2411  1.8112
  179SOPE   H8S20411   0.102   1.912   7.893  0.2219 -1.0541  1.1769
  179SOPE   C2920412   0.024   1.737   7.971  0.7374  0.4551  0.2596
  179SOPE   H9120413   0.044   1.630   7.987 -0.5405  0.1284 -0.2557
  179SOPE  C21020414  -0.052   1.798   8.057  0.2167  0.6517  0.1504
  179SOPE  H10120415  -0.104   1.748   8.140  0.5797  1.0385  0.6169
  179SOPE  C21120416  -0.078   1.951   8.070  0.0639  0.0731 -0.3785
  179SOPE  H11R20417  -0.185   1.964   8.093  0.5951  1.3892  1.5693
  179SOPE  H11S20418  -0.055   2.009   7.978  2.0684  1.0387  0.6518
  179SOPE  C21220419   0.000   2.009   8.193 -0.6254  0.5224  0.7377
  179SOPE  H12R20420  -0.012   2.119   8.192 -0.2935  0.6010 -1.7653
  179SOPE  H12S20421   0.105   1.979   8.172 -0.9585 -0.2202  0.0639
  179SOPE  C21320422  -0.044   1.944   8.318  0.6378  0.2406  0.2516
  179SOPE  H13R20423  -0.019   1.836   8.311  0.4045  0.1897  0.1949
  179SOPE  H13S20424  -0.152   1.970   8.323  0.4671  0.5912 -2.8182
  179SOPE  C21420425   0.022   2.011   8.445 -0.2317  0.6972  0.2629
  179SOPE  H14R20426  -0.036   1.955   8.521  0.0918  0.6170  0.4503
  179SOPE  H14S20427   0.001   2.120   8.457 -1.3053  0.6342 -0.8845
  179SOPE  C21520428   0.172   1.975   8.453 -0.2305 -0.3676  0.1547
  179SOPE  H15R20429   0.213   2.024   8.362  0.8258 -1.1387  0.2070
  179SOPE  H15S20430   0.187   1.867   8.433 -3.9449 -0.5702 -2.6919
  179SOPE  C21620431   0.213   2.019   8.589 -0.3666 -0.5012  0.1866
  179SOPE  H16R20432   0.195   1.936   8.661 -0.5702 -0.1475  0.5509
  179SOPE  H16S20433   0.155   2.110   8.619 -0.7928  0.4102 -2.9962
  179SOPE  C21720434   0.362   2.065   8.589  1.4443 -0.2838  0.1684
  179SOPE  H17R20435   0.359   2.159   8.529 -2.6790 -1.2551 -1.4950
  179SOPE  H17S20436   0.412   1.994   8.520  0.4561  1.4660 -2.5138
  179SOPE  C21820437   0.432   2.078   8.718 -0.0249  0.1148 -0.0972
  179SOPE  H18R20438   0.374   2.066   8.812  1.3140 -0.0741  0.7407
  179SOPE  H18S20439   0.459   2.186   8.721  0.8504 -0.0412 -1.5251
  179SOPE  H18T20440   0.527   2.020   8.715  0.8669  1.5405 -0.2924
  179SOPE   C3320441   0.186   2.288   7.318  0.3685 -0.5114  0.1751
  179SOPE   H3X20442   0.146   2.186   7.329 -0.2094 -0.2394  0.6445
  179SOPE   H3Y20443   0.109   2.360   7.354  1.2062  0.2123  0.5924
  179SOPE   C3420444   0.307   2.299   7.417 -0.0960 -0.0581  0.4957
  179SOPE   H4X20445   0.336   2.406   7.426  1.8292 -0.6062  1.4885
  179SOPE   H4Y20446   0.397   2.246   7.380  0.3652  0.5823  0.6655
  179SOPE   C3520447   0.292   2.259   7.567  0.5986  0.3326 -0.3323
  179SOPE   H5X20448   0.394   2.263   7.611  0.4857 -1.9562  0.2312
  179SOPE   H5Y20449   0.263   2.152   7.572  1.6828  0.0770  1.1330
  179SOPE   C3620450   0.178   2.343   7.631  0.2108 -0.0852  0.3348
  179SOPE   H6X20451   0.085   2.342   7.570  1.7143 -0.4640 -2.1143
  179SOPE   H6Y20452   0.213   2.448   7.627 -0.2716  0.0853 -2.9634
  179SOPE   C3720453   0.155   2.311   7.778  0.1675  0.6716 -0.1474
  179SOPE   H7X20454   0.140   2.201   7.779  1.2911  0.4828 -0.9428
  179SOPE   H7Y20455   0.063   2.347   7.827 -0.1899 -2.1484  1.4821
  179SOPE   C3820456   0.275   2.353   7.875 -0.3720 -0.1306  0.9696
  179SOPE   H8X20457   0.283   2.464   7.862  2.5150 -0.4133 -0.5339
  179SOPE   H8Y20458   0.371   2.316   7.834 -0.5212  0.4805  0.0033
  179SOPE   C3920459   0.266   2.336   8.027  0.1150  0.5298 -0.0075
  179SOPE   H9X20460   0.358   2.361   8.083  0.6719  0.2559 -0.7788
  179SOPE   H9Y20461   0.241   2.229   8.043 -0.2590  0.7909  1.3052
  179SOPE  C31020462   0.162   2.424   8.101  0.1920 -0.5115  0.3709
  179SOPE  H10X20463   0.059   2.432   8.061  0.8556 -0.3404 -1.4159
  179SOPE  H10Y20464   0.198   2.527   8.122 -2.1846  0.8737 -1.6827
  179SOPE  C31120465   0.144   2.386   8.251 -1.1231  0.5777 -0.1153
  179SOPE  H11X20466   0.234   2.406   8.312  0.1189  0.1047 -1.7346
  179SOPE  H11Y20467   0.118   2.278   8.258  2.2888 -0.3517  0.0403
  179SOPE  C31220468   0.039   2.472   8.322 -0.1163  0.5502 -0.9318
  179SOPE  H12X20469  -0.061   2.441   8.284 -1.1214  1.0182  1.1958
  179SOPE  H12Y20470   0.054   2.575   8.283  2.5545 -0.7697 -3.8708
  179SOPE  C31320471   0.047   2.472   8.475 -0.5080 -0.4819 -0.3504
  179SOPE  H13X20472   0.128   2.544   8.500 -1.0206  1.1320 -3.0176
  179SOPE  H13Y20473   0.076   2.375   8.521 -0.6092 -0.0746  0.5973
  179SOPE  C31420474  -0.077   2.526   8.534 -0.5219  0.1320 -0.0892
  179SOPE  H14X20475  -0.159   2.451   8.537 -0.5761  0.2080  0.4449
  179SOPE  H14Y20476  -0.107   2.620   8.483 -0.1295  1.3027  1.7189
  179SOPE  C31520477  -0.066   2.577   8.681  0.0515  0.3681  0.0455
  179SOPE  H15X20478   0.007   2.657   8.702 -2.9453  2.8965  1.6599
  179SOPE  H15Y20479  -0.049   2.489   8.747 -0.1294  0.8157  0.6979
  179SOPE  C31620480  -0.204   2.623   8.729 -0.3699 -0.5354 -0.3866
  179SOPE  H16X20481  -0.273   2.540   8.754 -0.2310 -0.8418 -1.0042
  179SOPE  H16Y20482  -0.253   2.688   8.654 -0.3525 -0.6871 -0.5317
  179SOPE  C31720483  -0.207   2.711   8.857 -0.0719  0.4541  0.0582
  179SOPE  H17X20484  -0.144   2.802   8.843  1.2380 -0.2604  1.0773
  179SOPE  H17Y20485  -0.166   2.655   8.943 -1.5638  0.9330  1.1353
  179SOPE  C31820486  -0.346   2.744   8.910  0.3508  0.3278 -0.2776
  179SOPE  H18X20487  -0.353   2.801   9.005 -2.1333  0.1904 -0.3295
  179SOPE  H18Y20488  -0.412   2.656   8.926 -1.4699  1.7969  0.6418
  179SOPE  H18Z20489  -0.384   2.801   8.822  1.8069 -1.5218 -2.2187
  180SOPE     N20490   5.908   1.867   6.061 -0.4931 -0.1984 -0.5703
  180SOPE   HN120491   5.874   1.773   6.090  0.7606 -0.1954  1.0127
  180SOPE   HN220492   5.894   1.935   6.137  0.5817 -0.3568 -0.2205
  180SOPE   HN320493   5.872   1.907   5.971 -0.6194  1.0115  0.0026
  180SOPE   C1220494   6.059   1.861   6.046  0.7739  0.4596 -0.4342
  180SOPE  H12A20495   6.079   1.786   5.966 -0.4272 -0.2727 -0.0706
  180SOPE  H12B20496   6.098   1.817   6.140 -0.9421  1.1951  0.6544
  180SOPE   C1120497   6.119   2.004   6.029  0.2769  0.9082 -0.4492
  180SOPE  H11A20498   6.098   2.040   5.926 -0.4263  3.5888  0.5609
  180SOPE  H11B20499   6.229   1.988   6.039  0.6809  1.8313 -2.7587
  180SOPE     P20500   6.129   2.125   6.259 -0.1452 -0.3047  0.3264
  180SOPE   O1320501   6.174   2.264   6.264  0.6238  0.2456  0.1101
  180SOPE   O1420502   6.238   2.021   6.272 -0.0426 -0.2417  0.2368
  180SOPE   O1220503   6.060   2.101   6.117  0.3332  0.6453 -0.1894
  180SOPE   O1120504   6.009   2.094   6.354 -0.2195  0.4155 -0.3462
  180SOPE    C120505   5.947   2.196   6.436  0.7927  0.7216 -0.6000
  180SOPE    HA20506   5.838   2.189   6.421  0.3462 -5.4328  2.1931
  180SOPE    HB20507   5.983   2.300   6.423  1.0175  0.8073  0.5449
  180SOPE    C220508   5.969   2.177   6.585  0.0153 -0.1954  0.6287
  180SOPE    HS20509   6.071   2.213   6.612 -0.1014  0.7638 -0.1821
  180SOPE   O2120510   5.929   2.042   6.622  0.2519 -0.4351  0.4949
  180SOPE   C2120511   6.006   1.980   6.714  0.4266  0.3986  0.0200
  180SOPE   O2220512   6.107   2.021   6.762 -1.3179 -0.7354 -0.2673
  180SOPE   C2220513   5.937   1.845   6.747  0.6425 -0.7707 -0.5514
  180SOPE   H2R20514   5.924   1.788   6.652  0.8976  1.9866 -2.3700
  180SOPE   H2S20515   5.830   1.869   6.760  0.5392  0.3776 -2.9745
  180SOPE    C320516   5.888   2.283   6.664 -0.2484 -0.4560  0.3906
  180SOPE    HX20517   5.796   2.322   6.615 -0.1557  0.8117  1.1832
  180SOPE    HY20518   5.952   2.374   6.658  0.0990 -0.6308  1.3718
  180SOPE   O3120519   5.873   2.251   6.807 -0.7995  0.4521  0.2145
  180SOPE   C3120520   5.754   2.206   6.844 -0.2132  0.1824 -0.3714
  180SOPE   O3220521   5.653   2.203   6.774 -0.3832 -0.7940 -0.1457
  180SOPE   C3220522   5.767   2.155   6.987  0.0213  0.1586 -0.3674
  180SOPE   H2X20523   5.850   2.209   7.037 -1.8228  1.3530  1.6000
  180SOPE   H2Y20524   5.787   2.047   6.971  0.2121  0.1557 -0.1078
  180SOPE   C2320525   6.008   1.765   6.864 -0.5362 -0.4693 -0.0034
  180SOPE   H3R20526   6.097   1.823   6.897 -1.4290  1.8095 -1.3346
  180SOPE   H3S20527   6.036   1.669   6.816  0.1271  1.1542 -3.1717
  180SOPE   C2420528   5.907   1.753   6.979 -0.1030  0.7200  0.0071
  180SOPE   H4R20529   5.891   1.858   7.011  1.5525  1.2445 -0.7837
  180SOPE   H4S20530   5.814   1.702   6.946  0.4099 -0.3676  0.1972
  180SOPE   C2520531   5.968   1.680   7.092  0.4074  0.2302 -0.1419
  180SOPE   H5R20532   5.995   1.576   7.065  0.4411  0.5104 -1.2655
  180SOPE   H5S20533   6.068   1.722   7.115  0.9565 -0.6980 -0.7600
  180SOPE   C2620534   5.884   1.686   7.220 -0.0517 -0.2193 -0.4902
  180SOPE   H6R20535   5.873   1.794   7.243  2.0032  0.0976 -0.8026
  180SOPE   H6S20536   5.782   1.645   7.202  0.0273 -0.6245 -0.0411
  180SOPE   C2720537   5.950   1.616   7.344  0.1676 -0.2458  0.2560
  180SOPE   H7R20538   5.950   1.508   7.317  0.4194  0.0503 -0.9630
  180SOPE   H7S20539   6.056   1.650   7.337 -0.3330  1.3237 -0.0948
  180SOPE   C2820540   5.898   1.638   7.490 -0.0246 -0.0291 -0.4604
  180SOPE   H8R20541   5.898   1.748   7.503  2.9942  0.1121 -0.8943
  180SOPE   H8S20542   5.791   1.610   7.496 -0.0732  0.0598 -0.8297
  180SOPE   C2920543   5.990   1.572   7.590 -0.2560 -0.7145 -0.0766
  180SOPE   H9120544   6.096   1.576   7.559 -0.3234 -0.6293 -0.2984
  180SOPE  C21020545   5.954   1.523   7.711 -0.3828  0.1820  0.6796
  180SOPE  H10120546   6.023   1.457   7.765 -0.4506  0.4543  1.1002
  180SOPE  C21120547   5.814   1.520   7.760  0.2829 -0.4129 -1.0054
  180SOPE  H11R20548   5.753   1.435   7.723 -0.5694 -0.2485  0.0139
  180SOPE  H11S20549   5.760   1.608   7.719  1.3572  0.6280 -0.2609
  180SOPE  C21220550   5.813   1.527   7.919  0.0165 -0.0427  1.2302
  180SOPE  H12R20551   5.873   1.448   7.967  2.4709  0.2810 -1.0326
  180SOPE  H12S20552   5.711   1.491   7.943 -0.6692 -0.0435 -1.3715
  180SOPE  C21320553   5.817   1.669   7.977 -1.0332 -0.0345  0.3264
  180SOPE  H13R20554   5.733   1.727   7.933  1.0728  3.1306  0.1980
  180SOPE  H13S20555   5.914   1.719   7.960 -0.4523 -0.6688  1.6159
  180SOPE  C21420556   5.809   1.662   8.127 -0.4278  0.3346  0.3970
  180SOPE  H14R20557   5.717   1.602   8.144  0.5521 -1.5213 -0.6222
  180SOPE  H14S20558   5.798   1.767   8.164 -0.1798  0.1465  1.0312
  180SOPE  C21520559   5.927   1.607   8.200  0.3850  0.6141 -0.2536
  180SOPE  H15R20560   6.014   1.659   8.156 -0.1746  0.1070 -2.0681
  180SOPE  H15S20561   5.944   1.497   8.195  1.6622  0.7903 -0.0965
  180SOPE  C21620562   5.914   1.649   8.344  0.3185 -0.7555 -0.3319
  180SOPE  H16R20563   5.867   1.749   8.358  0.4007 -0.9425  1.5023
  180SOPE  H16S20564   6.009   1.650   8.402  0.3006 -0.1702 -0.2988
  180SOPE  C21720565   5.821   1.553   8.422  0.0019 -0.4938 -0.6309
  180SOPE  H17R20566   5.873   1.457   8.401  1.1961 -0.4350  1.7767
  180SOPE  H17S20567   5.714   1.556   8.390 -0.9310  0.4221  2.2604
  180SOPE  C21820568   5.815   1.574   8.573 -0.1645  0.0554  0.2763
  180SOPE  H18R20569   5.918   1.554   8.611 -0.9210 -2.0096  1.4038
  180SOPE  H18S20570   5.746   1.502   8.623 -0.3482 -1.2517 -1.7316
  180SOPE  H18T20571   5.792   1.680   8.595 -0.3484  0.7000 -2.6394
  180SOPE   C3320572   5.631   2.188   7.057 -0.1752  0.2858 -0.0927
  180SOPE   H3X20573   5.551   2.142   6.995  1.6477 -1.0117 -1.5792
  180SOPE   H3Y20574   5.600   2.295   7.052 -0.8957  0.0330 -1.8640
  180SOPE   C3420575   5.631   2.134   7.203  0.4179 -0.8114 -0.4861
  180SOPE   H4X20576   5.548   2.186   7.255 -3.3221 -3.7807 -2.9706
  180SOPE   H4Y20577   5.735   2.134   7.243  0.5549 -2.2674 -0.7934
  180SOPE   C3520578   5.590   1.984   7.206 -0.0527  0.4377  0.4548
  180SOPE   H5X20579   5.655   1.921   7.141  0.7583  0.5309  1.1561
  180SOPE   H5Y20580   5.482   1.977   7.181 -0.0795  0.2266  0.6203
  180SOPE   C3620581   5.608   1.923   7.345  1.5214  0.2468  0.8333
  180SOPE   H6X20582   5.713   1.922   7.379  1.3867 -1.8799  1.3347
  180SOPE   H6Y20583   5.581   1.816   7.334 -1.3058  0.9693 -0.4121
  180SOPE   C3720584   5.521   2.001   7.447  0.1916 -0.1798 -0.5737
  180SOPE   H7X20585   5.417   2.008   7.409  0.3390 -0.7844 -1.1024
  180SOPE   H7Y20586   5.573   2.099   7.445  0.1634 -0.1643 -0.5450
  180SOPE   C3820587   5.530   1.949   7.591  0.0872  0.5086  0.9155
  180SOPE   H8X20588   5.635   1.948   7.626  0.1709  1.8353  0.7333
  180SOPE   H8Y20589   5.504   1.842   7.575  0.8857  0.6252 -1.6759
  180SOPE   C3920590   5.433   2.008   7.693  0.1376  0.1230 -0.5110
  180SOPE   H9X20591   5.329   1.995   7.658  0.1775 -0.3039 -0.4841
  180SOPE   H9Y20592   5.460   2.115   7.681 -1.8924  0.5272 -1.9224
  180SOPE  C31020593   5.448   1.962   7.839 -1.2065 -0.7271  0.5096
  180SOPE  H10X20594   5.376   2.021   7.900 -2.2767 -0.5461 -0.8821
  180SOPE  H10Y20595   5.552   1.989   7.865 -1.5913 -0.4885  1.9078
  180SOPE  C31120596   5.422   1.818   7.875 -0.8985  0.3973  0.5327
  180SOPE  H11X20597   5.504   1.748   7.850 -0.2603  1.3458 -0.1149
  180SOPE  H11Y20598   5.332   1.782   7.821 -0.3553  1.6448 -1.3031
  180SOPE  C31220599   5.401   1.796   8.029 -0.1128  0.4022  0.9576
  180SOPE  H12X20600   5.308   1.850   8.055  0.5599  2.5944 -0.8437
  180SOPE  H12Y20601   5.490   1.842   8.078 -0.2173  1.0490  0.5524
  180SOPE  C31320602   5.409   1.648   8.066  0.2626 -0.0077 -0.0152
  180SOPE  H13X20603   5.400   1.648   8.177  0.2529  0.2184 -0.0155
  180SOPE  H13Y20604   5.508   1.602   8.043 -0.6283 -1.1746 -1.6582
  180SOPE  C31420605   5.293   1.560   8.006 -0.1043 -0.1381  0.3272
  180SOPE  H14X20606   5.314   1.569   7.897  0.0149  1.8496  0.4829
  180SOPE  H14Y20607   5.197   1.610   8.032  0.1042  0.0343  0.7669
  180SOPE  C31520608   5.301   1.416   8.051 -1.0406  0.5068 -0.3039
  180SOPE  H15X20609   5.314   1.406   8.161 -0.2500 -3.2944 -0.5994
  180SOPE  H15Y20610   5.402   1.380   8.024  0.0463  1.0203  2.7232
  180SOPE  C31620611   5.188   1.323   8.003 -0.6595  0.4687  0.2402
  180SOPE  H16X20612   5.184   1.326   7.892  2.1607 -1.9635 -0.0755
  180SOPE  H16Y20613   5.097   1.375   8.037  0.2034  1.2101  1.4750
  180SOPE  C31720614   5.187   1.183   8.061 -0.2466  0.1633  0.2732
  180SOPE  H17X20615   5.278   1.135   8.019 -0.2103  0.0570  0.4701
  180SOPE  H17Y20616   5.097   1.127   8.028  0.6073  0.5240 -2.9878
  180SOPE  C31820617   5.201   1.181   8.211 -0.3045  0.0607  0.0995
  180SOPE  H18X20618   5.189   1.081   8.258 -0.1428 -0.4604 -0.9469
  180SOPE  H18Y20619   5.127   1.247   8.261  0.2201 -0.4537  1.6198
  180SOPE  H18Z20620   5.304   1.213   8.240  0.1528 -0.6213 -0.7480
  181SOPE     N20621   5.526   5.785   5.862  0.3974  0.0831  0.7142
  181SOPE   HN120622   5.456   5.709   5.858  1.3144 -0.7809  0.7870
  181SOPE   HN220623   5.601   5.746   5.801  1.4020  1.5225  0.9650
  181SOPE   HN320624   5.577   5.796   5.953  0.5763  0.0213  0.6222
  181SOPE   C1220625   5.470   5.917   5.816  0.0803  0.1268 -0.4264
  181SOPE  H12A20626   5.379   5.934   5.876  0.1713 -0.3736 -0.1323
  181SOPE  H12B20627   5.442   5.898   5.710  2.2423  1.5373 -1.3200
  181SOPE   C1120628   5.582   6.026   5.836 -0.1126 -0.1887  0.3094
  181SOPE  H11A20629   5.539   6.119   5.793  1.1115  0.3635  0.2327
  181SOPE  H11B20630   5.675   6.015   5.776  3.2353  1.2876  4.7206
  181SOPE     P20631   5.605   6.161   6.060  0.1987 -0.0072 -0.3710
  181SOPE   O1320632   5.622   6.278   5.978 -0.2532  0.2370  1.0297
  181SOPE   O1420633   5.698   6.141   6.168 -0.4146 -0.0047  0.4093
  181SOPE   O1220634   5.623   6.035   5.972 -0.0756 -0.4405  0.2475
  181SOPE   O1120635   5.454   6.139   6.114  0.2123 -0.5134 -0.0470
  181SOPE    C120636   5.417   6.028   6.197  0.0128 -0.1699 -0.4373
  181SOPE    HA20637   5.506   5.965   6.218  0.6135  0.3066 -1.5114
  181SOPE    HB20638   5.352   5.959   6.141 -0.6062  0.9901 -1.1739
  181SOPE    C220639   5.358   6.087   6.330 -1.0170 -0.0581  0.3606
  181SOPE    HS20640   5.334   5.998   6.392 -0.2151 -0.2777  0.3722
  181SOPE   O2120641   5.243   6.168   6.309  0.5285 -0.1037 -0.2980
  181SOPE   C2120642   5.122   6.101   6.320 -0.3371  0.1405 -0.1935
  181SOPE   O2220643   5.119   5.981   6.344  0.2652 -0.3427 -0.0138
  181SOPE   C2220644   5.006   6.200   6.304 -0.4518 -0.0221 -0.3417
  181SOPE   H2R20645   4.925   6.163   6.370 -0.3318  1.7937  0.9018
  181SOPE   H2S20646   4.972   6.176   6.201 -2.0741  1.0535 -0.0969
  181SOPE    C320647   5.464   6.165   6.420  0.0118  0.2783  0.1767
  181SOPE    HX20648   5.496   6.250   6.357  2.6430  1.4946  2.9310
  181SOPE    HY20649   5.555   6.101   6.423  0.2328  0.4841 -1.2025
  181SOPE   O3120650   5.411   6.212   6.547  0.3130 -0.7302  0.0206
  181SOPE   C3120651   5.514   6.264   6.617  0.4990  0.1343 -0.1322
  181SOPE   O3220652   5.626   6.288   6.566  0.1590  0.2614  0.3892
  181SOPE   C3220653   5.475   6.290   6.760  0.0804  0.5805 -1.4300
  181SOPE   H2X20654   5.387   6.226   6.785 -0.8232  1.8358 -1.2727
  181SOPE   H2Y20655   5.441   6.394   6.780  1.7224  1.0493 -0.9883
  181SOPE   C2320656   5.033   6.349   6.314 -0.4945  0.8762 -0.4968
  181SOPE   H3R20657   4.936   6.398   6.288 -1.0668 -0.0860 -0.2253
  181SOPE   H3S20658   5.106   6.377   6.235 -1.1326  0.7290 -1.1600
  181SOPE   C2420659   5.080   6.404   6.447 -0.2355  0.3367 -0.3593
  181SOPE   H4R20660   5.000   6.388   6.522  0.0881  1.0168  0.1577
  181SOPE   H4S20661   5.178   6.356   6.470 -0.1926  0.1861 -0.8638
  181SOPE   C2520662   5.097   6.561   6.462 -0.2475 -0.0492  0.1231
  181SOPE   H5R20663   5.145   6.602   6.371 -1.3489  0.5888 -0.1966
  181SOPE   H5S20664   4.998   6.611   6.469  0.8968  2.2949  0.6549
  181SOPE   C2620665   5.187   6.614   6.580 -0.6303  0.3106 -0.1703
  181SOPE   H6R20666   5.275   6.550   6.558 -1.0965 -0.5217  0.3361
  181SOPE   H6S20667   5.206   6.722   6.559  0.4728  0.2357  0.3803
  181SOPE   C2720668   5.127   6.592   6.719 -0.2575  0.2429 -0.0917
  181SOPE   H7R20669   5.027   6.640   6.729 -0.1929  0.2130  0.7525
  181SOPE   H7S20670   5.103   6.485   6.735 -0.2192  0.4645  1.7291
  181SOPE   C2820671   5.220   6.643   6.833  0.2766  0.3640 -0.3663
  181SOPE   H8R20672   5.316   6.586   6.831  0.8908  1.1191  2.9556
  181SOPE   H8S20673   5.245   6.748   6.807  0.2476  0.0529 -1.7497
  181SOPE   C2920674   5.159   6.639   6.971 -0.0541  0.8028  0.5090
  181SOPE   H9120675   5.071   6.572   6.970  1.4783 -1.3113 -0.9126
  181SOPE  C21020676   5.209   6.668   7.088  0.7909  0.1679 -0.1095
  181SOPE  H10120677   5.141   6.668   7.175  0.6124 -0.6488 -0.2397
  181SOPE  C21120678   5.346   6.721   7.116 -0.2634 -0.3366 -0.7162
  181SOPE  H11R20679   5.389   6.782   7.033 -0.4942 -1.1545 -1.4519
  181SOPE  H11S20680   5.414   6.634   7.130 -0.9383 -1.1439 -2.1576
  181SOPE  C21220681   5.363   6.797   7.242  0.0478 -1.0991 -0.5351
  181SOPE  H12R20682   5.329   6.742   7.333  2.9583 -0.7007  0.9168
  181SOPE  H12S20683   5.306   6.892   7.243  0.5334 -0.7367  2.7215
  181SOPE  C21320684   5.506   6.831   7.273  0.3814 -0.1722 -0.5200
  181SOPE  H13R20685   5.544   6.897   7.193  0.8305  1.0673  0.6829
  181SOPE  H13S20686   5.584   6.753   7.255 -0.9584 -1.4985 -0.8130
  181SOPE  C21420687   5.531   6.898   7.412  0.3907 -0.1202  0.7114
  181SOPE  H14R20688   5.440   6.959   7.431  1.4887  2.0280 -0.6509
  181SOPE  H14S20689   5.612   6.970   7.388 -1.6471  1.4827 -2.0182
  181SOPE  C21520690   5.576   6.789   7.510 -0.8703 -0.0936  0.1765
  181SOPE  H15R20691   5.684   6.764   7.502 -0.7045  0.5069  0.4805
  181SOPE  H15S20692   5.525   6.692   7.490 -1.3112  0.4530 -1.5537
  181SOPE  C21620693   5.535   6.823   7.654  0.1537 -0.4699  0.3252
  181SOPE  H16R20694   5.560   6.928   7.680  1.1883 -0.1963 -1.5402
  181SOPE  H16S20695   5.587   6.759   7.729  1.2665  0.3368  0.2768
  181SOPE  C21720696   5.386   6.791   7.667 -0.2303 -0.1284 -0.6463
  181SOPE  H17R20697   5.364   6.686   7.637 -0.4978  0.1180 -1.3080
  181SOPE  H17S20698   5.335   6.855   7.592 -0.0792  1.2707  0.3973
  181SOPE  C21820699   5.317   6.803   7.800  0.1768  0.2612  0.0477
  181SOPE  H18R20700   5.315   6.904   7.847 -1.3400  0.5102 -0.4958
  181SOPE  H18S20701   5.370   6.725   7.857  2.2056  1.5507  0.0274
  181SOPE  H18T20702   5.209   6.780   7.787  0.0202 -1.6035  3.5715
  181SOPE   C3320703   5.596   6.262   6.858 -0.3256 -0.3703 -0.1140
  181SOPE   H3X20704   5.684   6.325   6.834  1.1500 -1.7447  1.4230
  181SOPE   H3Y20705   5.620   6.154   6.847  0.0643 -0.3560  0.5544
  181SOPE   C3420706   5.561   6.274   7.009  0.2265  0.5332  0.1470
  181SOPE   H4X20707   5.505   6.188   7.051  0.5711 -0.1054 -0.6803
  181SOPE   H4Y20708   5.500   6.366   7.016 -2.6697 -1.1956 -0.5636
  181SOPE   C3520709   5.687   6.294   7.086  0.5403  0.6097 -0.5299
  181SOPE   H5X20710   5.732   6.387   7.046 -0.0469  0.9214 -0.4824
  181SOPE   H5Y20711   5.752   6.204   7.084  1.7237  1.3050  1.9881
  181SOPE   C3620712   5.661   6.323   7.238  0.4755  0.3893  0.4233
  181SOPE   H6X20713   5.584   6.404   7.245 -0.9821 -0.5980 -2.4164
  181SOPE   H6Y20714   5.756   6.361   7.280  1.6784 -3.0239  1.0292
  181SOPE   C3720715   5.625   6.198   7.317 -1.0862 -0.7810  0.2426
  181SOPE   H7X20716   5.668   6.108   7.269  0.4339  0.0940 -0.1179
  181SOPE   H7Y20717   5.517   6.174   7.323 -1.3421  0.0791 -0.6135
  181SOPE   C3820718   5.674   6.217   7.459 -0.3373  0.2359  0.2169
  181SOPE   H8X20719   5.599   6.282   7.509 -0.1430 -0.1978  1.0978
  181SOPE   H8Y20720   5.779   6.254   7.462  0.4359 -1.7424 -0.5251
  181SOPE   C3920721   5.685   6.087   7.545 -0.3763  0.1542  0.2915
  181SOPE   H9X20722   5.755   6.011   7.505  0.0587  1.2240 -1.0552
  181SOPE   H9Y20723   5.588   6.034   7.536  0.9004 -2.0753 -1.2722
  181SOPE  C31020724   5.730   6.120   7.682  0.0369  0.5705  0.5058
  181SOPE  H10X20725   5.693   6.217   7.722 -1.6752 -0.1852  0.8850
  181SOPE  H10Y20726   5.840   6.119   7.693  0.0364 -1.7646  0.7842
  181SOPE  C31120727   5.672   6.022   7.793 -0.3501 -0.2320  0.0383
  181SOPE  H11X20728   5.705   5.918   7.773  0.4203 -0.1804  0.9503
  181SOPE  H11Y20729   5.562   6.017   7.784 -0.4168 -0.9397  1.1495
  181SOPE  C31220730   5.715   6.063   7.935 -0.5183 -0.7583  0.2064
  181SOPE  H12X20731   5.705   6.172   7.953 -0.8015 -0.9485  1.2104
  181SOPE  H12Y20732   5.823   6.038   7.951 -0.1823  1.3856  1.7123
  181SOPE  C31320733   5.622   5.990   8.035 -0.0706  0.2729  0.0275
  181SOPE  H13X20734   5.622   5.880   8.023  1.0799  0.1831  0.6639
  181SOPE  H13Y20735   5.515   6.012   8.014  0.4701  1.2668 -1.9620
  181SOPE  C31420736   5.657   6.005   8.187 -0.3075  0.1037  0.2006
  181SOPE  H14X20737   5.651   6.114   8.205  0.2925 -0.0142  1.1723
  181SOPE  H14Y20738   5.765   5.986   8.201 -0.7641 -3.1398 -0.0281
  181SOPE  C31520739   5.582   5.896   8.269 -0.3048  0.3104  0.5090
  181SOPE  H15X20740   5.622   5.795   8.245 -0.4633  1.0715 -3.5284
  181SOPE  H15Y20741   5.475   5.904   8.240  0.4915  1.6736 -2.3492
  181SOPE  C31620742   5.600   5.903   8.421  0.0316  0.1432 -0.4436
  181SOPE  H16X20743   5.589   6.010   8.449  2.8754  0.3943  0.0269
  181SOPE  H16Y20744   5.702   5.868   8.447 -0.2520  0.3880  1.1036
  181SOPE  C31720745   5.495   5.820   8.495 -0.3891  0.0594  0.6238
  181SOPE  H17X20746   5.505   5.713   8.468  1.2713 -0.0677  1.6039
  181SOPE  H17Y20747   5.397   5.866   8.470 -0.7292 -1.5004 -1.1229
  181SOPE  C31820748   5.515   5.823   8.650  0.5493  0.0161 -0.0477
  181SOPE  H18X20749   5.441   5.892   8.696  1.4175  1.0205 -0.1289
  181SOPE  H18Y20750   5.620   5.849   8.673  0.6263 -0.2487 -0.0916
  181SOPE  H18Z20751   5.498   5.723   8.695  0.2277 -0.3909 -1.0389
  182SOPE     N20752   6.349   1.656   6.553 -0.0450  0.2638 -0.8549
  182SOPE   HN120753   6.437   1.697   6.591 -0.2552  0.3640 -0.4787
  182SOPE   HN220754   6.295   1.606   6.626  0.2674 -1.9813 -2.0527
  182SOPE   HN320755   6.371   1.592   6.474  3.2582  0.6640 -0.4270
  182SOPE   C1220756   6.265   1.768   6.485 -0.3425 -0.6974 -0.0589
  182SOPE  H12A20757   6.331   1.810   6.406  1.5468  0.9584  2.2531
  182SOPE  H12B20758   6.245   1.839   6.567  2.4973 -0.1262  0.2707
  182SOPE   C1120759   6.140   1.715   6.416 -0.0960  0.2817  0.6375
  182SOPE  H11A20760   6.106   1.806   6.362  2.3901  0.4629 -0.8021
  182SOPE  H11B20761   6.063   1.672   6.483 -0.9563 -2.4870 -1.8585
  182SOPE     P20762   6.067   1.520   6.252 -0.4105 -0.2341 -0.0929
  182SOPE   O1320763   6.139   1.424   6.165 -0.5370  0.3603  0.1031
  182SOPE   O1420764   5.962   1.603   6.196  0.5241  0.1735  0.1400
  182SOPE   O1220765   6.173   1.619   6.317 -0.9815  0.2103 -0.3815
  182SOPE   O1120766   5.996   1.446   6.376 -0.1010 -0.1119 -0.3092
  182SOPE    C120767   6.051   1.338   6.449  0.3000  0.2351  0.7744
  182SOPE    HA20768   6.160   1.352   6.462  0.8401  0.4973 -2.9551
  182SOPE    HB20769   6.024   1.241   6.402  0.3316  0.5130  0.1695
  182SOPE    C220770   5.970   1.340   6.580  0.5539 -0.1059  0.3895
  182SOPE    HS20771   5.960   1.449   6.602  2.8679  0.0597  0.8588
  182SOPE   O2120772   6.041   1.281   6.691 -0.1105  0.2325 -0.2287
  182SOPE   C2120773   6.142   1.353   6.750 -0.2805 -0.1967  0.0377
  182SOPE   O2220774   6.187   1.457   6.709 -0.5009  0.1361 -0.8074
  182SOPE   C2220775   6.189   1.273   6.873  0.1448  0.3289  0.3118
  182SOPE   H2R20776   6.254   1.187   6.845 -2.7121 -1.9852  0.3329
  182SOPE   H2S20777   6.090   1.238   6.907  0.4296 -0.0175  0.7923
  182SOPE    C320778   5.823   1.300   6.558 -0.3517 -0.3523  0.5614
  182SOPE    HX20779   5.833   1.199   6.513 -0.0741  0.6759 -1.7965
  182SOPE    HY20780   5.774   1.374   6.491 -1.4166  0.9800  2.6968
  182SOPE   O3120781   5.748   1.296   6.683  0.4875  0.1693  0.0140
  182SOPE   C3120782   5.725   1.413   6.740 -0.5183 -0.2949 -0.1011
  182SOPE   O3220783   5.762   1.521   6.692  0.2493  0.3782 -0.0797
  182SOPE   C3220784   5.666   1.401   6.881 -0.9347  0.1635  0.5008
  182SOPE   H2X20785   5.574   1.341   6.861  0.6556 -1.7563 -1.7790
  182SOPE   H2Y20786   5.650   1.506   6.912  1.1680  0.3525  1.1081
  182SOPE   C2320787   6.252   1.358   6.982  0.5180  0.3506 -0.2649
  182SOPE   H3R20788   6.231   1.467   6.988 -1.8143 -0.1351  3.9908
  182SOPE   H3S20789   6.362   1.349   6.972  0.8254 -0.1364  2.6820
  182SOPE   C2420790   6.212   1.306   7.121 -0.0753 -0.6619  0.2851
  182SOPE   H4R20791   6.105   1.331   7.139  1.0634  3.6612  2.4464
  182SOPE   H4S20792   6.230   1.198   7.137  0.1069 -0.4605  1.6147
  182SOPE   C2520793   6.286   1.374   7.231  0.9329  0.6473 -0.1799
  182SOPE   H5R20794   6.392   1.340   7.230  0.7541  0.0613  0.1233
  182SOPE   H5S20795   6.287   1.482   7.206 -0.3686  0.3185 -1.8163
  182SOPE   C2620796   6.222   1.351   7.374  0.3403  0.1504 -0.4202
  182SOPE   H6R20797   6.245   1.446   7.427  1.3976  0.5098 -1.4949
  182SOPE   H6S20798   6.112   1.358   7.362  0.1104 -1.4279  0.3539
  182SOPE   C2720799   6.260   1.224   7.448  0.1667 -0.4149 -0.2982
  182SOPE   H7R20800   6.233   1.138   7.382  0.3680  0.0848 -1.0342
  182SOPE   H7S20801   6.370   1.226   7.462  0.0072  2.9790  1.6662
  182SOPE   C2820802   6.192   1.215   7.583 -0.4951  0.3110 -0.4280
  182SOPE   H8R20803   6.094   1.265   7.599 -1.7126 -2.9353  4.4669
  182SOPE   H8S20804   6.176   1.110   7.615 -0.1298  1.1211  2.6883
  182SOPE   C2920805   6.272   1.281   7.694 -0.0963  0.2601 -0.4150
  182SOPE   H9120806   6.293   1.388   7.685  3.8489  0.0584  3.1440
  182SOPE  C21020807   6.336   1.222   7.797 -0.5004  0.5740  0.2820
  182SOPE  H10120808   6.395   1.293   7.857  1.0361  1.0255 -1.6597
  182SOPE  C21120809   6.331   1.073   7.823 -1.0011 -0.0569 -0.2349
  182SOPE  H11R20810   6.431   1.032   7.845 -2.1739 -2.0644  1.7685
  182SOPE  H11S20811   6.295   1.020   7.732 -0.5699  1.9336 -1.6464
  182SOPE  C21220812   6.242   1.029   7.941  0.3479 -0.0218 -0.4486
  182SOPE  H12R20813   6.233   0.919   7.924 -1.8565  0.3136 -1.8312
  182SOPE  H12S20814   6.139   1.067   7.925 -0.4474 -2.2495 -1.0120
  182SOPE  C21320815   6.295   1.070   8.079 -0.4331  0.2145 -0.3254
  182SOPE  H13R20816   6.292   1.178   8.103 -0.5220  0.0880  0.2487
  182SOPE  H13S20817   6.401   1.036   8.087 -0.2210  1.1863  1.3085
  182SOPE  C21420818   6.213   1.015   8.208 -0.2483  0.5865  0.4920
  182SOPE  H14R20819   6.266   1.043   8.302  2.0001  0.0305 -0.5306
  182SOPE  H14S20820   6.191   0.907   8.200 -1.4591  0.8962 -1.0048
  182SOPE  C21520821   6.071   1.076   8.218  0.0468  0.0501 -0.3007
  182SOPE  H15R20822   6.022   1.063   8.120 -0.5553 -1.2098  0.1438
  182SOPE  H15S20823   6.099   1.182   8.235  3.8356 -1.0258  1.2400
  182SOPE  C21620824   5.982   1.019   8.331 -0.1219  0.6556  0.6415
  182SOPE  H16R20825   6.044   0.990   8.418  1.3608  1.5701 -0.0693
  182SOPE  H16S20826   5.923   0.931   8.297  2.0127 -1.1034  1.2160
  182SOPE  C21720827   5.887   1.130   8.393 -0.3304  0.3870 -0.2611
  182SOPE  H17R20828   5.852   1.189   8.306 -3.9874 -1.0718  0.0428
  182SOPE  H17S20829   5.944   1.200   8.457  2.6780  0.1448 -2.4605
  182SOPE  C21820830   5.769   1.072   8.467  0.0847 -0.1197  0.6775
  182SOPE  H18R20831   5.679   1.135   8.449  0.0735  0.2085  1.8007
  182SOPE  H18S20832   5.800   1.089   8.573  1.9027  1.0671 -0.0090
  182SOPE  H18T20833   5.752   0.965   8.441 -2.8329  0.2086  0.8302
  182SOPE   C3320834   5.772   1.330   6.971  0.1669  0.5792  0.4039
  182SOPE   H3X20835   5.867   1.386   6.960  0.9149 -0.3471  1.9678
  182SOPE   H3Y20836   5.796   1.230   6.928  0.0233  0.1259  1.3666
  182SOPE   C3420837   5.723   1.336   7.115  0.4937  0.3511  0.1360
  182SOPE   H4X20838   5.620   1.296   7.128  1.0795 -0.3692  3.4247
  182SOPE   H4Y20839   5.705   1.443   7.140 -2.1104 -0.0872  0.4166
  182SOPE   C3520840   5.808   1.264   7.215 -0.0820  0.7825 -0.4506
  182SOPE   H5X20841   5.774   1.297   7.316 -1.4182  1.2686 -1.0398
  182SOPE   H5Y20842   5.914   1.291   7.195  1.3323 -4.9080 -2.4979
  182SOPE   C3620843   5.791   1.104   7.210  0.3385 -0.5708  0.2778
  182SOPE   H6X20844   5.810   1.065   7.108  0.6320 -0.7429  0.3963
  182SOPE   H6Y20845   5.687   1.075   7.238  0.5202 -0.8773  0.6583
  182SOPE   C3720846   5.893   1.016   7.293 -0.0309 -0.0646 -0.7622
  182SOPE   H7X20847   5.990   1.016   7.240  0.2964  1.4223 -0.2029
  182SOPE   H7Y20848   5.841   0.918   7.281  0.4232 -0.2670 -1.1168
  182SOPE   C3820849   5.917   1.061   7.436  0.1604 -0.4359  0.6853
  182SOPE   H8X20850   5.960   1.164   7.440 -0.8542  0.0117  0.2347
  182SOPE   H8Y20851   5.990   0.980   7.457  0.2193 -0.5864 -0.0905
  182SOPE   C3920852   5.803   1.043   7.533 -0.0037 -0.0143 -0.0961
  182SOPE   H9X20853   5.730   0.963   7.510 -2.5050  2.8128 -2.9622
  182SOPE   H9Y20854   5.743   1.136   7.542  1.5236  1.2127 -1.7633
  182SOPE  C31020855   5.860   1.007   7.671  1.0194 -0.0641 -0.1554
  182SOPE  H10X20856   5.956   1.062   7.685  0.7048 -0.1854  3.6763
  182SOPE  H10Y20857   5.891   0.903   7.695  2.0137  0.2396 -0.0787
  182SOPE  C31120858   5.759   1.040   7.782  0.4123 -0.1243 -0.1186
  182SOPE  H11X20859   5.674   0.973   7.759  0.5353 -0.1614 -0.4730
  182SOPE  H11Y20860   5.733   1.147   7.765  0.8228  0.1308  0.7880
  182SOPE  C31220861   5.810   1.024   7.928  0.3548  0.3729  0.8071
  182SOPE  H12X20862   5.893   1.094   7.954  0.3642  0.8677 -0.4669
  182SOPE  H12Y20863   5.836   0.919   7.952 -0.0900  0.7985  3.4267
  182SOPE  C31320864   5.694   1.060   8.024 -0.1256 -0.4214  0.5442
  182SOPE  H13X20865   5.665   1.165   8.004 -0.8423 -0.4229  1.4587
  182SOPE  H13Y20866   5.719   1.055   8.133 -2.2085 -0.8185  1.0469
  182SOPE  C31420867   5.558   0.990   8.006  0.1994  0.1740  0.5797
  182SOPE  H14X20868   5.515   0.991   7.903 -0.1439  0.6519  0.7245
  182SOPE  H14Y20869   5.478   1.047   8.057 -0.0805  0.2721  0.0500
  182SOPE  C31520870   5.550   0.847   8.056 -0.0780 -0.0699  0.6915
  182SOPE  H15X20871   5.617   0.782   7.996 -1.2791  0.8510 -1.7705
  182SOPE  H15Y20872   5.446   0.821   8.029 -1.7132  4.0734  2.1955
  182SOPE  C31620873   5.580   0.817   8.204  0.0374 -0.0538  0.6276
  182SOPE  H16X20874   5.499   0.860   8.267 -0.7888  0.8013 -0.9538
  182SOPE  H16Y20875   5.669   0.877   8.234 -0.3732  1.3138 -0.7673
  182SOPE  C31720876   5.607   0.673   8.239 -0.5254 -0.1404  0.0596
  182SOPE  H17X20877   5.683   0.622   8.176  1.5380  0.1854  2.1561
  182SOPE  H17Y20878   5.520   0.616   8.202 -0.7627  1.0157 -1.2684
  182SOPE  C31820879   5.643   0.648   8.380  0.9994 -0.1134  0.0938
  182SOPE  H18X20880   5.559   0.637   8.451  1.5631 -0.3653  0.7371
  182SOPE  H18Y20881   5.709   0.729   8.416 -0.5525  1.2331  0.0121
  182SOPE  H18Z20882   5.690   0.548   8.397  1.0019  0.1672  1.9406
  183SOPE     N20883   1.086   5.671   6.273 -0.1626  0.3533  0.0974
  183SOPE   HN120884   0.990   5.633   6.258  0.2318 -1.2886  1.4104
  183SOPE   HN220885   1.112   5.731   6.192 -5.1095  0.2936 -1.8695
  183SOPE   HN320886   1.156   5.595   6.282  1.3111  1.8087  1.5098
  183SOPE   C1220887   1.099   5.746   6.400 -0.3487 -0.3591  0.0336
  183SOPE  H12A20888   1.058   5.696   6.490  1.8027  2.7291  3.0000
  183SOPE  H12B20889   1.044   5.841   6.381 -0.1180 -0.1317  0.4945
  183SOPE   C1120890   1.254   5.784   6.428  0.8279  0.3433 -0.3431
  183SOPE  H11A20891   1.307   5.687   6.431 -0.1113 -0.1627  0.8117
  183SOPE  H11B20892   1.253   5.823   6.532 -2.7567  0.6601 -0.3564
  183SOPE     P20893   1.452   5.908   6.309  0.3131  0.1775  0.0091
  183SOPE   O1320894   1.459   6.042   6.242  0.2119 -0.2411 -0.6017
  183SOPE   O1420895   1.503   5.785   6.243  0.4033 -0.1793 -0.4091
  183SOPE   O1220896   1.304   5.884   6.341  0.8846 -0.0974  0.6580
  183SOPE   O1120897   1.498   5.924   6.457 -0.5888  0.1334  0.5564
  183SOPE    C120898   1.465   6.030   6.547  0.1883 -0.1969 -0.2264
  183SOPE    HA20899   1.355   6.050   6.550  0.4786  1.4496  0.1765
  183SOPE    HB20900   1.498   6.127   6.504 -0.9030  1.1714  1.8511
  183SOPE    C220901   1.522   6.000   6.689 -0.1604 -0.7823 -0.5506
  183SOPE    HS20902   1.485   6.077   6.759 -0.5073 -0.5943 -0.9400
  183SOPE   O2120903   1.665   5.994   6.682 -0.1255 -0.5404 -0.0273
  183SOPE   C2120904   1.724   6.102   6.719  0.4868 -0.5203 -0.3375
  183SOPE   O2220905   1.669   6.211   6.739 -0.1359 -0.4049 -0.5977
  183SOPE   C2220906   1.868   6.079   6.693 -0.5728 -0.2264  0.2175
  183SOPE   H2R20907   1.900   6.127   6.598 -1.4229  1.5959  0.8065
  183SOPE   H2S20908   1.894   5.971   6.692 -2.4373 -0.7077 -1.2204
  183SOPE    C320909   1.469   5.861   6.745 -0.2067 -0.5749  0.4657
  183SOPE    HX20910   1.516   5.785   6.678 -0.4964  0.1592 -0.5924
  183SOPE    HY20911   1.359   5.858   6.732 -0.1731 -1.2659  0.2853
  183SOPE   O3120912   1.497   5.853   6.882 -0.2197  0.4972 -0.4056
  183SOPE   C3120913   1.592   5.766   6.914 -1.1320 -0.3732  0.0165
  183SOPE   O3220914   1.664   5.708   6.834  0.4688 -0.3019  0.4580
  183SOPE   C3220915   1.601   5.748   7.061 -0.0989 -0.0793  0.0867
  183SOPE   H2X20916   1.674   5.668   7.086  0.0266  0.1287  0.3986
  183SOPE   H2Y20917   1.499   5.712   7.084 -0.5856  0.3403 -1.3510
  183SOPE   C2320918   1.944   6.150   6.801  0.2302 -0.2438  0.1120
  183SOPE   H3R20919   1.927   6.259   6.798  1.5980 -0.0060  0.5276
  183SOPE   H3S20920   2.051   6.131   6.776  0.3175 -0.9010  0.9408
  183SOPE   C2420921   1.929   6.084   6.942  0.1719  0.3110 -0.7316
  183SOPE   H4R20922   1.824   6.082   6.976 -0.5709 -0.0357 -2.8931
  183SOPE   H4S20923   1.968   5.979   6.941  0.5757  0.4566 -0.5258
  183SOPE   C2520924   2.013   6.145   7.052 -1.2018 -0.5401  0.0900
  183SOPE   H5R20925   2.119   6.122   7.030 -0.6493 -0.2496  2.2359
  183SOPE   H5S20926   2.013   6.256   7.064  1.7411 -0.3979 -0.4915
  183SOPE   C2620927   2.004   6.091   7.196  0.1331 -0.0099  0.5446
  183SOPE   H6R20928   1.903   6.067   7.235  0.3956  0.3174  1.4610
  183SOPE   H6S20929   2.040   5.986   7.194  0.3542  0.0695 -1.1963
  183SOPE   C2720930   2.085   6.171   7.302  0.1833 -0.0036  0.5638
  183SOPE   H7R20931   2.190   6.203   7.288  0.8137 -1.8988  0.7132
  183SOPE   H7S20932   2.023   6.263   7.318 -0.2268 -0.2050  0.1410
  183SOPE   C2820933   2.058   6.092   7.439 -0.1819  0.3734 -0.6617
  183SOPE   H8R20934   1.950   6.078   7.460 -0.4742 -0.5957 -2.5899
  183SOPE   H8S20935   2.095   5.990   7.415  1.1779 -0.1935  3.2152
  183SOPE   C2920936   2.141   6.134   7.564  0.5678 -0.1143 -0.4985
  183SOPE   H9120937   2.234   6.078   7.581  0.2251 -0.2070  1.2763
  183SOPE  C21020938   2.102   6.225   7.660 -1.4767 -0.4343  0.2995
  183SOPE  H10120939   2.175   6.248   7.738  0.8040  1.0499 -2.1065
  183SOPE  C21120940   1.981   6.307   7.670 -0.1617 -0.3558 -0.3172
  183SOPE  H11R20941   1.913   6.280   7.586 -2.7149 -1.1794  1.8388
  183SOPE  H11S20942   2.014   6.413   7.659  0.3698 -0.2846  1.5322
  183SOPE  C21220943   1.895   6.302   7.803  0.0134  1.0766  0.1863
  183SOPE  H12R20944   1.853   6.199   7.805 -0.1482  1.0718 -1.6557
  183SOPE  H12S20945   1.806   6.367   7.789 -1.1522 -0.4482  0.2935
  183SOPE  C21320946   1.967   6.318   7.936  0.0281 -0.5303 -0.3990
  183SOPE  H13R20947   2.040   6.402   7.946 -0.2305 -0.4906  1.6374
  183SOPE  H13S20948   2.039   6.235   7.947  0.7833  0.1479 -0.0747
  183SOPE  C21420949   1.877   6.319   8.057  0.1160 -0.3755 -0.3385
  183SOPE  H14R20950   1.795   6.390   8.032  1.1744  1.1952  0.4904
  183SOPE  H14S20951   1.927   6.366   8.145 -3.7877  0.2337  1.8021
  183SOPE  C21520952   1.823   6.182   8.092  0.4164 -0.8241  0.6270
  183SOPE  H15R20953   1.908   6.116   8.118 -0.4902 -2.8433 -1.1691
  183SOPE  H15S20954   1.767   6.137   8.007 -1.2011 -0.1532  1.2872
  183SOPE  C21620955   1.720   6.177   8.209  0.0267 -0.4995  0.6151
  183SOPE  H16R20956   1.752   6.238   8.296  0.7213 -1.5452  1.1172
  183SOPE  H16S20957   1.715   6.069   8.232 -0.7334 -0.7105 -0.4668
  183SOPE  C21720958   1.582   6.232   8.163 -0.1032 -0.7472  0.5439
  183SOPE  H17R20959   1.543   6.200   8.064 -0.7508 -0.1965  0.6151
  183SOPE  H17S20960   1.587   6.342   8.145 -0.1538 -0.7876  0.2852
  183SOPE  C21820961   1.469   6.213   8.274 -0.1705  0.1970  0.5648
  183SOPE  H18R20962   1.465   6.106   8.304  0.3875  0.3565  1.2640
  183SOPE  H18S20963   1.372   6.252   8.237 -1.1444 -1.8501  0.8744
  183SOPE  H18T20964   1.499   6.277   8.361  1.6909  1.9653 -1.2545
  183SOPE   C3320965   1.623   5.875   7.147 -0.8629  0.4241  0.4059
  183SOPE   H3X20966   1.535   5.940   7.133 -1.3523 -0.2741  0.2354
  183SOPE   H3Y20967   1.710   5.935   7.113  0.2257 -0.7794  0.9655
  183SOPE   C3420968   1.643   5.835   7.293  0.0593 -0.1639  0.1298
  183SOPE   H4X20969   1.735   5.774   7.285 -0.0710 -0.2076 -1.5510
  183SOPE   H4Y20970   1.558   5.776   7.334 -0.6143  1.2993  0.9319
  183SOPE   C3520971   1.656   5.951   7.388 -0.0441 -0.1347  0.4039
  183SOPE   H5X20972   1.563   6.011   7.389  0.7697  1.1652  1.3074
  183SOPE   H5Y20973   1.735   6.019   7.350 -1.2759  2.8607  2.8099
  183SOPE   C3620974   1.688   5.902   7.531 -0.6451 -0.3258  0.2506
  183SOPE   H6X20975   1.794   5.872   7.515 -0.6512 -1.7087  2.3399
  183SOPE   H6Y20976   1.629   5.810   7.555 -0.9578 -0.0762  0.4408
  183SOPE   C3720977   1.680   6.007   7.640 -0.3316 -0.0415  0.2766
  183SOPE   H7X20978   1.580   6.056   7.634 -0.5010 -0.4634 -0.5108
  183SOPE   H7Y20979   1.748   6.094   7.628 -0.1724  0.0799  1.8680
  183SOPE   C3820980   1.708   5.949   7.779  0.0802  0.6486  0.4637
  183SOPE   H8X20981   1.626   5.877   7.796  0.4293  0.5444  1.8403
  183SOPE   H8Y20982   1.698   6.036   7.848  1.4365  0.7811  0.5221
  183SOPE   C3920983   1.845   5.878   7.796  0.5036 -0.6807  0.1925
  183SOPE   H9X20984   1.935   5.929   7.757  1.2050  0.3789  2.9439
  183SOPE   H9Y20985   1.843   5.776   7.751  2.3707 -2.6402  4.0461
  183SOPE  C31020986   1.880   5.845   7.951  0.0354 -0.0532  0.8442
  183SOPE  H10X20987   1.856   5.930   8.018 -0.0340  2.3679 -2.0347
  183SOPE  H10Y20988   1.991   5.835   7.955  0.0073 -0.4625  0.5699
  183SOPE  C31120989   1.812   5.732   8.016  1.1069  0.8080 -0.4776
  183SOPE  H11X20990   1.816   5.632   7.967 -1.0966  0.4495 -0.0540
  183SOPE  H11Y20991   1.706   5.766   8.009  1.1787  0.6932 -3.3996
  183SOPE  C31220992   1.864   5.694   8.159 -0.4466  0.4059  0.4516
  183SOPE  H12X20993   1.965   5.651   8.143 -0.2111  0.9900  0.3590
  183SOPE  H12Y20994   1.803   5.607   8.191 -2.0891  1.5689  0.6001
  183SOPE  C31320995   1.844   5.799   8.263  0.3353 -0.4844 -0.0194
  183SOPE  H13X20996   1.741   5.839   8.252  0.3095 -0.0533  1.5663
  183SOPE  H13Y20997   1.903   5.890   8.243 -0.8034 -0.0142 -1.3876
  183SOPE  C31420998   1.859   5.752   8.412 -1.2882 -0.3302  0.2299
  183SOPE  H14X20999   1.967   5.746   8.440 -0.9750  0.3044 -0.7823
  183SOPE  H14Y21000   1.815   5.651   8.419  0.4575 -1.0572  1.7068
  183SOPE  C31521001   1.799   5.845   8.517  0.9062 -0.5750 -0.2855
  183SOPE  H15X21002   1.837   5.947   8.496 -0.6352  0.2050  0.4995
  183SOPE  H15Y21003   1.840   5.829   8.619  2.8038 -0.2464 -0.9710
  183SOPE  C31621004   1.646   5.857   8.513  0.5861 -0.1208 -0.1686
  183SOPE  H16X21005   1.586   5.778   8.562  1.7436 -0.6749  0.4082
  183SOPE  H16Y21006   1.617   5.873   8.407  0.2022  0.6157  0.0409
  183SOPE  C31721007   1.596   5.986   8.588 -1.0499  0.0662 -0.1584
  183SOPE  H17X21008   1.636   6.073   8.531  1.1312 -0.5082  0.4139
  183SOPE  H17Y21009   1.639   5.997   8.690 -3.0347 -1.2126  0.8918
  183SOPE  C31821010   1.451   6.010   8.605  0.6267 -0.6638 -0.1958
  183SOPE  H18X21011   1.402   5.960   8.519 -0.0610 -0.7359  0.2307
  183SOPE  H18Y21012   1.417   6.115   8.600 -0.9007 -1.0023  1.8413
  183SOPE  H18Z21013   1.417   5.974   8.705 -0.2301 -1.6970 -0.8521
  184SOPE     N21014   1.322   6.268   6.188  0.0309  0.0086 -0.1884
  184SOPE   HN121015   1.382   6.185   6.206  1.6862  1.2437  0.2472
  184SOPE   HN221016   1.242   6.239   6.128 -2.4116  0.8668  2.4248
  184SOPE   HN321017   1.388   6.343   6.160  0.2221  0.1096  0.4965
  184SOPE   C1221018   1.252   6.291   6.318 -0.0718 -0.2385  0.3994
  184SOPE  H12A21019   1.233   6.401   6.322  0.4714 -0.1796  3.0225
  184SOPE  H12B21020   1.324   6.263   6.398  1.0607  0.4121 -0.3526
  184SOPE   C1121021   1.127   6.207   6.332 -0.6133  0.6439 -0.5311
  184SOPE  H11A21022   1.080   6.223   6.431 -0.3385 -0.0907 -0.2756
  184SOPE  H11B21023   1.158   6.100   6.337  0.5775  1.0217  0.5271
  184SOPE     P21024   0.965   6.144   6.141 -0.3048  0.0688 -0.0320
  184SOPE   O1321025   1.056   6.086   6.039 -0.1850  0.6051 -0.0335
  184SOPE   O1421026   0.845   6.220   6.097  0.2671 -0.4162 -0.2224
  184SOPE   O1221027   1.044   6.246   6.226  0.3296  0.1430  0.5758
  184SOPE   O1121028   0.928   6.032   6.245  0.5151 -0.2842 -0.9783
  184SOPE    C121029   0.796   6.015   6.292  0.0486  0.0535  0.5148
  184SOPE    HA21030   0.778   5.906   6.307  0.7564 -0.3110 -1.0618
  184SOPE    HB21031   0.725   6.042   6.211  0.4312  0.6996  0.3898
  184SOPE    C221032   0.765   6.077   6.423  1.3583  0.6522 -0.0337
  184SOPE    HS21033   0.798   6.183   6.415 -0.9743  1.3686 -0.6704
  184SOPE   O2121034   0.830   5.999   6.524  0.1994  0.3167 -0.0775
  184SOPE   C2121035   0.904   6.060   6.606  0.4757 -0.7769  0.1704
  184SOPE   O2221036   0.912   6.184   6.625 -0.0235  0.4032 -0.1612
  184SOPE   C2221037   1.009   5.963   6.661  0.3733 -0.9226 -0.3419
  184SOPE   H2R21038   1.081   5.951   6.578  1.0637  0.6297 -0.0072
  184SOPE   H2S21039   0.959   5.868   6.692  2.6279 -1.7262  1.1171
  184SOPE    C321040   0.609   6.088   6.446 -0.1236  0.1330 -0.2386
  184SOPE    HX21041   0.574   5.982   6.444 -0.5182  0.2733 -1.0375
  184SOPE    HY21042   0.563   6.130   6.354  2.2951  0.9274 -1.1743
  184SOPE   O3121043   0.575   6.150   6.568  0.1384 -0.1921 -0.0918
  184SOPE   C3121044   0.584   6.279   6.567 -0.0201  0.2893 -0.5140
  184SOPE   O3221045   0.633   6.348   6.481 -0.3756 -0.1738 -0.1153
  184SOPE   C3221046   0.539   6.334   6.701  0.2323 -0.9036 -0.5931
  184SOPE   H2X21047   0.429   6.328   6.712  0.3976 -0.2355  2.0768
  184SOPE   H2Y21048   0.579   6.436   6.718 -1.4967 -0.4358  0.9702
  184SOPE   C2321049   1.087   6.018   6.783 -0.2146  0.8364  0.1458
  184SOPE   H3R21050   1.121   6.119   6.752 -2.3359  0.9784 -2.0572
  184SOPE   H3S21051   1.168   5.947   6.808 -0.1659  0.5225 -0.8254
  184SOPE   C2421052   1.009   6.054   6.908 -0.7095 -0.1903 -0.1526
  184SOPE   H4R21053   0.907   6.087   6.881 -1.1489 -2.1620 -1.1053
  184SOPE   H4S21054   0.983   5.958   6.958 -1.0367  0.2717  0.5834
  184SOPE   C2521055   1.092   6.142   7.002 -0.4279 -0.3590 -0.5792
  184SOPE   H5R21056   1.200   6.134   6.979 -0.3518  1.4662 -1.0464
  184SOPE   H5S21057   1.065   6.250   6.993  1.2387  0.0128 -1.7002
  184SOPE   C2621058   1.080   6.095   7.148 -0.6983  0.8510 -0.0614
  184SOPE   H6R21059   0.978   6.120   7.184 -0.8973 -0.8526  0.6616
  184SOPE   H6S21060   1.084   5.984   7.140  1.3856  0.9873 -2.1022
  184SOPE   C2721061   1.188   6.147   7.241 -0.5745 -0.0524 -1.2175
  184SOPE   H7R21062   1.281   6.092   7.218  1.5464  2.2116  1.2834
  184SOPE   H7S21063   1.200   6.257   7.227  1.8730 -0.2662 -1.2386
  184SOPE   C2821064   1.165   6.119   7.387 -0.4144 -1.9523  0.0599
  184SOPE   H8R21065   1.078   6.174   7.429  2.2949  1.8033  1.3291
  184SOPE   H8S21066   1.155   6.009   7.398  0.1549 -2.1115 -0.9621
  184SOPE   C2921067   1.292   6.168   7.468  0.3512  0.2994 -0.3763
  184SOPE   H9121068   1.381   6.162   7.405  0.7873  0.6470  0.1922
  184SOPE  C21021069   1.296   6.205   7.597 -0.2923 -1.0312  0.2244
  184SOPE  H10121070   1.399   6.224   7.632 -1.0131  2.0551  0.9712
  184SOPE  C21121071   1.170   6.200   7.688 -0.2746 -0.8577  0.0028
  184SOPE  H11R21072   1.076   6.221   7.633  0.2553 -0.9590 -0.9614
  184SOPE  H11S21073   1.179   6.273   7.771 -2.1429 -0.5525 -0.0263
  184SOPE  C21221074   1.150   6.064   7.755 -0.1752 -0.1567  1.1702
  184SOPE  H12R21075   1.163   5.986   7.678  1.4066  0.3487  0.9004
  184SOPE  H12S21076   1.043   6.058   7.784 -0.6271  1.1634 -0.0790
  184SOPE  C21321077   1.246   6.043   7.868 -0.1459 -1.0014 -0.1679
  184SOPE  H13R21078   1.243   6.134   7.932  2.1651 -0.0011 -1.3538
  184SOPE  H13S21079   1.348   6.042   7.824 -0.2993 -1.0679 -0.5246
  184SOPE  C21421080   1.219   5.916   7.946  0.1343 -0.4085 -0.0755
  184SOPE  H14R21081   1.241   5.830   7.880 -1.3674 -1.2584  0.4719
  184SOPE  H14S21082   1.112   5.921   7.973  0.3133 -2.1647  1.1989
  184SOPE  C21521083   1.315   5.903   8.066  0.0700  0.0223  1.0452
  184SOPE  H15R21084   1.274   5.967   8.147  0.0417  1.6125 -0.1698
  184SOPE  H15S21085   1.416   5.942   8.041  0.4425 -1.9295 -0.8212
  184SOPE  C21621086   1.316   5.751   8.117 -0.2493  0.7896  0.1174
  184SOPE  H16R21087   1.338   5.679   8.035 -3.2351 -1.6787  1.2985
  184SOPE  H16S21088   1.214   5.742   8.159 -0.6204 -3.3367 -1.2526
  184SOPE  C21721089   1.399   5.734   8.253 -0.6173  0.6463  0.2623
  184SOPE  H17R21090   1.373   5.816   8.323 -1.6220  2.9284 -2.5986
  184SOPE  H17S21091   1.505   5.752   8.222 -1.1774  0.4852 -1.9315
  184SOPE  C21821092   1.376   5.602   8.324 -0.7595 -0.0664 -0.0605
  184SOPE  H18R21093   1.428   5.614   8.421 -0.0284 -3.2697  0.0730
  184SOPE  H18S21094   1.404   5.518   8.257  1.3313  0.7247 -0.2411
  184SOPE  H18T21095   1.271   5.579   8.352 -0.6151 -0.3620  0.2472
  184SOPE   C3321096   0.599   6.258   6.824  0.0511 -0.0431  0.0449
  184SOPE   H3X21097   0.692   6.209   6.791 -0.2065  0.0842 -0.8822
  184SOPE   H3Y21098   0.532   6.172   6.845 -0.7733  0.1777 -1.5499
  184SOPE   C3421099   0.626   6.345   6.944 -0.1007  0.0746  0.0921
  184SOPE   H4X21100   0.530   6.387   6.980  0.8516  2.8122 -0.3606
  184SOPE   H4Y21101   0.712   6.411   6.922  1.0917 -0.9334  1.5378
  184SOPE   C3521102   0.680   6.262   7.058  0.0526 -0.2223 -0.9467
  184SOPE   H5X21103   0.772   6.204   7.035  0.6963  0.4553 -0.1461
  184SOPE   H5Y21104   0.603   6.185   7.083 -0.2941 -0.0669 -1.5242
  184SOPE   C3621105   0.704   6.349   7.185  0.2844  0.1326 -0.0249
  184SOPE   H6X21106   0.621   6.422   7.190  0.2932  0.4030 -2.6071
  184SOPE   H6Y21107   0.798   6.409   7.184 -0.1747  1.1114  2.9777
  184SOPE   C3721108   0.718   6.265   7.320  0.4215  0.4685 -0.8827
  184SOPE   H7X21109   0.806   6.201   7.299  1.4842  1.6581 -0.1664
  184SOPE   H7Y21110   0.632   6.197   7.335  1.6694 -1.2997 -1.4006
  184SOPE   C3821111   0.740   6.358   7.445 -0.1534  1.0996 -0.0040
  184SOPE   H8X21112   0.644   6.414   7.455 -0.6711  0.3022 -0.3723
  184SOPE   H8Y21113   0.819   6.433   7.424 -1.6261  2.7563  0.1362
  184SOPE   C3921114   0.754   6.273   7.569 -1.0293  0.3227 -0.5893
  184SOPE   H9X21115   0.838   6.204   7.546 -0.0765  0.3488  2.3116
  184SOPE   H9Y21116   0.666   6.212   7.598  0.4533 -0.4988  2.6265
  184SOPE  C31021117   0.805   6.351   7.697  0.1459  0.5530  0.3178
  184SOPE  H10X21118   0.710   6.404   7.719 -2.2885 -3.6808  1.2558
  184SOPE  H10Y21119   0.895   6.413   7.682 -0.0184  0.7479  0.1349
  184SOPE  C31121120   0.833   6.252   7.814  0.2096  0.7994  0.2311
  184SOPE  H11X21121   0.923   6.193   7.790 -0.5416  0.0474 -0.8145
  184SOPE  H11Y21122   0.757   6.172   7.830  0.9626  0.4206  2.2625
  184SOPE  C31221123   0.863   6.334   7.938  0.6948 -0.0712  0.5418
  184SOPE  H12X21124   0.770   6.369   7.988  0.8643  0.6279  0.3836
  184SOPE  H12Y21125   0.937   6.415   7.919  0.6332 -0.1705 -0.1176
  184SOPE  C31321126   0.919   6.237   8.047  0.5824 -0.3293 -0.1427
  184SOPE  H13X21127   1.006   6.203   7.986 -0.6901  0.0559 -2.2647
  184SOPE  H13Y21128   0.864   6.143   8.069 -1.5691  0.6382 -1.2003
  184SOPE  C31421129   0.983   6.304   8.171  0.3576 -0.3961 -0.4049
  184SOPE  H14X21130   0.902   6.341   8.237 -0.3564 -0.5450 -1.1818
  184SOPE  H14Y21131   1.054   6.388   8.155 -0.3105  0.8671  2.6050
  184SOPE  C31521132   1.047   6.193   8.260  0.0843  0.2510  0.4283
  184SOPE  H15X21133   1.157   6.187   8.246  0.1890  1.8973  0.2800
  184SOPE  H15Y21134   1.010   6.089   8.247  0.4027 -0.0574  1.8477
  184SOPE  C31621135   1.027   6.217   8.411  0.0551  0.1108  0.2345
  184SOPE  H16X21136   0.999   6.120   8.458  1.1298  0.9059  2.6663
  184SOPE  H16Y21137   0.945   6.291   8.413  0.0395  0.3471 -3.1458
  184SOPE  C31721138   1.159   6.273   8.469 -0.1478  1.5311 -0.2348
  184SOPE  H17X21139   1.171   6.378   8.436 -0.2730  2.3039  2.0072
  184SOPE  H17Y21140   1.247   6.215   8.433 -1.1142  0.2718 -0.6565
  184SOPE  C31821141   1.165   6.262   8.623 -0.2866 -1.0542  0.5177
  184SOPE  H18X21142   1.260   6.301   8.663 -0.5324  0.1186  0.0005
  184SOPE  H18Y21143   1.165   6.154   8.649 -1.9305 -0.5353  3.1073
  184SOPE  H18Z21144   1.081   6.312   8.677 -0.6959  0.0809 -1.0974
  185SAPI   C1221145   4.085   3.310  11.238 -0.1531 -0.1078  0.3608
  185SAPI    H221146   4.093   3.389  11.159 -2.0683 -0.6834 -0.4775
  185SAPI    O221147   4.216   3.249  11.252  0.1079 -0.4603  0.0968
  185SAPI   HO221148   4.234   3.202  11.171 -0.0967 -0.6838  0.1779
  185SAPI   C1321149   4.035   3.367  11.365 -0.2505  0.6855  0.6124
  185SAPI    H321150   3.935   3.412  11.349  0.1960  1.0350 -1.5976
  185SAPI    O321151   4.119   3.471  11.412  0.2821 -0.3908 -0.0955
  185SAPI   HO321152   4.084   3.558  11.389  1.5278  0.4432  0.9960
  185SAPI   C1421153   4.021   3.255  11.467  0.5428 -0.4705 -0.2996
  185SAPI    H421154   4.120   3.244  11.515  0.9339  0.0082 -0.9712
  185SAPI    O421155   3.928   3.295  11.569  0.0018 -0.0625  0.0843
  185SAPI   HO421156   3.837   3.301  11.539 -0.3281  0.7636  1.1994
  185SAPI   C1521157   3.988   3.112  11.409  0.4243 -0.7110  0.0041
  185SAPI    H521158   3.878   3.118  11.426  0.8561 -0.2278  3.2060
  185SAPI    O521159   4.030   3.002  11.490  0.0610 -0.0287 -0.1257
  185SAPI   HO521160   4.116   2.971  11.461 -0.3815  0.6643 -2.3914
  185SAPI   C1621161   3.976   3.091  11.256 -0.1957  0.3891  0.9627
  185SAPI    H621162   4.075   3.045  11.236 -1.4236 -2.3571  0.7573
  185SAPI    O621163   3.867   3.008  11.208  0.1126  0.0320 -0.8591
  185SAPI   HO621164   3.843   3.045  11.123 -1.1366 -0.7035 -0.8601
  185SAPI   C1121165   3.974   3.222  11.176 -0.1918  0.2295 -0.4264
  185SAPI    H121166   3.874   3.270  11.188  0.0276  0.4096  0.8824
  185SAPI     P21167   3.920   3.246  10.917 -0.6632 -0.0541 -0.0731
  185SAPI   O1321168   3.949   3.391  10.894  0.2644 -0.3766 -0.4705
  185SAPI   O1421169   3.783   3.209  10.943 -0.4621  0.2505  0.1113
  185SAPI   O1221170   4.017   3.200  11.042  0.0380 -0.6448  0.1990
  185SAPI   O1121171   3.969   3.163  10.795  0.0613 -0.4710 -0.1344
  185SAPI    C121172   3.938   3.026  10.769 -0.1410 -0.1418  0.0345
  185SAPI    HA21173   4.028   2.967  10.795  1.1476  1.4504 -0.6525
  185SAPI    HB21174   3.853   2.986  10.828 -1.2544  1.1480 -0.6485
  185SAPI    C221175   3.898   2.989  10.621  0.0067 -0.0054 -0.4016
  185SAPI    HS21176   3.889   2.878  10.621 -2.9034  0.1459  0.7670
  185SAPI   O2121177   3.997   3.041  10.528  0.2717 -0.3255 -0.2734
  185SAPI   C2121178   4.108   2.977  10.513 -0.6275  0.1297  0.0054
  185SAPI   O2221179   4.144   2.878  10.579 -0.2759  0.0322  0.9627
  185SAPI   C2221180   4.189   3.033  10.396  0.1946  0.1969 -0.1172
  185SAPI   H2R21181   4.137   3.119  10.350 -1.0846  0.1756  1.2152
  185SAPI   H2S21182   4.283   3.071  10.443  0.1890 -0.6107  0.5908
  185SAPI    C321183   3.766   3.049  10.590 -0.1342 -0.3169 -0.6636
  185SAPI    HX21184   3.784   3.159  10.594 -0.1153 -0.2993 -1.1191
  185SAPI    HY21185   3.692   3.013  10.664  0.9509  1.7886  1.5859
  185SAPI   O3121186   3.727   3.007  10.457  0.1744  0.0789 -0.2167
  185SAPI   C3121187   3.611   3.067  10.416 -0.0463  0.3346  0.2320
  185SAPI   O3221188   3.558   3.163  10.472  0.2559  0.2681 -0.1698
  185SAPI   C3221189   3.552   2.995  10.292 -0.6690 -0.3545  0.2676
  185SAPI   H2X21190   3.444   2.981  10.310 -1.1605  0.4631 -1.7685
  185SAPI   H2Y21191   3.603   2.896  10.294 -0.4597 -0.2406  1.3648
  185SAPI   C2321192   4.221   2.926  10.291  1.0093 -0.0037  0.1413
  185SAPI   H3R21193   4.148   2.842  10.284  2.6866 -1.6136  1.1997
  185SAPI   H3S21194   4.316   2.877  10.320  3.3605  3.8306 -0.2561
  185SAPI   C2421195   4.254   2.982  10.154  0.1302 -0.0543  1.1245
  185SAPI   H4R21196   4.315   2.906  10.101 -1.5398 -0.0453 -0.9152
  185SAPI   H4S21197   4.317   3.073  10.158  1.0274 -0.6892  2.1548
  185SAPI   C2521198   4.129   3.007  10.076 -0.4387 -0.7504 -0.2926
  185SAPI   H5R21199   4.037   3.018  10.135  0.2335  1.1762  0.5016
  185SAPI   C2621200   4.120   3.034   9.941  1.2773 -0.0254  0.3211
  185SAPI   H6R21201   4.029   3.081   9.902  0.0489 -2.0047  0.6855
  185SAPI   C2721202   4.241   3.026   9.847  0.1065 -0.0053 -0.9213
  185SAPI   H7R21203   4.335   3.006   9.902  2.0747  5.4577 -1.6607
  185SAPI   H7S21204   4.273   3.121   9.799 -0.0144 -0.3784 -1.7565
  185SAPI   C2821205   4.218   2.931   9.735  0.2534  0.9487 -0.6317
  185SAPI   H8R21206   4.255   2.830   9.760  0.3028  0.4624 -2.4878
  185SAPI   C2921207   4.175   2.936   9.606  0.0750  0.2619 -0.4266
  185SAPI   H9R21208   4.174   2.846   9.543 -2.6231  0.1631 -0.3477
  185SAPI  C21021209   4.101   3.057   9.555 -0.4213  0.0547  0.8659
  185SAPI  H10R21210   4.164   3.133   9.504  0.0131 -1.2976 -0.6748
  185SAPI  H10S21211   4.066   3.118   9.642  2.3934  0.9028  1.5190
  185SAPI  C21121212   4.000   3.009   9.460  0.0963  0.0075 -0.1078
  185SAPI  H11R21213   3.911   2.961   9.504  0.8027 -0.9008  0.3583
  185SAPI  C21221214   4.016   2.997   9.326  0.2395 -0.0383 -0.5723
  185SAPI  H12R21215   3.959   2.928   9.262  0.9380 -1.9356  0.7744
  185SAPI  C21321216   4.139   3.053   9.256 -0.4222 -0.4050  0.2003
  185SAPI  H13R21217   4.189   3.137   9.308  1.6588 -0.7547 -1.1374
  185SAPI  H13S21218   4.104   3.100   9.161 -2.1972 -1.0689  0.4727
  185SAPI  C21421219   4.247   2.957   9.226 -0.1709 -0.2953  0.0583
  185SAPI  H14R21220   4.260   2.882   9.306 -0.2282  0.5138  0.8421
  185SAPI  C21521221   4.338   2.951   9.129  0.3315  0.6648  0.3863
  185SAPI  H15R21222   4.402   2.862   9.125 -0.0790  0.3738  0.1753
  185SAPI  C21621223   4.349   3.029   8.999 -0.4465 -0.0001  0.4499
  185SAPI  H16R21224   4.447   3.080   8.984 -0.3001 -0.8113 -1.8099
  185SAPI  H16S21225   4.270   3.106   8.996  1.3369  1.9123 -1.3226
  185SAPI  C21721226   4.330   2.938   8.877 -0.1652  1.1882 -0.4928
  185SAPI  H17R21227   4.339   3.008   8.791 -0.8673  0.4434 -1.1867
  185SAPI  H17S21228   4.234   2.883   8.878  0.6806 -0.3601 -1.0206
  185SAPI  C21821229   4.433   2.827   8.855 -0.1027  0.2727  0.3913
  185SAPI  H18R21230   4.382   2.763   8.781  1.2580 -2.2445  1.5066
  185SAPI  H18S21231   4.435   2.752   8.937 -0.1743 -0.0428  0.1037
  185SAPI  C21921232   4.569   2.877   8.816 -0.2835 -0.2856 -1.0440
  185SAPI  H19R21233   4.622   2.910   8.908 -0.1563 -0.7503 -0.9514
  185SAPI  H19S21234   4.560   2.962   8.745  1.9172 -0.8142 -2.0386
  185SAPI  C22021235   4.650   2.772   8.744 -0.2240  0.9939 -0.2399
  185SAPI  H20R21236   4.751   2.816   8.727 -0.6406  1.0426 -3.2836
  185SAPI  H20S21237   4.615   2.759   8.639 -0.6385  0.2542 -0.0118
  185SAPI  H20T21238   4.653   2.672   8.792 -0.7805  1.3713  0.5916
  185SAPI   C3321239   3.571   3.075  10.163  0.4302 -0.0738 -0.2873
  185SAPI   H3X21240   3.677   3.068  10.133 -0.0672 -0.7870 -2.0129
  185SAPI   H3Y21241   3.559   3.184  10.181  1.5160 -0.1775  1.1948
  185SAPI   C3421242   3.487   3.034  10.046  0.1941  0.7704  0.0984
  185SAPI   H4X21243   3.379   3.054  10.065  0.3400  1.6170  0.0785
  185SAPI   H4Y21244   3.494   2.925  10.027 -1.3093  0.8172 -0.9130
  185SAPI   C3521245   3.531   3.099   9.917 -0.1820 -0.0440 -0.0384
  185SAPI   H5X21246   3.627   3.052   9.886  0.3277  0.4199  0.8061
  185SAPI   H5Y21247   3.533   3.209   9.932 -2.3549 -0.1508  1.3589
  185SAPI   C3621248   3.430   3.094   9.801 -0.1765 -0.1204 -0.0085
  185SAPI   H6X21249   3.331   3.137   9.829 -0.0216  1.0326 -1.1518
  185SAPI   H6Y21250   3.420   2.984   9.788  0.6963 -0.3157  0.8852
  185SAPI   C3721251   3.481   3.153   9.668  0.3139  0.5019  0.4902
  185SAPI   H7X21252   3.583   3.114   9.649 -0.1496 -0.8303  0.6604
  185SAPI   H7Y21253   3.483   3.264   9.672 -0.7932  0.5086  1.2862
  185SAPI   C3821254   3.400   3.109   9.537 -0.6500 -0.2832 -0.5051
  185SAPI   H8X21255   3.396   2.998   9.544  0.8694 -0.4858 -2.1910
  185SAPI   H8Y21256   3.449   3.122   9.438  1.0222 -2.3792 -0.0211
  185SAPI   C3921257   3.257   3.161   9.515 -0.1122 -0.0569 -0.5162
  185SAPI   H9X21258   3.192   3.127   9.598 -0.3206  3.1154  0.7413
  185SAPI   H9Y21259   3.219   3.118   9.420 -2.2362  1.1227 -0.2569
  185SAPI  C31021260   3.247   3.315   9.499 -0.1499 -0.8222 -0.1039
  185SAPI  H10X21261   3.330   3.342   9.430  0.3752 -2.7342 -0.3039
  185SAPI  H10Y21262   3.274   3.368   9.593  1.5865  1.8309 -1.9713
  185SAPI  C31121263   3.116   3.371   9.444 -0.3566  0.4846 -0.4549
  185SAPI  H11X21264   3.033   3.343   9.512  0.1373 -0.7830 -0.3472
  185SAPI  H11Y21265   3.096   3.328   9.344  0.3756 -1.3743  0.1589
  185SAPI  C31221266   3.124   3.524   9.429  0.3120 -0.3184 -0.6048
  185SAPI  H12X21267   3.202   3.547   9.353 -1.1642  1.2432 -1.7188
  185SAPI  H12Y21268   3.159   3.570   9.523 -0.5634 -0.2258 -0.3218
  185SAPI  C31321269   2.989   3.590   9.394 -0.1562 -0.1442  0.3115
  185SAPI  H13X21270   2.919   3.561   9.475  0.2089  2.0064  1.4583
  185SAPI  H13Y21271   2.947   3.553   9.297 -0.2377  0.2239  0.2061
  185SAPI  C31421272   2.993   3.741   9.396 -0.9389 -0.3440 -0.7431
  185SAPI  H14X21273   3.031   3.769   9.497 -0.4971  3.6270 -1.8571
  185SAPI  H14Y21274   2.892   3.786   9.382 -1.7727 -1.7956  0.2532
  185SAPI  C31521275   3.083   3.782   9.289  0.5296  0.3349  0.2766
  185SAPI  H15X21276   3.043   3.733   9.198  1.4381 -0.2695  0.1881
  185SAPI  H15Y21277   3.184   3.743   9.314  0.6344  0.2646 -0.2537
  185SAPI  C31621278   3.062   3.930   9.258 -0.5416 -0.4160  0.3192
  185SAPI  H16X21279   3.079   3.996   9.346  0.6279 -0.4404  0.1368
  185SAPI  H16Y21280   2.957   3.927   9.224 -0.6121 -0.0940  0.5030
  185SAPI  C31721281   3.145   3.979   9.142 -0.2026 -0.0124 -0.0394
  185SAPI  H17X21282   3.103   4.074   9.103  1.7826  0.4124 -1.2916
  185SAPI  H17Y21283   3.147   3.894   9.071  0.2394  0.4805 -0.6258
  185SAPI  C31821284   3.289   4.006   9.180 -0.1057  0.2278  0.2968
  185SAPI  H18X21285   3.331   3.913   9.226  0.0689 -0.3945 -1.0908
  185SAPI  H18Y21286   3.294   4.092   9.250 -1.9025  1.3841 -0.9385
  185SAPI  H18Z21287   3.343   4.021   9.084 -1.6497 -2.8249 -1.1872
  186SAPI   C1221288   4.181   1.010  10.498  0.2093 -0.5974 -0.7356
  186SAPI    H221289   4.274   1.031  10.442  0.2007  0.3599 -0.4100
  186SAPI    O221290   4.126   1.135  10.548 -0.2958 -0.2820  0.7502
  186SAPI   HO221291   4.201   1.180  10.588 -0.1700  1.7689 -1.5507
  186SAPI   C1321292   4.088   0.950  10.398  0.2328  0.3921  0.6229
  186SAPI    H321293   4.145   0.862  10.361 -0.9419 -1.1603  2.3193
  186SAPI    O321294   4.067   1.036  10.289 -0.3366 -0.0233 -0.0595
  186SAPI   HO321295   4.038   1.119  10.329  1.2312  0.5248  0.0012
  186SAPI   C1421296   3.952   0.909  10.456 -0.5289 -0.2314 -0.3378
  186SAPI    H421297   3.906   1.002  10.495  0.0830  0.2589 -0.7694
  186SAPI    O421298   3.864   0.851  10.359  0.3381  0.1522  0.3485
  186SAPI   HO421299   3.847   0.917  10.292  2.1184 -1.9317 -2.3908
  186SAPI   C1521300   3.958   0.826  10.585  0.0388  0.0656 -0.3557
  186SAPI    H521301   3.961   0.718  10.558 -0.7250 -0.7216  2.4161
  186SAPI    O521302   3.840   0.844  10.663  0.0221  0.3881  0.7816
  186SAPI   HO521303   3.814   0.936  10.658 -0.1886  0.4504  2.4378
  186SAPI   C1621304   4.084   0.845  10.665  0.8325 -0.3293 -0.3282
  186SAPI    H621305   4.051   0.906  10.752 -2.5817 -1.6983 -0.5030
  186SAPI    O621306   4.126   0.725  10.729 -0.2473  0.1752  0.2251
  186SAPI   HO621307   4.146   0.660  10.661 -2.3376 -1.5692  1.1929
  186SAPI   C1121308   4.207   0.922  10.610  0.2615  0.5767 -0.7963
  186SAPI    H121309   4.263   0.837  10.566  0.4721  1.0141 -1.3906
  186SAPI     P21310   4.440   1.010  10.725 -0.1600 -0.0610 -0.1273
  186SAPI   O1321311   4.523   0.891  10.712 -0.6224  0.3155  0.0214
  186SAPI   O1421312   4.464   1.109  10.836 -0.3729  0.0171  0.0384
  186SAPI   O1221313   4.278   0.976  10.724 -0.4832  0.0595  0.1412
  186SAPI   O1121314   4.459   1.090  10.592  0.1931 -0.2451  0.4871
  186SAPI    C121315   4.582   1.111  10.521 -0.4620  0.0747  0.6241
  186SAPI    HA21316   4.609   1.219  10.524 -1.0639  0.4222 -2.6946
  186SAPI    HB21317   4.671   1.064  10.568  0.2434  1.3797  0.6632
  186SAPI    C221318   4.577   1.076  10.369  0.3334  0.2146 -0.3477
  186SAPI    HS21319   4.676   1.092  10.321  1.7562 -2.3355  1.5218
  186SAPI   O2121320   4.465   1.142  10.302  0.0711  0.0477  0.2871
  186SAPI   C2121321   4.478   1.274  10.289 -0.5524 -0.2794 -0.2223
  186SAPI   O2221322   4.574   1.342  10.325  0.6185  0.2901 -0.4240
  186SAPI   C2221323   4.349   1.333  10.218 -0.7768  0.1050 -0.1218
  186SAPI   H2R21324   4.265   1.348  10.288 -1.5130  1.6475 -1.2821
  186SAPI   H2S21325   4.373   1.436  10.186 -0.0588 -0.6186 -2.0620
  186SAPI    C321326   4.561   0.924  10.345  0.3089 -0.0389 -0.2474
  186SAPI    HX21327   4.461   0.904  10.390  0.3943  0.3643  0.1329
  186SAPI    HY21328   4.623   0.870  10.419 -2.7066 -3.9054 -0.2369
  186SAPI   O3121329   4.586   0.877  10.213 -0.2382 -0.0114  0.1870
  186SAPI   C3121330   4.705   0.842  10.181 -0.0534  0.6954  0.3967
  186SAPI   O3221331   4.806   0.840  10.252  0.0010  0.1831  0.1409
  186SAPI   C3221332   4.708   0.801  10.033  0.4714  0.0789 -0.8561
  186SAPI   H2X21333   4.665   0.889   9.979 -0.2786  0.6707  0.6303
  186SAPI   H2Y21334   4.642   0.713  10.019  2.5502 -1.5262 -0.9977
  186SAPI   C2321335   4.288   1.250  10.104  0.5895 -0.0193 -0.0798
  186SAPI   H3R21336   4.194   1.299  10.070  2.3404  2.1289 -2.1352
  186SAPI   H3S21337   4.273   1.150  10.150  1.2129  0.6878  1.7715
  186SAPI   C2421338   4.373   1.213   9.984 -0.2037 -0.0111  0.8586
  186SAPI   H4R21339   4.315   1.152   9.911 -0.3624  0.8509  0.2501
  186SAPI   H4S21340   4.461   1.153  10.015  2.5491  3.3102 -0.0135
  186SAPI   C2521341   4.435   1.328   9.915  0.4867  1.1693  0.2045
  186SAPI   H5R21342   4.495   1.391   9.982  2.1349 -0.3937  0.2686
  186SAPI   C2621343   4.445   1.352   9.783 -0.0849  0.0031  0.6374
  186SAPI   H6R21344   4.479   1.450   9.748 -2.0109 -0.2567 -2.3223
  186SAPI   C2721345   4.375   1.263   9.678 -0.4176 -0.1328  0.1764
  186SAPI   H7R21346   4.363   1.159   9.714 -1.7091 -0.6101 -1.5147
  186SAPI   H7S21347   4.443   1.255   9.590 -1.0445  3.6166 -0.8422
  186SAPI   C2821348   4.234   1.302   9.644 -0.6353  0.6614  0.0703
  186SAPI   H8R21349   4.160   1.296   9.726 -0.1988 -0.4846  0.3945
  186SAPI   C2921350   4.190   1.335   9.518  0.1019  0.2809 -0.3035
  186SAPI   H9R21351   4.083   1.358   9.512  0.2133  2.4059  3.2835
  186SAPI  C21021352   4.280   1.337   9.392  0.0106 -0.0474  0.4209
  186SAPI  H10R21353   4.359   1.260   9.406  1.5952  1.5524  0.7707
  186SAPI  H10S21354   4.334   1.433   9.412  2.1182 -1.3743  1.4688
  186SAPI  C21121355   4.219   1.339   9.257  0.3688  0.4400 -0.4510
  186SAPI  H11R21356   4.117   1.298   9.253  0.8859 -0.9136 -0.1255
  186SAPI  C21221357   4.275   1.384   9.146 -0.0605 -0.4744  0.0294
  186SAPI  H12R21358   4.210   1.375   9.058 -1.3615 -0.6563  0.9627
  186SAPI  C21321359   4.423   1.421   9.132  0.1615 -0.1170 -0.4465
  186SAPI  H13R21360   4.460   1.455   9.231  1.4778 -1.3800 -0.4817
  186SAPI  H13S21361   4.430   1.515   9.073  1.1639 -1.4770 -2.6349
  186SAPI  C21421362   4.521   1.314   9.071  0.0714 -0.3390 -0.4177
  186SAPI  H14R21363   4.606   1.283   9.134  0.0569 -0.9007 -0.6632
  186SAPI  C21521364   4.509   1.268   8.952 -0.2113 -0.0989  0.5789
  186SAPI  H15R21365   4.560   1.174   8.926 -2.5124 -0.6378 -2.4817
  186SAPI  C21621366   4.413   1.314   8.845 -0.5342  0.0108  0.5450
  186SAPI  H16R21367   4.377   1.419   8.849 -1.1425 -0.1856  0.3949
  186SAPI  H16S21368   4.317   1.258   8.852 -0.0507 -0.9483 -0.2137
  186SAPI  C21721369   4.468   1.298   8.705  0.1341  0.3376  0.0918
  186SAPI  H17R21370   4.492   1.192   8.686  1.4245  0.5445  0.5161
  186SAPI  H17S21371   4.557   1.363   8.698  0.0920  0.7313  2.3792
  186SAPI  C21821372   4.388   1.373   8.605  1.0579  0.0130  0.0953
  186SAPI  H18R21373   4.378   1.479   8.635 -3.1350 -0.4549  1.0827
  186SAPI  H18S21374   4.285   1.332   8.599  1.3218 -1.1684  2.3854
  186SAPI  C21921375   4.445   1.362   8.456  0.0329  0.0066 -0.9101
  186SAPI  H19R21376   4.542   1.415   8.453 -0.4850  1.0350 -0.3817
  186SAPI  H19S21377   4.375   1.413   8.386 -1.6492 -1.3626 -0.2982
  186SAPI  C22021378   4.451   1.216   8.394  0.5476  0.4488 -0.3639
  186SAPI  H20R21379   4.365   1.148   8.411  1.4473 -0.1096  2.7871
  186SAPI  H20S21380   4.523   1.155   8.454 -2.9283 -1.6375  2.0376
  186SAPI  H20T21381   4.487   1.211   8.289 -0.1984 -2.0530 -0.5774
  186SAPI   C3321382   4.852   0.764   9.989  0.3929 -0.1947  0.1670
  186SAPI   H3X21383   4.887   0.671  10.037 -1.6200 -0.0153  2.1649
  186SAPI   H3Y21384   4.927   0.840  10.020  0.9943 -1.0468  0.8548
  186SAPI   C3421385   4.864   0.754   9.837 -0.7908 -0.6082  0.3854
  186SAPI   H4X21386   4.851   0.858   9.801  3.0668  0.5856  1.8871
  186SAPI   H4Y21387   4.792   0.684   9.790 -0.8509  1.4619 -2.9425
  186SAPI   C3521388   5.011   0.720   9.793  0.9807  0.9584 -0.9475
  186SAPI   H5X21389   5.037   0.618   9.828  1.1837  1.2254 -0.3124
  186SAPI   H5Y21390   5.080   0.787   9.848  1.2635 -0.8173  1.0014
  186SAPI   C3621391   5.050   0.733   9.647 -0.4954 -0.7563 -0.0817
  186SAPI   H6X21392   5.158   0.714   9.629 -0.6081  1.1098 -3.7592
  186SAPI   H6Y21393   5.034   0.842   9.631  0.8854 -0.1196  2.3676
  186SAPI   C3721394   4.960   0.647   9.560 -0.5930 -0.0351  0.0019
  186SAPI   H7X21395   4.853   0.670   9.579 -0.0054  2.1095  1.0229
  186SAPI   H7Y21396   4.970   0.546   9.606  1.0717  0.9088  1.8798
  186SAPI   C3821397   5.005   0.630   9.414 -0.1895 -0.0650  0.0517
  186SAPI   H8X21398   4.933   0.560   9.367  1.7732 -2.6888  0.7195
  186SAPI   H8Y21399   5.104   0.580   9.408  0.0106  0.2696  0.4820
  186SAPI   C3921400   5.007   0.763   9.323 -0.3866  0.1489 -0.2779
  186SAPI   H9X21401   5.099   0.821   9.345  0.2248 -1.0260  0.3272
  186SAPI   H9Y21402   4.923   0.833   9.339  0.9252  1.8058 -0.3846
  186SAPI  C31021403   4.994   0.721   9.179 -0.1636 -0.0703 -0.3166
  186SAPI  H10X21404   4.900   0.670   9.150 -0.0589 -0.6074  0.2750
  186SAPI  H10Y21405   5.069   0.639   9.171  0.1246  0.3234 -2.3663
  186SAPI  C31121406   5.041   0.819   9.062 -0.1275  0.5029  0.1419
  186SAPI  H11X21407   5.138   0.858   9.098 -0.8256  0.4284  2.2445
  186SAPI  H11Y21408   4.971   0.905   9.048  0.9076  1.1370 -1.3939
  186SAPI  C31221409   5.066   0.750   8.926 -0.1472  0.0540  0.1514
  186SAPI  H12X21410   5.130   0.820   8.869  0.6403  0.6504  1.7016
  186SAPI  H12Y21411   4.968   0.729   8.879  0.6854 -0.8360 -1.2802
  186SAPI  C31321412   5.137   0.611   8.923 -1.0788  0.8726 -0.1104
  186SAPI  H13X21413   5.061   0.547   8.972 -0.6006  0.9792  0.7963
  186SAPI  H13Y21414   5.235   0.601   8.975  0.2921 -1.0789 -2.8187
  186SAPI  C31421415   5.161   0.559   8.774  0.0742 -0.7427 -0.6855
  186SAPI  H14X21416   5.230   0.634   8.730 -0.0633  0.8041  1.5977
  186SAPI  H14Y21417   5.073   0.568   8.708  0.7906 -0.0585 -1.5710
  186SAPI  C31521418   5.220   0.419   8.758 -0.1844 -0.7042 -0.3783
  186SAPI  H15X21419   5.295   0.391   8.835  0.0981  0.1447 -0.3308
  186SAPI  H15Y21420   5.273   0.417   8.660  0.7523 -0.0173  0.0971
  186SAPI  C31621421   5.114   0.311   8.758 -0.8517 -0.0235 -0.2838
  186SAPI  H16X21422   5.019   0.353   8.721 -1.5198  0.0500  1.4229
  186SAPI  H16Y21423   5.087   0.272   8.858 -0.3855  3.0596  1.1680
  186SAPI  C31721424   5.152   0.189   8.669  0.1915  0.1653  0.4432
  186SAPI  H17X21425   5.253   0.153   8.698 -0.8067 -1.2374  2.4275
  186SAPI  H17Y21426   5.154   0.239   8.570  0.8549  4.0316  2.2280
  186SAPI  C31821427   5.053   0.072   8.677 -0.0751 -0.7308  0.2861
  186SAPI  H18X21428   5.086  -0.011   8.610 -0.7582 -2.1161  1.5809
  186SAPI  H18Y21429   4.952   0.093   8.638  0.0901 -1.2869 -0.4754
  186SAPI  H18Z21430   5.052   0.030   8.780  2.2136  0.0123  0.6702
  187SAPI   C1221431   1.456   2.544   6.163  0.6485 -0.6358  0.3804
  187SAPI    H221432   1.352   2.581   6.150  1.4884  2.3800  1.5176
  187SAPI    O221433   1.464   2.432   6.072 -0.0562  0.4981 -0.0273
  187SAPI   HO221434   1.495   2.358   6.125 -0.9035 -0.5481 -0.9398
  187SAPI   C1321435   1.549   2.663   6.135  0.3139  0.4855  0.4422
  187SAPI    H321436   1.539   2.742   6.212  1.1953  0.9429  0.1034
  187SAPI    O321437   1.516   2.732   6.014  0.3454 -0.0468  0.1325
  187SAPI   HO321438   1.510   2.664   5.946  2.2797 -0.9818  0.8331
  187SAPI   C1421439   1.689   2.614   6.136 -0.2113  0.0892  0.4341
  187SAPI    H421440   1.688   2.542   6.052 -0.7405  1.8127 -1.0978
  187SAPI    O421441   1.787   2.713   6.106 -0.1162  0.2610 -0.1196
  187SAPI   HO421442   1.873   2.693   6.144 -0.4665 -1.3517 -0.1009
  187SAPI   C1521443   1.730   2.529   6.258 -0.0750  0.3181  0.9283
  187SAPI    H521444   1.773   2.599   6.333  1.0551 -0.2289  0.8077
  187SAPI    O521445   1.839   2.440   6.232  0.2001 -0.1935 -0.3387
  187SAPI   HO521446   1.865   2.406   6.318 -3.0382 -1.7175  0.1846
  187SAPI   C1621447   1.617   2.440   6.322  0.0720 -1.1901  0.3593
  187SAPI    H621448   1.620   2.342   6.270  2.4513 -0.6954 -0.5494
  187SAPI    O621449   1.642   2.413   6.459  0.1130 -0.0710 -0.1466
  187SAPI   HO621450   1.657   2.492   6.512  0.1825  1.4396 -2.2586
  187SAPI   C1121451   1.477   2.506   6.302 -0.1966  0.3798 -0.2719
  187SAPI    H121452   1.486   2.596   6.368 -2.2164  1.1510 -0.9706
  187SAPI     P21453   1.233   2.479   6.412 -0.4109 -0.4782  0.0792
  187SAPI   O1321454   1.135   2.374   6.395 -0.1656  0.2936 -0.3157
  187SAPI   O1421455   1.206   2.607   6.345  0.2168 -0.2797  0.4166
  187SAPI   O1221456   1.374   2.419   6.354 -0.5900  0.3264  0.0059
  187SAPI   O1121457   1.261   2.510   6.560 -0.2832 -0.3608 -0.2780
  187SAPI    C121458   1.274   2.644   6.618  0.2531  0.0392 -0.4262
  187SAPI    HA21459   1.379   2.676   6.601 -0.0468  2.1452  1.2840
  187SAPI    HB21460   1.214   2.718   6.562 -0.4279  1.0978  1.6121
  187SAPI    C221461   1.248   2.642   6.776 -0.0796 -0.1702  0.7050
  187SAPI    HS21462   1.257   2.742   6.823 -2.4789 -0.3242  1.6031
  187SAPI   O2121463   1.344   2.552   6.836  0.4986  0.1704 -0.2002
  187SAPI   C2121464   1.460   2.592   6.861 -0.2516  0.5691  0.9773
  187SAPI   O2221465   1.502   2.703   6.822 -0.0063 -0.7745 -0.0889
  187SAPI   C2221466   1.541   2.492   6.943  0.1744  0.6358 -0.7247
  187SAPI   H2R21467   1.509   2.392   6.906  0.0138 -0.6128  2.4158
  187SAPI   H2S21468   1.650   2.509   6.935  0.8923 -2.0456  1.8069
  187SAPI    C321469   1.106   2.587   6.806  0.1235 -0.8743  0.2030
  187SAPI    HX21470   1.104   2.489   6.754  0.3157 -0.0137 -1.5314
  187SAPI    HY21471   1.039   2.654   6.748  0.3543 -0.5509  0.3037
  187SAPI   O3121472   1.082   2.587   6.947 -0.1440  0.6283 -0.0705
  187SAPI   C3121473   1.106   2.471   7.010  0.3082  0.1911  0.1141
  187SAPI   O3221474   1.128   2.364   6.954  0.3489 -0.1067 -0.2483
  187SAPI   C3221475   1.081   2.488   7.158  0.1508 -0.3020  0.2926
  187SAPI   H2X21476   1.000   2.559   7.185 -0.3816 -0.3618 -1.0639
  187SAPI   H2Y21477   1.181   2.529   7.186 -0.1759  1.4661 -0.9625
  187SAPI   C2321478   1.504   2.485   7.101  0.3893 -0.2919  0.1224
  187SAPI   H3R21479   1.585   2.420   7.141  1.1812  1.0902  0.8214
  187SAPI   H3S21480   1.402   2.443   7.113 -0.6944  2.2499  0.5112
  187SAPI   C2421481   1.513   2.615   7.172 -0.4662 -0.2929  0.9668
  187SAPI   H4R21482   1.463   2.599   7.270 -1.3504  0.5455  0.6635
  187SAPI   H4S21483   1.451   2.692   7.122  0.0375  0.6542  1.7431
  187SAPI   C2521484   1.653   2.669   7.187  0.6806  0.1762 -0.6813
  187SAPI   H5R21485   1.696   2.717   7.097  1.0901  0.5709 -0.2821
  187SAPI   C2621486   1.712   2.682   7.308  0.1201  0.2975  0.0310
  187SAPI   H6R21487   1.808   2.736   7.304 -0.3307  1.0713 -0.4441
  187SAPI   C2721488   1.662   2.640   7.445  0.3025 -0.4961  0.7951
  187SAPI   H7R21489   1.561   2.682   7.461  0.5305  1.1843 -1.6229
  187SAPI   H7S21490   1.716   2.708   7.515 -0.8014  2.0758 -0.6896
  187SAPI   C2821491   1.661   2.493   7.476 -0.6758  0.5374 -0.1803
  187SAPI   H8R21492   1.716   2.436   7.400  0.3808  0.3680  0.6809
  187SAPI   C2921493   1.609   2.437   7.585  0.2467 -0.2682  0.0324
  187SAPI   H9R21494   1.613   2.330   7.610  0.3752 -0.0948  0.8097
  187SAPI  C21021495   1.533   2.506   7.695 -0.0309 -0.0528 -0.6879
  187SAPI  H10R21496   1.562   2.612   7.710  0.0381  0.0923 -1.7674
  187SAPI  H10S21497   1.582   2.466   7.786  0.8439  1.0880 -0.6288
  187SAPI  C21121498   1.383   2.503   7.675  0.5418 -0.1765  0.3161
  187SAPI  H11R21499   1.354   2.556   7.583 -1.2240 -0.8364  0.4498
  187SAPI  C21221500   1.297   2.434   7.748 -0.1729  0.3933 -0.2979
  187SAPI  H12R21501   1.190   2.443   7.721 -0.4123  4.2897  1.2471
  187SAPI  C21321502   1.333   2.366   7.881  0.1994  0.1487 -0.8991
  187SAPI  H13R21503   1.434   2.320   7.886  1.7168  3.3529  1.6745
  187SAPI  H13S21504   1.271   2.274   7.885  0.0399  0.3013  1.1377
  187SAPI  C21421505   1.324   2.455   8.001 -0.1198 -0.1936 -0.4430
  187SAPI  H14R21506   1.358   2.559   7.989  1.6304 -0.6223  0.5462
  187SAPI  C21521507   1.260   2.435   8.119  0.0665  0.6840  0.1987
  187SAPI  H15R21508   1.245   2.516   8.192  1.9418 -0.5888  2.1281
  187SAPI  C21621509   1.189   2.312   8.170  0.3498  0.2342 -0.2128
  187SAPI  H16R21510   1.216   2.284   8.274  0.6065 -1.3754 -0.6738
  187SAPI  H16S21511   1.228   2.233   8.101  1.3599  1.4166 -1.0389
  187SAPI  C21721512   1.039   2.321   8.178 -0.3827 -0.2587 -0.3560
  187SAPI  H17R21513   0.986   2.340   8.082  0.0730 -1.1738 -0.7990
  187SAPI  H17S21514   1.013   2.411   8.238  2.1388 -1.9960  3.7207
  187SAPI  C21821515   0.984   2.202   8.253  0.2088 -0.1471  0.0450
  187SAPI  H18R21516   1.043   2.181   8.344 -0.1090  0.1292  0.3204
  187SAPI  H18S21517   0.979   2.111   8.190 -1.9731  0.8875 -1.4096
  187SAPI  C21921518   0.845   2.217   8.306  0.1938  0.6255  0.3860
  187SAPI  H19R21519   0.804   2.117   8.334 -0.6609  0.9837  0.4494
  187SAPI  H19S21520   0.780   2.253   8.223 -0.7056 -3.0413 -0.6788
  187SAPI  C22021521   0.830   2.323   8.415 -0.2708 -0.1608  0.3689
  187SAPI  H20R21522   0.729   2.322   8.463 -0.4537  2.2367  0.1357
  187SAPI  H20S21523   0.853   2.427   8.384 -0.3925  0.1876  1.4007
  187SAPI  H20T21524   0.889   2.294   8.505 -0.4659 -0.5823  0.3649
  187SAPI   C3321525   1.056   2.354   7.229  0.0055  0.8088 -0.7811
  187SAPI   H3X21526   0.986   2.286   7.175 -0.6871  0.7814  0.1251
  187SAPI   H3Y21527   1.013   2.378   7.329 -3.6066 -1.5093 -1.5735
  187SAPI   C3421528   1.183   2.266   7.246  0.4346  0.1812  0.2567
  187SAPI   H4X21529   1.259   2.326   7.300 -0.3773  0.5931  0.9724
  187SAPI   H4Y21530   1.234   2.245   7.150  2.2756  0.5613  1.1117
  187SAPI   C3521531   1.159   2.135   7.327  0.1076  0.2244 -0.6918
  187SAPI   H5X21532   1.259   2.087   7.330  0.3236  0.7105 -0.0849
  187SAPI   H5Y21533   1.087   2.067   7.276 -1.0981  0.3843  0.7355
  187SAPI   C3621534   1.113   2.149   7.476 -0.4582 -0.5569  0.2357
  187SAPI   H6X21535   1.013   2.197   7.483  0.0013  0.4559  0.0423
  187SAPI   H6Y21536   1.184   2.221   7.522 -0.2681 -1.5553  1.5521
  187SAPI   C3721537   1.115   2.018   7.551 -0.4573  0.0898  0.4799
  187SAPI   H7X21538   1.216   1.970   7.558 -0.0592  0.6525 -1.0551
  187SAPI   H7Y21539   1.056   1.952   7.484 -0.3144  1.7400 -1.3590
  187SAPI   C3821540   1.062   2.037   7.699 -0.1465  0.6545 -0.8140
  187SAPI   H8X21541   0.955   2.064   7.691 -1.4589 -3.2557  1.1567
  187SAPI   H8Y21542   1.124   2.109   7.757  1.0530 -0.5772 -0.5159
  187SAPI   C3921543   1.065   1.901   7.770  0.1064 -0.5680  0.2156
  187SAPI   H9X21544   1.170   1.874   7.794 -0.1149 -0.9861  0.7161
  187SAPI   H9Y21545   1.021   1.828   7.699  1.8319  0.8888 -2.5521
  187SAPI  C31021546   0.983   1.907   7.904  0.7512  0.1077  0.3137
  187SAPI  H10X21547   0.879   1.942   7.885  1.8018  1.0369 -5.5627
  187SAPI  H10Y21548   1.029   1.985   7.969 -0.8121  0.2938  1.2672
  187SAPI  C31121549   0.981   1.775   7.979 -0.0523 -0.5618  0.3854
  187SAPI  H11X21550   1.082   1.734   8.002  1.2621  2.8847  1.4217
  187SAPI  H11Y21551   0.925   1.701   7.917 -2.6876 -0.6108  2.6028
  187SAPI  C31221552   0.899   1.795   8.109 -0.8030 -0.1496 -0.2671
  187SAPI  H12X21553   0.793   1.804   8.077 -0.7100  0.0845 -0.5149
  187SAPI  H12Y21554   0.929   1.892   8.155  1.7869 -1.3428  0.7551
  187SAPI  C31321555   0.931   1.691   8.219  0.0754 -0.2623 -0.4482
  187SAPI  H13X21556   0.905   1.733   8.319  0.1810  2.4609 -1.4711
  187SAPI  H13Y21557   1.042   1.685   8.217  0.2114  1.0529 -3.9407
  187SAPI  C31421558   0.874   1.555   8.195  0.0111 -0.4112 -0.2312
  187SAPI  H14X21559   0.954   1.478   8.205 -0.3740 -0.9513 -1.2231
  187SAPI  H14Y21560   0.837   1.544   8.091  0.5428 -0.6452 -0.4005
  187SAPI  C31521561   0.766   1.530   8.301  0.0671 -0.4933  0.0618
  187SAPI  H15X21562   0.683   1.600   8.283 -1.0502 -2.0019 -0.9212
  187SAPI  H15Y21563   0.801   1.553   8.404  3.0802  3.4174 -1.5918
  187SAPI  C31621564   0.708   1.385   8.307 -0.0487 -0.5850 -0.5244
  187SAPI  H16X21565   0.797   1.319   8.314 -0.1501 -0.6821 -0.1126
  187SAPI  H16Y21566   0.647   1.356   8.220  1.7491 -3.9325 -0.8311
  187SAPI  C31721567   0.620   1.353   8.430 -0.4359 -0.3785 -0.5380
  187SAPI  H17X21568   0.534   1.423   8.426  0.5020  0.8256  0.0979
  187SAPI  H17Y21569   0.678   1.370   8.522 -0.3206  1.4235 -0.9155
  187SAPI  C31821570   0.568   1.210   8.417 -0.4301 -0.3821 -0.2670
  187SAPI  H18X21571   0.520   1.177   8.512 -0.4471  0.1108 -0.1016
  187SAPI  H18Y21572   0.643   1.133   8.390 -1.0607 -1.6717  1.4165
  187SAPI  H18Z21573   0.489   1.213   8.338 -0.7077  2.1515  0.0215
  188SAPI   C1221574   2.666   5.992   6.526  0.3534 -0.0600 -0.5198
  188SAPI    H221575   2.640   5.925   6.611  2.3609  0.4765  0.5942
  188SAPI    O221576   2.549   6.033   6.461 -0.3428 -0.1749  0.2504
  188SAPI   HO221577   2.524   5.958   6.406  1.3667 -1.0194  0.5583
  188SAPI   C1321578   2.753   6.109   6.579 -0.8649 -0.1330 -0.7156
  188SAPI    H321579   2.843   6.067   6.628 -1.8722  0.0403  1.3928
  188SAPI    O321580   2.686   6.181   6.683  0.6769  0.2846  0.4349
  188SAPI   HO321581   2.648   6.252   6.631  1.0084  2.2397  2.6887
  188SAPI   C1421582   2.797   6.196   6.464 -0.6620  0.2540  0.9760
  188SAPI    H421583   2.709   6.227   6.404  0.2277 -1.5159 -1.4383
  188SAPI    O421584   2.855   6.321   6.499  0.0572  0.1576  0.3843
  188SAPI   HO421585   2.812   6.398   6.460 -0.6307  0.5087  1.7781
  188SAPI   C1521586   2.878   6.117   6.362 -0.4488  0.3956  0.2781
  188SAPI    H521587   2.974   6.087   6.410 -0.1555 -1.9171 -1.5548
  188SAPI    O521588   2.915   6.185   6.240 -0.6475  0.5088 -0.2513
  188SAPI   HO521589   2.878   6.273   6.231  1.4775  1.3559 -1.5998
  188SAPI   C1621590   2.816   5.983   6.321  0.7447  0.6042  0.1569
  188SAPI    H621591   2.738   5.993   6.241  2.1698 -0.0517 -1.3761
  188SAPI    O621592   2.910   5.896   6.257  0.0260  0.6710  0.1653
  188SAPI   HO621593   2.940   5.836   6.326 -0.9436 -1.2169 -0.9720
  188SAPI   C1121594   2.754   5.903   6.434  0.8390 -0.1571  0.2029
  188SAPI    H121595   2.833   5.878   6.507  1.1620 -0.5511 -0.2734
  188SAPI     P21596   2.714   5.637   6.428 -0.1831  0.1415 -0.1035
  188SAPI   O1321597   2.858   5.610   6.400 -0.0260 -0.2766  0.3626
  188SAPI   O1421598   2.619   5.550   6.360  0.0154 -0.6126  0.2873
  188SAPI   O1221599   2.682   5.793   6.389 -0.4069  0.2362  0.2187
  188SAPI   O1121600   2.691   5.626   6.584 -0.3999 -0.0026  0.1628
  188SAPI    C121601   2.558   5.637   6.643 -0.5045  0.4672  0.0375
  188SAPI    HA21602   2.538   5.733   6.695 -2.0099  0.7309 -0.9612
  188SAPI    HB21603   2.480   5.635   6.563 -1.1619 -0.3711  0.6793
  188SAPI    C221604   2.546   5.517   6.746 -0.4482  0.1082  0.0595
  188SAPI    HS21605   2.440   5.517   6.779 -0.9758 -0.8093 -1.5411
  188SAPI   O2121606   2.639   5.545   6.853  0.5395  0.5020  0.4484
  188SAPI   C2121607   2.593   5.633   6.945 -0.2381 -0.6450  0.1346
  188SAPI   O2221608   2.479   5.674   6.954 -0.5740  0.2790 -0.0576
  188SAPI   C2221609   2.708   5.668   7.038  0.3142  0.7965  0.4654
  188SAPI   H2R21610   2.741   5.576   7.092  0.3907  0.9260  0.6431
  188SAPI   H2S21611   2.788   5.717   6.979 -0.2481 -1.7349 -2.6708
  188SAPI    C321612   2.567   5.381   6.678  0.8676 -0.4800 -0.3767
  188SAPI    HX21613   2.665   5.367   6.627  1.3334  0.6500  0.1759
  188SAPI    HY21614   2.488   5.373   6.601 -0.4865  1.2803  0.7677
  188SAPI   O3121615   2.548   5.275   6.778  0.5185 -0.5163 -0.0679
  188SAPI   C3121616   2.661   5.220   6.823 -0.2584  0.8510  0.1787
  188SAPI   O3221617   2.776   5.246   6.785  0.6845  0.1652 -0.4662
  188SAPI   C3221618   2.631   5.128   6.942 -0.5406 -0.3494 -0.3483
  188SAPI   H2X21619   2.655   5.028   6.900  1.6489  0.4528 -1.1235
  188SAPI   H2Y21620   2.524   5.152   6.962  0.1487  2.6973  0.2122
  188SAPI   C2321621   2.665   5.767   7.154 -0.3339 -0.0883  0.6470
  188SAPI   H3R21622   2.617   5.846   7.093  0.3729 -0.0546  0.1311
  188SAPI   H3S21623   2.762   5.798   7.198  0.2931 -0.4844 -0.4135
  188SAPI   C2421624   2.574   5.712   7.262  0.8638  0.5632  1.0685
  188SAPI   H4R21625   2.624   5.620   7.301 -0.1495 -1.0301 -1.1479
  188SAPI   H4S21626   2.480   5.669   7.220  0.0832  1.2884  2.0503
  188SAPI   C2521627   2.549   5.819   7.374  0.1029  0.0009 -0.6174
  188SAPI   H5R21628   2.458   5.880   7.366  1.1235  1.7489  0.4632
  188SAPI   C2621629   2.616   5.828   7.490  0.3019  0.0412  0.0179
  188SAPI   H6R21630   2.578   5.896   7.567  0.5552 -1.3393  1.4149
  188SAPI   C2721631   2.726   5.744   7.542  0.5731  0.1426  0.1390
  188SAPI   H7R21632   2.749   5.666   7.467 -2.3981 -0.0561 -0.6673
  188SAPI   H7S21633   2.693   5.698   7.638 -0.3503 -0.3099 -0.3815
  188SAPI   C2821634   2.843   5.842   7.568 -0.5572 -0.2688 -0.4231
  188SAPI   H8R21635   2.851   5.922   7.493  1.1651 -0.3277 -0.3393
  188SAPI   C2921636   2.932   5.829   7.670 -0.2865  0.5347 -0.7200
  188SAPI   H9R21637   3.006   5.906   7.694  2.1740 -1.3349 -1.8338
  188SAPI  C21021638   2.903   5.743   7.787  0.2012 -0.4113 -0.5368
  188SAPI  H10R21639   2.995   5.696   7.828 -0.7688 -1.6806  0.2946
  188SAPI  H10S21640   2.842   5.658   7.749 -2.0824  1.2106 -0.7112
  188SAPI  C21121641   2.823   5.817   7.894 -1.3312  0.2723 -0.4980
  188SAPI  H11R21642   2.788   5.917   7.865 -3.2451 -0.0811  0.4801
  188SAPI  C21221643   2.774   5.764   8.008  0.2624  0.8970 -0.1806
  188SAPI  H12R21644   2.723   5.829   8.081  1.5833  1.2967  0.4238
  188SAPI  C21321645   2.792   5.616   8.050  0.0304  0.0385 -0.1134
  188SAPI  H13R21646   2.855   5.560   7.978  0.4058  0.6137 -0.2396
  188SAPI  H13S21647   2.703   5.550   8.062  0.0417  0.4971  4.7679
  188SAPI  C21421648   2.857   5.606   8.189  0.3127  0.2534  0.2877
  188SAPI  H14R21649   2.786   5.623   8.271 -0.6671 -2.5357  0.1321
  188SAPI  C21521650   2.979   5.566   8.224 -0.0955 -0.4973 -0.1357
  188SAPI  H15R21651   3.013   5.569   8.328 -1.6424 -0.7880  0.4093
  188SAPI  C21621652   3.091   5.554   8.127  0.2433  0.3228 -0.3051
  188SAPI  H16R21653   3.055   5.565   8.022 -1.3884 -2.9366 -0.1995
  188SAPI  H16S21654   3.127   5.449   8.129 -2.1175 -0.6395 -2.3453
  188SAPI  C21721655   3.202   5.658   8.155 -0.3156  0.2408 -0.4635
  188SAPI  H17R21656   3.153   5.757   8.139 -2.1215 -0.5716 -0.1867
  188SAPI  H17S21657   3.278   5.655   8.074 -1.8260  2.4046 -2.0992
  188SAPI  C21821658   3.263   5.652   8.293  0.2042  0.1562 -0.4444
  188SAPI  H18R21659   3.237   5.553   8.337 -0.8513  1.8410  3.0566
  188SAPI  H18S21660   3.210   5.720   8.362 -1.4547 -1.4707 -0.0433
  188SAPI  C21921661   3.419   5.674   8.297  0.2304  0.5676  1.2402
  188SAPI  H19R21662   3.451   5.765   8.241  0.0553  0.4837  0.9989
  188SAPI  H19S21663   3.470   5.584   8.257  0.0753  0.4783  1.2434
  188SAPI  C22021664   3.481   5.689   8.435 -0.2485  0.4770  0.1488
  188SAPI  H20R21665   3.471   5.596   8.494 -0.2267  0.5597  0.2824
  188SAPI  H20S21666   3.454   5.778   8.495  2.2101  1.8011 -0.5292
  188SAPI  H20T21667   3.591   5.705   8.428 -0.2618  0.2709 -0.6363
  188SAPI   C3321668   2.704   5.185   7.060 -1.0169 -0.3617 -0.7747
  188SAPI   H3X21669   2.671   5.287   7.090 -2.1141 -1.6405  2.8934
  188SAPI   H3Y21670   2.813   5.200   7.045 -1.1944  1.0541 -0.8388
  188SAPI   C3421671   2.689   5.099   7.182  0.1190 -0.2325 -0.7466
  188SAPI   H4X21672   2.709   4.995   7.149 -1.2597 -0.7729  0.0098
  188SAPI   H4Y21673   2.580   5.096   7.206 -0.1824 -1.9971 -2.1435
  188SAPI   C3521674   2.761   5.144   7.305  0.1787  0.3522 -0.2171
  188SAPI   H5X21675   2.757   5.255   7.316  2.3565  0.3305  1.4945
  188SAPI   H5Y21676   2.869   5.118   7.309  0.2176  0.1605 -1.9339
  188SAPI   C3621677   2.690   5.090   7.426 -0.6509 -0.2336 -0.1280
  188SAPI   H6X21678   2.676   4.980   7.425  0.1421 -0.3459  0.1789
  188SAPI   H6Y21679   2.592   5.141   7.433  0.0719  1.0213  1.5239
  188SAPI   C3721680   2.773   5.125   7.551  0.5511 -0.2145 -0.4309
  188SAPI   H7X21681   2.773   5.235   7.568 -1.5256 -0.3599  0.8119
  188SAPI   H7Y21682   2.879   5.090   7.549  0.3076 -1.7602  3.8694
  188SAPI   C3821683   2.698   5.073   7.675  0.6229  0.1568 -0.4820
  188SAPI   H8X21684   2.714   4.963   7.672  0.9243  0.2249 -1.9337
  188SAPI   H8Y21685   2.591   5.103   7.678  0.8616  0.9192  1.5142
  188SAPI   C3921686   2.760   5.138   7.797 -0.1656  0.0586 -0.4174
  188SAPI   H9X21687   2.758   5.249   7.797  1.6557  0.1286 -2.0270
  188SAPI   H9Y21688   2.866   5.105   7.801 -0.6415 -1.6700 -1.1426
  188SAPI  C31021689   2.684   5.089   7.917  1.2620  0.0398 -0.0229
  188SAPI  H10X21690   2.671   4.979   7.904  0.6245  0.0993  0.1033
  188SAPI  H10Y21691   2.587   5.142   7.912  0.5964 -0.9104  1.6749
  188SAPI  C31121692   2.751   5.119   8.060  0.1582 -0.1410  0.1265
  188SAPI  H11X21693   2.752   5.230   8.064  0.0847 -0.0321 -1.7739
  188SAPI  H11Y21694   2.853   5.078   8.077  0.4737  0.1198 -1.0665
  188SAPI  C31221695   2.659   5.073   8.184 -0.2818 -0.1008 -0.1311
  188SAPI  H12X21696   2.664   4.962   8.190  2.0923 -0.0116  0.6432
  188SAPI  H12Y21697   2.555   5.093   8.149 -0.3453 -2.5743 -1.5442
  188SAPI  C31321698   2.682   5.136   8.324 -0.3563 -0.8191 -0.3479
  188SAPI  H13X21699   2.787   5.165   8.350 -1.4435  2.1162  1.2734
  188SAPI  H13Y21700   2.646   5.080   8.413 -1.9897  1.4023  0.4645
  188SAPI  C31421701   2.613   5.272   8.348 -0.2999 -0.2881 -0.6053
  188SAPI  H14X21702   2.510   5.264   8.307 -0.9208  0.2046  0.7984
  188SAPI  H14Y21703   2.671   5.350   8.294  0.1573 -1.4722 -1.8759
  188SAPI  C31521704   2.595   5.307   8.494  0.3916  0.4875 -1.1748
  188SAPI  H15X21705   2.571   5.221   8.560 -0.4018  0.1702 -1.8584
  188SAPI  H15Y21706   2.507   5.373   8.505  0.2564 -0.0336  1.8489
  188SAPI  C31621707   2.726   5.369   8.543 -0.0043 -0.8690  0.0387
  188SAPI  H16X21708   2.769   5.436   8.466 -1.0468 -0.6582 -0.3729
  188SAPI  H16Y21709   2.804   5.292   8.560  0.7700  0.1411  1.2459
  188SAPI  C31721710   2.705   5.437   8.683 -0.4618  0.2527  0.8774
  188SAPI  H17X21711   2.611   5.496   8.672 -1.1127 -1.0604 -1.1730
  188SAPI  H17Y21712   2.797   5.498   8.695 -0.4186  0.5957 -0.9562
  188SAPI  C31821713   2.668   5.343   8.800 -0.2547 -0.8734  0.8983
  188SAPI  H18X21714   2.679   5.385   8.902 -0.1988 -1.5239  1.1679
  188SAPI  H18Y21715   2.738   5.260   8.777  1.7089  1.1820 -1.0395
  188SAPI  H18Z21716   2.567   5.302   8.780 -0.9531  1.2389 -0.2149
  189POPC     N21717   3.009   6.722  11.019 -0.3896 -0.0156  0.7527
  189POPC   C1221718   2.957   6.746  11.159  0.3090 -0.3365  0.5233
  189POPC  H12A21719   2.999   6.841  11.187 -1.1132  0.4603  0.0910
  189POPC  H12B21720   2.996   6.667  11.220 -1.8421 -1.9187 -0.0444
  189POPC   C1321721   2.934   6.613  10.943  0.6719  0.8272  0.4772
  189POPC  H13A21722   2.831   6.642  10.928  0.1932 -1.0735 -0.2417
  189POPC  H13B21723   2.981   6.606  10.846 -2.0251  1.9701 -1.0222
  189POPC  H13C21724   2.943   6.515  10.989  1.6668  0.1065 -1.1724
  189POPC   C1421725   3.001   6.851  10.938 -0.2941 -0.1308  0.1555
  189POPC  H14A21726   3.015   6.833  10.832 -1.1902 -1.3216  0.2099
  189POPC  H14B21727   2.907   6.902  10.951  0.1236  0.6680  0.0552
  189POPC  H14C21728   3.075   6.920  10.976  0.3796 -1.2270  0.9195
  189POPC   C1521729   3.156   6.690  11.035  0.7971 -0.5491  0.7704
  189POPC  H15A21730   3.181   6.591  11.070  1.9628 -0.0788  1.3340
  189POPC  H15B21731   3.200   6.760  11.104 -1.7612  0.9343  0.9801
  189POPC  H15C21732   3.206   6.702  10.940 -1.4455 -2.9083 -0.8537
  189POPC   C1121733   2.802   6.760  11.178 -0.3288  0.0912 -0.5939
  189POPC  H11A21734   2.790   6.763  11.289  0.3817  1.0987 -0.5304
  189POPC  H11B21735   2.748   6.671  11.138  0.4079  0.6293 -2.9360
  189POPC     P21736   2.640   6.874  11.012 -0.3222 -0.1745  0.6793
  189POPC   O1321737   2.618   7.002  10.944  0.2049  0.0468 -0.5439
  189POPC   O1421738   2.525   6.810  11.080  0.0101 -0.0310 -0.3526
  189POPC   O1221739   2.751   6.879  11.121 -0.3762 -0.6388  0.0012
  189POPC   O1121740   2.693   6.776  10.903 -0.2024 -0.2277 -0.0454
  189POPC    C121741   2.606   6.707  10.808 -0.0533 -0.5723 -0.7427
  189POPC    HA21742   2.500   6.711  10.841 -0.3887 -1.4761 -1.6571
  189POPC    HB21743   2.634   6.600  10.820  0.8802 -0.1105  2.0604
  189POPC    C221744   2.637   6.771  10.670 -0.3690  0.2190 -0.8370
  189POPC    HS21745   2.611   6.879  10.671 -2.4386 -0.1892 -2.7177
  189POPC   O2121746   2.546   6.701  10.575 -0.0946 -0.3064 -0.7003
  189POPC   C2121747   2.500   6.770  10.478 -0.5314  0.3448 -0.3449
  189POPC   O2221748   2.527   6.887  10.457  0.0204  0.0996  0.2036
  189POPC   C2221749   2.404   6.683  10.404  0.0362 -1.2429  0.2071
  189POPC   H2R21750   2.311   6.685  10.464 -0.4376 -2.9008 -0.4097
  189POPC   H2S21751   2.449   6.582  10.413  0.5329 -1.1867 -1.2815
  189POPC    C321752   2.784   6.751  10.635  0.3261 -0.1065 -0.1985
  189POPC    HX21753   2.807   6.644  10.652 -1.9153 -0.9813 -2.0751
  189POPC    HY21754   2.851   6.808  10.703  2.4283 -2.6054  0.0101
  189POPC   O3121755   2.819   6.765  10.493  0.0279  0.3881 -0.2840
  189POPC   C3121756   2.879   6.880  10.458 -0.6225  0.5424 -0.3656
  189POPC   O3221757   2.883   6.973  10.534  0.1451 -0.3911  0.5256
  189POPC   C3221758   2.920   6.887  10.311 -0.2876  0.0723 -0.7691
  189POPC   H2X21759   3.030   6.872  10.316 -0.4216 -0.5774  0.6152
  189POPC   H2Y21760   2.899   6.990  10.276 -1.4360 -0.0835 -0.5550
  189POPC   C2321761   2.378   6.719  10.258 -0.7259  0.0939  0.2483
  189POPC   H3R21762   2.432   6.809  10.222 -0.3133 -0.8424 -1.6061
  189POPC   H3S21763   2.271   6.748  10.253 -0.6451  0.4874  0.7345
  189POPC   C2421764   2.400   6.606  10.160 -0.2313  0.3818 -0.2897
  189POPC   H4R21765   2.364   6.512  10.208 -1.7834  1.2588  0.3352
  189POPC   H4S21766   2.509   6.582  10.158 -0.1517  0.7833 -1.5906
  189POPC   C2521767   2.354   6.616  10.012  0.0797 -0.3139  0.4385
  189POPC   H5R21768   2.403   6.702   9.962 -2.1038 -0.7770 -2.8160
  189POPC   H5S21769   2.247   6.647  10.008 -0.1132 -0.7611  1.6950
  189POPC   C2621770   2.388   6.484   9.937  0.4185 -0.5655 -0.6964
  189POPC   H6R21771   2.335   6.394   9.975  1.4319 -1.2772 -0.9273
  189POPC   H6S21772   2.496   6.472   9.962  0.4641  1.4098  0.2563
  189POPC   C2721773   2.361   6.488   9.780 -0.5308 -0.1700 -0.5580
  189POPC   H7R21774   2.398   6.591   9.758 -1.4148  0.3891  0.4567
  189POPC   H7S21775   2.255   6.482   9.749  0.1077 -1.2165 -2.6944
  189POPC   C2821776   2.443   6.377   9.704 -0.1004  0.3420  0.1291
  189POPC   H8R21777   2.540   6.376   9.757 -0.1188 -1.8256  0.2206
  189POPC   H8S21778   2.444   6.413   9.599  1.0728  0.1896  0.0820
  189POPC   C2921779   2.377   6.239   9.713 -0.1466 -0.1700  0.1682
  189POPC   H9121780   2.356   6.216   9.818 -0.7283  2.3565  0.6667
  189POPC  C21021781   2.317   6.178   9.609  0.0729 -0.0274  0.5419
  189POPC  H10121782   2.265   6.082   9.624  0.1454 -0.5126 -1.9277
  189POPC  C21121783   2.331   6.205   9.459 -0.1154  0.0252 -0.6233
  189POPC  H11R21784   2.319   6.313   9.437 -0.1827  0.3158  0.7328
  189POPC  H11S21785   2.239   6.167   9.409 -0.7038  1.4276 -0.6647
  189POPC  C21221786   2.458   6.144   9.407  0.1093  0.6793 -0.1616
  189POPC  H12R21787   2.454   6.035   9.428 -3.4805  0.5674 -0.7729
  189POPC  H12S21788   2.547   6.193   9.451 -0.3092  0.5553  0.8331
  189POPC  C21321789   2.476   6.150   9.257 -0.2108  0.6393 -0.1033
  189POPC  H13R21790   2.584   6.133   9.237  0.0055  0.2858  1.2980
  189POPC  H13S21791   2.450   6.254   9.227  0.1829  0.0717 -2.6816
  189POPC  C21421792   2.390   6.038   9.182  0.2645 -0.4818  0.2914
  189POPC  H14R21793   2.285   6.062   9.211  0.5331 -1.4494  2.2588
  189POPC  H14S21794   2.426   5.940   9.219  2.2413  0.4308  0.9414
  189POPC  C21521795   2.418   6.030   9.030 -0.3524 -0.9792 -0.2148
  189POPC  H15R21796   2.408   6.130   8.983  3.3527  1.3103  3.1541
  189POPC  H15S21797   2.339   5.970   8.982  0.2138  0.4335 -3.1171
  189POPC  C21621798   2.546   5.967   8.983  0.2619  0.1129  0.3542
  189POPC  H16R21799   2.635   6.020   9.023 -0.0032 -1.6494  3.6280
  189POPC  H16S21800   2.552   5.974   8.872 -2.2011 -0.2372  0.1459
  189POPC  C21721801   2.565   5.820   9.015  0.2857  0.0909  0.8509
  189POPC  H17R21802   2.534   5.805   9.121 -0.7231  0.6570  0.6485
  189POPC  H17S21803   2.670   5.785   9.006  0.6203  1.3164 -0.3340
  189POPC  C21821804   2.481   5.743   8.917  0.6655 -0.3239  0.5370
  189POPC  H18R21805   2.494   5.779   8.813 -0.9460 -1.3116 -0.0561
  189POPC  H18S21806   2.375   5.739   8.951  0.9599 -0.5192  1.4561
  189POPC  H18T21807   2.513   5.637   8.900  0.8417  0.1951 -3.3860
  189POPC   C3321808   2.839   6.788  10.227  0.3724 -0.0924 -0.1202
  189POPC   H3X21809   2.731   6.804  10.244  0.1696 -1.3003 -0.1686
  189POPC   H3Y21810   2.865   6.689  10.271  1.3493  0.6648  1.0687
  189POPC   C3421811   2.872   6.797  10.080 -0.3524  0.1963  0.3418
  189POPC   H4X21812   2.979   6.771  10.066 -0.0357  2.3468 -1.8974
  189POPC   H4Y21813   2.867   6.905  10.054 -2.5604  0.1460  0.3407
  189POPC   C3521814   2.799   6.702   9.984 -0.2603 -0.0014  0.4538
  189POPC   H5X21815   2.701   6.747   9.956  1.0110  3.0290  0.3966
  189POPC   H5Y21816   2.792   6.600  10.026  1.0429 -1.2548 -2.1762
  189POPC   C3621817   2.883   6.676   9.854  0.2718  0.1226 -0.0381
  189POPC   H6X21818   2.983   6.638   9.881  0.9561  1.3973 -0.6530
  189POPC   H6Y21819   2.895   6.771   9.796  0.0025  1.2808  1.7285
  189POPC   C3721820   2.801   6.576   9.761  0.4026 -0.6642  0.7375
  189POPC   H7X21821   2.718   6.626   9.707  0.6165 -0.6702  0.3997
  189POPC   H7Y21822   2.756   6.487   9.811 -0.5151 -0.5903  0.0602
  189POPC   C3821823   2.889   6.529   9.645  0.3041  0.0271  0.0605
  189POPC   H8X21824   2.968   6.464   9.688  0.1130 -1.6235 -1.9151
  189POPC   H8Y21825   2.935   6.615   9.591  0.2463 -0.3801 -0.6536
  189POPC   C3921826   2.810   6.454   9.530  0.3895  0.3934  0.2660
  189POPC   H9X21827   2.701   6.466   9.518  0.4605 -0.2946 -1.4107
  189POPC   H9Y21828   2.810   6.345   9.551 -1.7367  0.1380 -0.8282
  189POPC  C31021829   2.882   6.471   9.388  0.0617  0.1488  0.3144
  189POPC  H10X21830   2.990   6.448   9.394  0.8619  1.9357 -3.6349
  189POPC  H10Y21831   2.883   6.578   9.358  1.1441 -0.6406 -2.9338
  189POPC  C31121832   2.828   6.390   9.262 -0.2593 -0.3334 -0.7296
  189POPC  H11X21833   2.717   6.403   9.258 -0.2371  0.9612  1.2904
  189POPC  H11Y21834   2.849   6.281   9.264  1.0374 -0.0908 -0.1700
  189POPC  C31221835   2.887   6.449   9.128  0.1897  0.6069  0.1352
  189POPC  H12X21836   2.995   6.422   9.133  0.2417  0.7436 -0.2532
  189POPC  H12Y21837   2.878   6.559   9.127  0.6642  0.6553 -1.2161
  189POPC  C31321838   2.827   6.381   9.000  0.4817 -0.1165  0.3047
  189POPC  H13X21839   2.718   6.360   9.007  0.1544  1.5317  0.5883
  189POPC  H13Y21840   2.873   6.280   8.994  3.7413  1.2480 -0.0647
  189POPC  C31421841   2.861   6.454   8.864 -0.7369 -0.3400  0.0821
  189POPC  H14X21842   2.969   6.482   8.864 -1.2242  1.7361  0.2076
  189POPC  H14Y21843   2.818   6.556   8.861  0.1955  0.0349 -1.1690
  189POPC  C31521844   2.819   6.369   8.744  0.0687 -1.5985 -0.1475
  189POPC  H15X21845   2.812   6.425   8.647 -1.6064 -0.0687  0.7912
  189POPC  H15Y21846   2.715   6.334   8.759  0.0811 -1.6816 -0.2552
  189POPC  C31621847   2.904   6.248   8.711  0.0627  0.7268  0.1083
  189POPC  H16X21848   3.008   6.279   8.690  0.5420 -0.5866  0.4629
  189POPC  H16Y21849   2.873   6.207   8.612  2.5484 -0.1434 -0.3649
  189POPC  H16Z21850   2.909   6.161   8.780  0.7698 -0.7519 -1.7162
  190POPC     N21851   4.555   3.455  11.316  0.0649 -0.1819  0.2955
  190POPC   C1221852   4.571   3.425  11.166  0.0860  0.9328  0.4547
  190POPC  H12A21853   4.600   3.509  11.104  3.0655  0.9435  1.6829
  190POPC  H12B21854   4.473   3.411  11.124  0.0169 -0.9979  1.1542
  190POPC   C1321855   4.539   3.323  11.395 -0.4516  0.0864 -0.1669
  190POPC  H13A21856   4.619   3.255  11.369 -1.8979 -0.7883 -2.6788
  190POPC  H13B21857   4.536   3.351  11.499  0.9074 -0.1110 -0.0527
  190POPC  H13C21858   4.452   3.266  11.366  0.0376 -0.0035 -1.5278
  190POPC   C1421859   4.661   3.547  11.363 -0.5575  0.2770 -0.3600
  190POPC  H14A21860   4.650   3.646  11.321  0.4101  0.2931 -0.6211
  190POPC  H14B21861   4.660   3.555  11.471  2.2117  0.7467 -0.2853
  190POPC  H14C21862   4.751   3.495  11.333 -2.8013 -2.5825 -2.7097
  190POPC   C1521863   4.417   3.523  11.339  0.9185  0.1624  0.0257
  190POPC  H15A21864   4.394   3.540  11.443  1.7564  0.6361  0.1472
  190POPC  H15B21865   4.342   3.454  11.304  1.9592 -0.9408 -0.1332
  190POPC  H15C21866   4.405   3.611  11.278 -1.1553 -1.5429 -2.2287
  190POPC   C1121867   4.651   3.297  11.118 -0.2052 -0.3897 -1.0554
  190POPC  H11A21868   4.747   3.306  11.173 -0.7788  1.1204 -0.2281
  190POPC  H11B21869   4.663   3.303  11.008 -0.1370  1.8963 -0.9688
  190POPC     P21870   4.496   3.080  11.076 -0.5783 -0.1635  0.1109
  190POPC   O1321871   4.373   3.146  11.035 -0.4361 -0.6055 -0.5724
  190POPC   O1421872   4.472   2.959  11.152  0.1780  0.7438 -0.3157
  190POPC   O1221873   4.591   3.172  11.157 -0.1648 -0.5274 -0.2046
  190POPC   O1121874   4.567   3.029  10.944 -0.2761  0.0225 -0.3866
  190POPC    C121875   4.709   3.006  10.934  0.3426  0.5837  0.0010
  190POPC    HA21876   4.718   2.898  10.913 -3.3092  0.3501 -1.1199
  190POPC    HB21877   4.766   3.021  11.027 -0.9902 -1.6853  1.2739
  190POPC    C221878   4.762   3.088  10.813  0.3985  0.5245 -0.2934
  190POPC    HS21879   4.768   3.192  10.854  1.5321  0.0748  0.7542
  190POPC   O2121880   4.673   3.074  10.700 -0.4240 -0.4041 -0.0216
  190POPC   C2121881   4.705   3.155  10.596  0.4127  0.4535  0.2865
  190POPC   O2221882   4.788   3.244  10.608 -0.7354  0.4865 -0.4069
  190POPC   C2221883   4.631   3.106  10.474  0.0041 -0.0876 -0.1893
  190POPC   H2R21884   4.566   3.016  10.485 -0.6743  0.2769 -1.0784
  190POPC   H2S21885   4.706   3.075  10.398 -2.2038 -1.7840 -1.8482
  190POPC    C321886   4.914   3.048  10.788  0.2817  0.3300  0.1361
  190POPC    HX21887   4.978   3.076  10.874  0.2039  1.2241 -0.0929
  190POPC    HY21888   4.960   3.118  10.716 -0.7299  0.9326  0.0543
  190POPC   O3121889   4.934   2.908  10.758 -0.0469  0.1057  0.3410
  190POPC   C3121890   4.902   2.879  10.627  0.1576 -0.0965  0.1339
  190POPC   O3221891   4.894   2.963  10.537  0.0226  0.8574 -0.8137
  190POPC   C3221892   4.889   2.728  10.599  0.0737 -0.4463 -0.1183
  190POPC   H2X21893   4.924   2.670  10.687  0.9319 -2.1100 -1.5030
  190POPC   H2Y21894   4.963   2.698  10.522  1.3608 -1.2048  1.3534
  190POPC   C2321895   4.550   3.215  10.400 -0.5660  0.5475  0.2493
  190POPC   H3R21896   4.588   3.318  10.416 -0.7619  0.7514 -0.5658
  190POPC   H3S21897   4.449   3.213  10.448  1.0195  0.0058  3.9302
  190POPC   C2421898   4.546   3.204  10.253  0.3617 -0.0469  0.5909
  190POPC   H4R21899   4.508   3.107  10.213  1.4885 -0.7830  1.2421
  190POPC   H4S21900   4.650   3.210  10.215  0.7841 -1.6928  1.3731
  190POPC   C2521901   4.473   3.317  10.185 -0.0695 -0.0115 -0.3483
  190POPC   H5R21902   4.524   3.411  10.215  2.0667 -0.7500 -1.4440
  190POPC   H5S21903   4.372   3.336  10.227  0.6954  0.2596  1.4395
  190POPC   C2621904   4.491   3.319  10.028 -0.2784 -0.7152 -0.0623
  190POPC   H6R21905   4.457   3.221   9.988 -2.4320 -0.3065  0.6071
  190POPC   H6S21906   4.599   3.316  10.004  0.0639  0.3699  1.2596
  190POPC   C2721907   4.423   3.428   9.953 -0.6421 -0.3691  0.4608
  190POPC   H7R21908   4.459   3.409   9.850 -0.6918 -1.3857  0.6274
  190POPC   H7S21909   4.470   3.517  10.001 -0.1944 -1.2632  1.7441
  190POPC   C2821910   4.270   3.441   9.949 -0.7623  0.4269 -0.1217
  190POPC   H8R21911   4.234   3.456  10.053  2.0043  1.1969  0.8309
  190POPC   H8S21912   4.226   3.346   9.913 -1.4191  0.0820  1.4942
  190POPC   C2921913   4.232   3.549   9.848 -0.1014  0.6318 -0.3498
  190POPC   H9121914   4.209   3.649   9.887  0.2249  0.8678 -0.7585
  190POPC  C21021915   4.216   3.531   9.718 -0.7243  0.2708  0.9046
  190POPC  H10121916   4.172   3.612   9.658  1.3225  0.0938 -0.9457
  190POPC  C21121917   4.240   3.410   9.642 -0.6941 -0.7737 -0.1615
  190POPC  H11R21918   4.161   3.333   9.659 -1.4430 -0.2400 -1.1008
  190POPC  H11S21919   4.342   3.375   9.669 -0.5464 -0.8966 -0.8409
  190POPC  C21221920   4.239   3.433   9.492 -0.0807 -0.7456 -1.3458
  190POPC  H12R21921   4.134   3.440   9.457 -1.2417  2.0750  2.0555
  190POPC  H12S21922   4.297   3.350   9.447  0.9538  0.0944 -1.5906
  190POPC  C21321923   4.318   3.559   9.449 -0.1029  0.2591 -0.1849
  190POPC  H13R21924   4.413   3.568   9.506  0.7246 -0.0145 -1.4880
  190POPC  H13S21925   4.266   3.656   9.466  0.8221  0.5872  0.9836
  190POPC  C21421926   4.367   3.555   9.306 -0.1044  0.7777 -0.7241
  190POPC  H14R21927   4.435   3.468   9.292  1.5228  1.3676  2.4845
  190POPC  H14S21928   4.432   3.643   9.292  0.1083  1.3528  2.8513
  190POPC  C21521929   4.254   3.555   9.195 -0.8556  0.5595  0.3134
  190POPC  H15R21930   4.212   3.657   9.181 -1.5245  0.1931 -0.4258
  190POPC  H15S21931   4.179   3.486   9.239  0.0957 -1.4399 -1.0571
  190POPC  C21621932   4.301   3.504   9.066 -0.0018  0.8641  0.1525
  190POPC  H16R21933   4.221   3.474   8.995 -0.7583 -0.9932  1.6739
  190POPC  H16S21934   4.356   3.408   9.079 -4.0648 -1.8352 -0.5164
  190POPC  C21721935   4.387   3.607   8.982  0.3573  0.5374  0.2376
  190POPC  H17R21936   4.462   3.655   9.049  1.2043 -2.2150  1.3828
  190POPC  H17S21937   4.310   3.678   8.945 -3.7359 -3.7816 -0.4148
  190POPC  C21821938   4.462   3.548   8.864  0.0801  0.4464  0.3535
  190POPC  H18R21939   4.391   3.520   8.783  1.9568 -3.1150 -0.2383
  190POPC  H18S21940   4.512   3.457   8.901  1.8298  1.0134 -0.4737
  190POPC  H18T21941   4.546   3.610   8.824  0.4372  0.3730  0.9823
  190POPC   C3321942   4.747   2.673  10.552 -0.6168 -0.6397  0.3739
  190POPC   H3X21943   4.670   2.680  10.633 -0.9370 -3.9480  0.4907
  190POPC   H3Y21944   4.769   2.564  10.555  1.8420 -0.1760  1.1575
  190POPC   C3421945   4.689   2.731  10.423  0.2400  0.4212 -0.1345
  190POPC   H4X21946   4.677   2.841  10.436 -0.4002  0.3565 -0.1426
  190POPC   H4Y21947   4.583   2.701  10.413  0.0976  1.0517 -0.6202
  190POPC   C3521948   4.763   2.698  10.292 -0.8077 -0.0405  0.2062
  190POPC   H5X21949   4.780   2.588  10.293 -1.1055 -0.1136  2.3030
  190POPC   H5Y21950   4.861   2.746  10.312 -1.3858  1.5498 -0.6444
  190POPC   C3621951   4.692   2.773  10.183 -0.3134  0.0849 -0.6057
  190POPC   H6X21952   4.680   2.881  10.204 -1.3703  0.1713 -1.5674
  190POPC   H6Y21953   4.588   2.740  10.165 -0.7060  1.9378 -2.0339
  190POPC   C3721954   4.760   2.765  10.048 -0.4496 -0.1232 -0.2251
  190POPC   H7X21955   4.747   2.661  10.013 -0.3901  0.5418 -2.3852
  190POPC   H7Y21956   4.868   2.783  10.061 -0.5145 -0.6952  1.2880
  190POPC   C3821957   4.693   2.860   9.954 -0.8464  0.3385 -0.1318
  190POPC   H8X21958   4.741   2.959   9.964 -0.5490  0.2213 -0.3607
  190POPC   H8Y21959   4.587   2.874   9.985 -1.4321  0.1240 -1.9381
  190POPC   C3921960   4.692   2.811   9.806  0.0513 -0.1689  0.1569
  190POPC   H9X21961   4.633   2.890   9.755  1.3696 -0.0612 -1.2712
  190POPC   H9Y21962   4.650   2.709   9.797  3.5448 -1.6684 -0.9811
  190POPC  C31021963   4.833   2.811   9.741  0.6994  0.6192  0.6702
  190POPC  H10X21964   4.896   2.731   9.786 -0.0166 -0.5459 -0.3388
  190POPC  H10Y21965   4.883   2.909   9.754  0.2172  0.8473  0.8286
  190POPC  C31121966   4.818   2.785   9.589 -0.2482 -0.1711  0.0738
  190POPC  H11X21967   4.754   2.695   9.579  1.7773 -1.5544 -1.0389
  190POPC  H11Y21968   4.920   2.771   9.547 -0.4614  0.7480 -0.7966
  190POPC  C31221969   4.778   2.913   9.506 -0.3692  0.4856 -0.0564
  190POPC  H12X21970   4.876   2.962   9.489  1.0425 -2.5294 -1.5241
  190POPC  H12Y21971   4.719   2.982   9.570 -0.1361  1.1049 -0.5075
  190POPC  C31321972   4.721   2.865   9.380  0.1090  0.2021  0.5510
  190POPC  H13X21973   4.697   2.958   9.323  3.1086  0.5308 -0.3578
  190POPC  H13Y21974   4.630   2.804   9.396  1.2729 -1.9254 -0.5771
  190POPC  C31421975   4.821   2.783   9.290 -0.0887  0.1804  0.7665
  190POPC  H14X21976   4.772   2.768   9.192 -1.5119  2.5252  1.0438
  190POPC  H14Y21977   4.838   2.690   9.349 -3.0804  0.3972  2.1566
  190POPC  C31521978   4.962   2.843   9.263 -0.3016 -0.2756 -0.5477
  190POPC  H15X21979   5.006   2.867   9.363 -0.2264  0.1361 -0.6750
  190POPC  H15Y21980   4.949   2.943   9.215 -1.7371  0.4476  1.2183
  190POPC  C31621981   5.064   2.753   9.190  0.2979 -0.1010  0.1972
  190POPC  H16X21982   5.159   2.809   9.189  0.2362 -0.0042 -0.5207
  190POPC  H16Y21983   5.044   2.730   9.083  2.2625 -1.2522  0.0139
  190POPC  H16Z21984   5.076   2.661   9.251 -1.3383  0.1116  0.8889
  191POPC     N21985   5.506   4.280   6.179 -0.7248 -0.1966  0.5363
  191POPC   C1221986   5.478   4.351   6.315 -0.0685 -0.3972  0.3419
  191POPC  H12A21987   5.471   4.456   6.292 -0.2616  0.0304  2.2549
  191POPC  H12B21988   5.569   4.335   6.371 -0.7352 -0.9203  1.2955
  191POPC   C1321989   5.516   4.129   6.195  0.7592 -0.3378  0.8100
  191POPC  H13A21990   5.430   4.093   6.249  1.2828  2.3265  3.7248
  191POPC  H13B21991   5.519   4.088   6.095  0.3303  0.9015  0.2722
  191POPC  H13C21992   5.601   4.097   6.255  1.3780 -1.3584 -0.5644
  191POPC   C1421993   5.393   4.312   6.093  0.2471 -0.7306 -0.4004
  191POPC  H14A21994   5.397   4.269   5.994 -0.0517 -1.5357 -0.0727
  191POPC  H14B21995   5.294   4.293   6.131  0.3720  1.7259  1.3347
  191POPC  H14C21996   5.394   4.418   6.071 -1.0751 -0.4084  0.9446
  191POPC   C1521997   5.629   4.339   6.121  0.7054  0.0704  0.4372
  191POPC  H15A21998   5.715   4.338   6.186  0.3673  1.3921  0.9366
  191POPC  H15B21999   5.615   4.441   6.088 -2.4068  0.5074  2.6799
  191POPC  H15C22000   5.659   4.279   6.036  1.3753 -1.0815  1.4578
  191POPC   C1122001   5.363   4.297   6.399  0.8805 -0.4825  0.2332
  191POPC  H11A22002   5.358   4.341   6.501 -1.6602  0.9747 -0.4191
  191POPC  H11B22003   5.372   4.187   6.408 -2.2262 -0.9892 -1.3567
  191POPC     P22004   5.157   4.454   6.336 -0.2825 -0.4349 -0.0999
  191POPC   O1322005   5.039   4.448   6.251  0.4182 -0.1742  0.3789
  191POPC   O1422006   5.254   4.566   6.314  0.1459 -0.4794  0.5751
  191POPC   O1222007   5.232   4.319   6.334 -0.9258  0.0115 -0.3330
  191POPC   O1122008   5.109   4.443   6.491 -1.0636  0.0755  0.1908
  191POPC    C122009   5.001   4.349   6.520 -0.8014 -0.5501  0.6667
  191POPC    HA22010   5.008   4.260   6.454  1.8114 -0.2433  0.4207
  191POPC    HB22011   4.903   4.399   6.511  0.2354  1.5576  0.4582
  191POPC    C222012   5.011   4.278   6.661  0.4002  0.4378  0.2580
  191POPC    HS22013   4.931   4.202   6.670 -0.8728  1.7047  0.0410
  191POPC   O2122014   5.009   4.376   6.769  0.1491 -0.2669  0.5762
  191POPC   C2122015   4.895   4.431   6.797  0.2281  0.2497  0.2429
  191POPC   O2222016   4.786   4.421   6.735 -0.5481  0.0798 -0.3257
  191POPC   C2222017   4.916   4.525   6.917 -0.2549  0.7601  0.3318
  191POPC   H2R22018   4.987   4.605   6.887  1.4481 -0.9128 -0.2760
  191POPC   H2S22019   4.973   4.474   6.998 -2.7643 -1.4193  0.8727
  191POPC    C322020   5.141   4.192   6.677  0.5076 -0.1631 -0.3982
  191POPC    HX22021   5.225   4.264   6.688  0.4656 -0.4136  1.8461
  191POPC    HY22022   5.162   4.148   6.577  0.5844  1.2857 -1.0488
  191POPC   O3122023   5.132   4.094   6.787 -0.5374  0.3682 -0.2971
  191POPC   C3122024   5.229   4.004   6.789 -0.2499  0.4160  0.0816
  191POPC   O3222025   5.325   4.007   6.716  0.0363 -0.5556  0.6748
  191POPC   C3222026   5.206   3.897   6.899  0.4268  0.1255  0.1413
  191POPC   H2X22027   5.102   3.861   6.909  0.7701 -0.4922  1.8829
  191POPC   H2Y22028   5.212   3.963   6.988 -1.5326  1.1828 -0.4495
  191POPC   C2322029   4.798   4.594   6.992 -0.1343 -0.4012 -0.1466
  191POPC   H3R22030   4.713   4.537   7.034  0.9306 -0.1908  2.4852
  191POPC   H3S22031   4.756   4.683   6.940 -1.5043 -0.9646 -0.0421
  191POPC   C2422032   4.842   4.667   7.122 -0.3859 -0.1055 -0.2627
  191POPC   H4R22033   4.788   4.758   7.157  0.7929 -0.2576  2.1908
  191POPC   H4S22034   4.943   4.703   7.092  0.3520 -0.0053  2.0999
  191POPC   C2522035   4.860   4.572   7.246  0.1616 -0.3244  0.7611
  191POPC   H5R22036   4.905   4.477   7.209  0.2218 -0.4195  1.0720
  191POPC   H5S22037   4.764   4.541   7.294  0.0122 -1.7690 -0.4127
  191POPC   C2622038   4.952   4.641   7.339  0.4127 -0.8084  0.0400
  191POPC   H6R22039   4.920   4.745   7.364 -0.1190 -1.5711  2.9124
  191POPC   H6S22040   5.052   4.660   7.293  0.0953 -0.1995 -0.4073
  191POPC   C2722041   4.976   4.561   7.472  0.0706  0.0823  0.6949
  191POPC   H7R22042   5.006   4.463   7.429  0.0645  1.8766 -4.0237
  191POPC   H7S22043   4.883   4.552   7.532 -0.4586  0.2632 -0.0855
  191POPC   C2822044   5.089   4.624   7.555  0.6779 -0.1127 -0.3692
  191POPC   H8R22045   5.073   4.724   7.599  1.3507  0.8531 -2.2041
  191POPC   H8S22046   5.168   4.644   7.479  2.2929 -0.4409  1.1724
  191POPC   C2922047   5.151   4.533   7.654 -0.4966  0.3915  0.1728
  191POPC   H9122048   5.232   4.469   7.615 -1.2554 -0.2243 -0.4274
  191POPC  C21022049   5.093   4.505   7.776  0.5395  0.5746  0.2609
  191POPC  H10122050   5.118   4.413   7.829  0.7844 -0.0083 -0.8341
  191POPC  C21122051   4.971   4.583   7.837 -0.4868  0.6360 -0.4935
  191POPC  H11R22052   4.876   4.527   7.850 -0.6272  0.9888  0.0067
  191POPC  H11S22053   4.961   4.682   7.786  2.0737  1.0493 -0.3183
  191POPC  C21222054   5.007   4.625   7.982 -0.3820 -0.5289 -0.6699
  191POPC  H12R22055   4.927   4.697   8.010 -0.9237 -0.4353 -2.3836
  191POPC  H12S22056   5.112   4.661   7.977  0.2957 -2.1711  0.7469
  191POPC  C21322057   5.004   4.517   8.100  0.1961 -1.3240  0.7978
  191POPC  H13R22058   5.059   4.427   8.067  1.1746 -1.5226  2.8232
  191POPC  H13S22059   4.897   4.486   8.105 -0.4884  0.5361 -0.8444
  191POPC  C21422060   5.052   4.565   8.237 -0.1367 -0.4585  0.4763
  191POPC  H14R22061   5.011   4.663   8.267  0.2245  0.1535 -0.9258
  191POPC  H14S22062   5.161   4.580   8.221 -0.3165  1.6939  1.0268
  191POPC  C21522063   5.044   4.466   8.354  0.6596 -0.1065 -0.2885
  191POPC  H15R22064   5.089   4.368   8.326  0.8706  0.0961 -0.6674
  191POPC  H15S22065   4.938   4.452   8.385  0.0750  0.9715 -1.6824
  191POPC  C21622066   5.125   4.501   8.483  0.1560 -0.0211  1.1979
  191POPC  H16R22067   5.106   4.608   8.503  1.4115  0.6154 -0.7560
  191POPC  H16S22068   5.232   4.475   8.471 -0.1853 -1.2559  0.6042
  191POPC  C21722069   5.073   4.423   8.611 -0.5921  0.1034 -0.0877
  191POPC  H17R22070   5.091   4.314   8.601  0.4206  0.2716 -0.2317
  191POPC  H17S22071   4.965   4.449   8.612 -0.9091 -1.1532  0.3959
  191POPC  C21822072   5.133   4.474   8.744  0.2239  0.1026  0.5189
  191POPC  H18R22073   5.085   4.434   8.835 -0.3384  0.5441  0.4181
  191POPC  H18S22074   5.110   4.582   8.739  0.7328  0.1628 -1.6247
  191POPC  H18T22075   5.243   4.457   8.753  0.1592 -0.3015  0.5712
  191POPC   C3322076   5.301   3.767   6.904 -0.8292 -0.2569  1.0222
  191POPC   H3X22077   5.408   3.786   6.882 -0.0729 -1.2495  3.4168
  191POPC   H3Y22078   5.266   3.693   6.830  0.3893 -0.3535  0.5229
  191POPC   C3422079   5.311   3.708   7.047  0.2972  0.3471  0.6866
  191POPC   H4X22080   5.369   3.614   7.044  0.1805  0.2872 -1.9996
  191POPC   H4Y22081   5.211   3.675   7.082  0.0092 -0.5718 -0.9460
  191POPC   C3522082   5.382   3.797   7.150  0.0293  0.0183 -0.5475
  191POPC   H5X22083   5.329   3.894   7.158  1.0104  0.8304 -3.0461
  191POPC   H5Y22084   5.480   3.812   7.101 -0.8666 -2.3436 -3.4264
  191POPC   C3622085   5.396   3.732   7.290  0.0939 -0.0637  0.5450
  191POPC   H6X22086   5.449   3.800   7.358  1.3891 -1.0239  0.5332
  191POPC   H6Y22087   5.462   3.644   7.273  0.2386  0.2675 -0.7395
  191POPC   C3722088   5.259   3.703   7.354  0.2196 -0.5004  0.0429
  191POPC   H7X22089   5.195   3.638   7.291  0.2101  0.2315 -0.7204
  191POPC   H7Y22090   5.211   3.803   7.357 -0.8780 -1.0237  0.2969
  191POPC   C3822091   5.277   3.649   7.495 -0.3268 -0.5058 -0.0154
  191POPC   H8X22092   5.335   3.719   7.559  1.1702  1.6195 -3.4449
  191POPC   H8Y22093   5.343   3.560   7.485 -0.4724 -0.4592 -1.5847
  191POPC   C3922094   5.142   3.622   7.564 -0.3731 -0.3032  0.6912
  191POPC   H9X22095   5.088   3.551   7.498  0.3257 -0.1749 -0.0276
  191POPC   H9Y22096   5.090   3.719   7.580 -1.0370 -0.6756  0.8300
  191POPC  C31022097   5.143   3.570   7.703  0.1457  0.5296  0.3218
  191POPC  H10X22098   5.187   3.640   7.777  1.8776  0.6478 -0.7511
  191POPC  H10Y22099   5.202   3.476   7.711  0.3359  0.7477  1.6625
  191POPC  C31122100   4.998   3.539   7.752 -1.0721  0.3922  0.3919
  191POPC  H11X22101   4.945   3.465   7.688 -0.1083  0.8185 -0.9317
  191POPC  H11Y22102   4.931   3.625   7.729 -0.9328  1.0719  2.3259
  191POPC  C31222103   4.977   3.511   7.892 -0.7284 -1.2152  0.5294
  191POPC  H12X22104   4.929   3.591   7.953  2.4719  1.3877 -0.0847
  191POPC  H12Y22105   5.075   3.524   7.943 -0.0600  0.8007 -1.1280
  191POPC  C31322106   4.927   3.372   7.919 -0.1085 -0.1402  0.3732
  191POPC  H13X22107   4.992   3.300   7.866 -2.0442 -2.0031  0.4034
  191POPC  H13Y22108   4.820   3.357   7.894 -0.2730  1.4602 -0.0165
  191POPC  C31422109   4.939   3.332   8.066  0.0667 -0.1246 -0.0848
  191POPC  H14X22110   4.914   3.423   8.125  0.2273 -0.2163  0.1275
  191POPC  H14Y22111   5.045   3.317   8.096  0.3284  1.2557 -0.2424
  191POPC  C31522112   4.838   3.227   8.112  0.2365  0.1079 -0.3377
  191POPC  H15X22113   4.844   3.142   8.041 -0.4670  0.5103 -0.8945
  191POPC  H15Y22114   4.733   3.265   8.119 -0.4580 -1.8235  0.8423
  191POPC  C31622115   4.860   3.177   8.255 -0.5067  0.1479 -0.1688
  191POPC  H16X22116   4.944   3.106   8.261 -0.5377  0.2311  3.9884
  191POPC  H16Y22117   4.768   3.129   8.296  1.0829  0.1839  3.8554
  191POPC  H16Z22118   4.886   3.270   8.309 -1.9520  2.9332 -3.7799
  192POPC     N22119   3.791   6.619   6.104  0.0751  0.9461 -0.4816
  192POPC   C1222120   3.902   6.667   6.197 -0.3205  0.3100 -0.2515
  192POPC  H12A22121   3.952   6.751   6.150 -1.6020  0.3803 -1.5641
  192POPC  H12B22122   3.966   6.582   6.217  0.4076  0.7044 -0.8390
  192POPC   C1322123   3.851   6.538   5.992  0.1638  0.3935 -0.6990
  192POPC  H13A22124   3.930   6.475   6.031  0.6567  1.5937  0.2989
  192POPC  H13B22125   3.780   6.480   5.934  0.9223 -1.0812 -0.2125
  192POPC  H13C22126   3.900   6.605   5.923 -1.3517  0.7837 -1.4271
  192POPC   C1422127   3.715   6.514   6.183  0.0294 -0.1159  0.0868
  192POPC  H14A22128   3.775   6.425   6.188  0.7095  0.3760  1.0962
  192POPC  H14B22129   3.698   6.551   6.283  0.9066 -0.3707  0.3403
  192POPC  H14C22130   3.614   6.498   6.147  0.1371  0.0507 -0.2915
  192POPC   C1522131   3.706   6.729   6.055 -0.4629  0.2554  0.1270
  192POPC  H15A22132   3.774   6.805   6.020  0.5223  0.8634  3.1005
  192POPC  H15B22133   3.643   6.769   6.133 -0.5355 -0.0097  0.2036
  192POPC  H15C22134   3.636   6.689   5.983  0.0143  0.0855 -0.2490
  192POPC   C1122135   3.858   6.729   6.337  0.2816  0.1385 -0.4161
  192POPC  H11A22136   3.940   6.750   6.408  0.2365  0.4737 -0.4604
  192POPC  H11B22137   3.791   6.653   6.384  0.9752 -0.9252 -1.1012
  192POPC     P22138   3.848   6.981   6.252 -0.0042  0.1674  0.5835
  192POPC   O1322139   3.730   7.068   6.213  0.0439 -0.2553  0.0608
  192POPC   O1422140   3.953   6.941   6.154  0.8136 -0.1867  0.1467
  192POPC   O1222141   3.784   6.852   6.314  0.0637  0.0005  0.2746
  192POPC   O1122142   3.928   7.039   6.366 -0.1362  0.1542 -0.4259
  192POPC    C122143   3.863   7.048   6.496 -0.0851 -0.3213  0.0415
  192POPC    HA22144   3.832   6.948   6.533  1.4478 -0.2450  1.6969
  192POPC    HB22145   3.774   7.115   6.496 -1.3623 -1.9405  1.3047
  192POPC    C222146   3.965   7.092   6.603  0.2668 -0.5365  0.1200
  192POPC    HS22147   4.004   7.190   6.568 -0.5972  0.7215  2.5121
  192POPC   O2122148   4.072   6.992   6.628  1.3189  0.2241 -0.1392
  192POPC   C2122149   4.193   7.045   6.652 -0.1649  0.2007  0.4829
  192POPC   O2222150   4.219   7.162   6.650  0.0840  0.1133  0.2256
  192POPC   C2222151   4.287   6.931   6.667 -0.0001 -0.2331 -1.2602
  192POPC   H2R22152   4.359   6.940   6.583  0.6617 -0.7453 -0.7650
  192POPC   H2S22153   4.242   6.830   6.652 -0.3695 -0.3861  0.6174
  192POPC    C322154   3.888   7.124   6.738  0.2605  0.0124 -0.6133
  192POPC    HX22155   3.814   7.206   6.723 -1.4397 -1.7279 -2.1933
  192POPC    HY22156   3.977   7.158   6.796  0.7630 -1.9171 -0.1721
  192POPC   O3122157   3.824   7.002   6.804  0.6446 -0.2425 -0.1142
  192POPC   C3122158   3.864   6.978   6.930 -0.3667  0.1502 -0.1290
  192POPC   O3222159   3.940   7.050   6.994  0.3328 -0.1425  0.2784
  192POPC   C3222160   3.814   6.845   6.977  0.1548 -0.7417  0.5259
  192POPC   H2X22161   3.841   6.769   6.900 -0.3761 -0.3442 -0.0637
  192POPC   H2Y22162   3.704   6.844   6.990  0.1975 -1.0092  0.8863
  192POPC   C2322163   4.371   6.932   6.799 -0.7184  0.5146  1.5593
  192POPC   H3R22164   4.427   7.028   6.799 -1.4658  0.9534  1.2327
  192POPC   H3S22165   4.448   6.851   6.800  0.9799  1.9560 -0.9595
  192POPC   C2422166   4.289   6.920   6.930 -0.3938 -0.1905 -0.0847
  192POPC   H4R22167   4.229   6.827   6.933 -0.9171  0.1419  2.6252
  192POPC   H4S22168   4.224   7.009   6.922 -0.0942 -0.1658 -3.5012
  192POPC   C2522169   4.364   6.932   7.062  0.9712 -0.1255  0.3463
  192POPC   H5R22170   4.439   7.014   7.056  2.9484 -1.9531 -3.6538
  192POPC   H5S22171   4.438   6.849   7.066  1.1680 -0.0808 -1.6285
  192POPC   C2622172   4.277   6.933   7.188 -0.2028 -0.1611  0.1752
  192POPC   H6R22173   4.193   6.863   7.168  0.5179 -1.6966  2.1633
  192POPC   H6S22174   4.242   7.037   7.204  1.3125  0.2325  1.1991
  192POPC   C2722175   4.356   6.889   7.315  0.7329  0.1293 -0.2133
  192POPC   H7R22176   4.440   6.957   7.341  2.7609 -1.4721 -2.2097
  192POPC   H7S22177   4.411   6.797   7.288 -0.1952  0.1311 -2.3058
  192POPC   C2822178   4.255   6.858   7.429 -1.9203 -0.3052 -0.2218
  192POPC   H8R22179   4.309   6.809   7.514 -2.0725 -0.0803  0.0054
  192POPC   H8S22180   4.183   6.780   7.395 -1.2631 -0.3743 -1.5045
  192POPC   C2922181   4.200   6.993   7.466  0.5258  0.0402  0.2596
  192POPC   H9122182   4.127   7.027   7.392  0.7929 -0.5888 -0.3094
  192POPC  C21022183   4.237   7.069   7.563 -0.0011 -0.2995  0.0366
  192POPC  H10122184   4.174   7.158   7.579  0.0506 -0.1292 -0.6920
  192POPC  C21122185   4.331   7.027   7.676  0.2706  0.2453 -0.2478
  192POPC  H11R22186   4.330   7.107   7.753  1.4556 -1.4665  1.6609
  192POPC  H11S22187   4.437   7.024   7.642  0.3963 -0.2088  0.1679
  192POPC  C21222188   4.302   6.899   7.756 -1.1956 -0.9954 -0.0344
  192POPC  H12R22189   4.224   6.842   7.701 -0.8704  0.0670 -1.6393
  192POPC  H12S22190   4.250   6.923   7.851  1.7355 -0.7690  1.6175
  192POPC  C21322191   4.422   6.810   7.792 -0.5210  0.2785 -0.2675
  192POPC  H13R22192   4.491   6.807   7.705 -0.3842  0.1448 -0.1559
  192POPC  H13S22193   4.394   6.703   7.800  0.4274  0.1185  1.2949
  192POPC  C21422194   4.493   6.850   7.922  0.2622  0.3933 -0.2019
  192POPC  H14R22195   4.503   6.961   7.915 -1.0888  0.7080  1.8763
  192POPC  H14S22196   4.593   6.802   7.926  0.5835  1.1238  1.5255
  192POPC  C21522197   4.406   6.806   8.041  0.5706 -0.3618 -0.3821
  192POPC  H15R22198   4.359   6.709   8.015 -1.2565  0.8500 -1.8456
  192POPC  H15S22199   4.326   6.880   8.061  1.8064  0.6363  1.0772
  192POPC  C21622200   4.479   6.795   8.179 -0.1338  0.5923  0.1487
  192POPC  H16R22201   4.490   6.900   8.215 -0.2951 -0.4114  3.4387
  192POPC  H16S22202   4.577   6.743   8.175 -0.8006 -0.8354  1.3649
  192POPC  C21722203   4.399   6.721   8.290  1.2495  0.0684 -0.5456
  192POPC  H17R22204   4.453   6.750   8.383 -1.1871 -0.6491  1.1999
  192POPC  H17S22205   4.391   6.611   8.274 -1.6147  0.1866 -0.4220
  192POPC  C21822206   4.253   6.771   8.305  0.1620  0.5686  0.0362
  192POPC  H18R22207   4.193   6.714   8.379 -2.5676  0.1919 -2.2894
  192POPC  H18S22208   4.193   6.779   8.212  0.0598  3.8472  0.2872
  192POPC  H18T22209   4.261   6.871   8.351 -2.9300  0.0390  2.0072
  192POPC   C3322210   3.887   6.819   7.107 -0.0484 -0.2636 -0.8714
  192POPC   H3X22211   3.860   6.893   7.186  1.7875 -0.4351 -0.0285
  192POPC   H3Y22212   3.997   6.827   7.094 -0.1418 -0.6919 -1.9743
  192POPC   C3422213   3.867   6.679   7.164 -0.0891 -0.1314 -0.0648
  192POPC   H4X22214   3.871   6.611   7.076 -0.5084 -2.2631  1.5057
  192POPC   H4Y22215   3.764   6.678   7.204 -1.7975  1.2446 -3.8682
  192POPC   C3522216   3.973   6.632   7.265 -0.0620  0.4466  0.0190
  192POPC   H5X22217   4.075   6.653   7.226 -1.2716  1.7090 -2.7731
  192POPC   H5Y22218   3.962   6.522   7.277  0.5974  0.2532 -0.9697
  192POPC   C3622219   3.928   6.690   7.406  0.0152  0.0201  0.0663
  192POPC   H6X22220   3.818   6.676   7.416  0.1632  0.1980  2.8511
  192POPC   H6Y22221   3.953   6.798   7.403  0.3714 -0.0744 -0.8461
  192POPC   C3722222   3.991   6.614   7.520  0.1660  0.2734 -0.1326
  192POPC   H7X22223   4.102   6.627   7.522  0.2069 -0.0489 -0.1722
  192POPC   H7Y22224   3.988   6.503   7.508  1.9275  0.2913 -1.1235
  192POPC   C3822225   3.929   6.655   7.655  0.1446 -0.0731  0.1652
  192POPC   H8X22226   3.820   6.670   7.641  0.5059  1.9554 -0.7521
  192POPC   H8Y22227   3.954   6.760   7.682  0.8034 -0.1041 -0.2947
  192POPC   C3922228   3.973   6.566   7.770 -0.3853 -0.1733 -0.1785
  192POPC   H9X22229   4.077   6.602   7.780 -0.6043  0.5627 -0.4716
  192POPC   H9Y22230   3.982   6.460   7.740 -1.3643 -0.4689  0.5186
  192POPC  C31022231   3.896   6.588   7.903  0.3468 -0.2350 -0.7390
  192POPC  H10X22232   3.808   6.520   7.893  1.5384 -1.9626  0.0653
  192POPC  H10Y22233   3.855   6.691   7.916  0.1739 -0.5524  1.7231
  192POPC  C31122234   3.982   6.566   8.027 -0.0177 -0.7939 -0.5628
  192POPC  H11X22235   3.918   6.567   8.118  2.0893 -3.7130  1.1285
  192POPC  H11Y22236   4.055   6.649   8.032 -2.0361  1.2390 -2.5233
  192POPC  C31222237   4.055   6.436   8.031 -0.6974  0.3275 -0.0547
  192POPC  H12X22238   4.125   6.423   7.946 -0.5868 -1.7144  0.3015
  192POPC  H12Y22239   3.982   6.354   8.016 -1.9865  1.4941 -0.4032
  192POPC  C31322240   4.142   6.417   8.155 -0.0579  0.6181 -0.7749
  192POPC  H13X22241   4.082   6.440   8.246 -2.4364  0.6056 -2.2338
  192POPC  H13Y22242   4.224   6.492   8.160  1.3538 -0.8696 -0.8498
  192POPC  C31422243   4.186   6.276   8.179 -0.4192  0.0959 -0.0365
  192POPC  H14X22244   4.237   6.236   8.088 -0.4593 -1.1122  0.4532
  192POPC  H14Y22245   4.090   6.222   8.192  0.4738 -1.4659  0.4108
  192POPC  C31522246   4.283   6.262   8.293 -0.1952 -0.4730 -0.0559
  192POPC  H15X22247   4.219   6.266   8.384 -0.7461 -0.5904 -0.4336
  192POPC  H15Y22248   4.347   6.352   8.307  1.0471 -1.4752  1.0137
  192POPC  C31622249   4.377   6.140   8.291 -0.2717 -0.2493 -0.3887
  192POPC  H16X22250   4.445   6.130   8.204  0.0848  1.9033 -0.4217
  192POPC  H16Y22251   4.320   6.046   8.308 -1.3028  0.3511 -0.4659
  192POPC  H16Z22252   4.450   6.151   8.374 -1.1718  1.3272  0.2185
  193SOD    SOD22253   0.585   1.015   1.342 -0.1734 -0.2352  0.1890
  194SOD    SOD22254   2.506   5.353   3.505 -0.0607  0.4244 -0.0267
  195SOD    SOD22255   5.371   4.877  15.010 -0.1703 -0.2013  0.4069
  196SOD    SOD22256   6.231   3.366  12.660 -0.0869  0.0578 -0.5164
  197SOD    SOD22257   3.673   6.489   3.744  0.5419  0.1972 -0.0343
  198SOD    SOD22258   0.411   6.188  11.450  0.1812  0.2001  0.5433
  199SOD    SOD22259   4.980   3.643   5.090  0.1035  0.1288 -0.0648
  200SOD    SOD22260   3.056   6.357   0.709 -0.2092  0.1877 -0.5192
  201SOD    SOD22261   3.176   3.234  14.679  0.0114  0.4962  0.6834
  202SOD    SOD22262   2.838   5.962  11.321  0.1584  0.2336  0.0276
  203SOD    SOD22263   4.672   4.608   6.612 -0.1979  0.4209 -0.0561
  204SOD    SOD22264   2.142   2.546   4.374 -0.3338 -0.1389  0.2056
  205SOD    SOD22265   5.944   4.928  10.375  0.4554  0.3414  0.6041
  206SOD    SOD22266   1.186   0.414  16.410 -0.0904 -0.2669  0.2479
  207SOD    SOD22267   1.572   3.232   4.549 -0.1070 -0.4725 -0.2495
  208SOD    SOD22268   3.546   1.467  15.956 -0.0975  0.2269 -0.6297
  209SOD    SOD22269   4.296   2.922  15.249 -0.0224 -0.0077  1.2065
  210SOD    SOD22270   0.252   2.877  16.680  0.0359 -0.0696 -0.0096
  211SOD    SOD22271   3.760   2.524   1.953 -0.0357 -0.4404  0.4351
  212SOD    SOD22272   1.023   3.913   2.299  0.2669 -0.2552  0.0355
  213SOD    SOD22273   1.324   6.118  14.163 -0.7053 -0.2004  0.2679
  214SOD    SOD22274   1.772   0.786   3.434  0.2057  0.7149  0.2259
  215SOD    SOD22275   4.525   4.841   2.875  0.0057  0.2640  0.7657
  216SOD    SOD22276   6.333   0.775  16.770  0.6374  0.3151 -0.0280
  217SOD    SOD22277   0.095   0.449   2.808 -0.8173 -0.3742  0.4464
  218SOD    SOD22278   4.476   2.688  13.581 -0.0237 -0.2057 -0.1673
  219SOD    SOD22279   2.937   1.930  10.770 -0.2249  0.1162  0.2288
  220SOD    SOD22280   0.543   1.841  13.622 -0.1788 -0.6646 -0.0135
  221SOD    SOD22281   2.800   2.102   1.776  0.0546 -0.0090 -0.4223
  222SOD    SOD22282   4.640   2.500  11.925  0.0588 -0.3294 -0.1925
  223SOD    SOD22283   5.032   1.059   5.583  0.0136  0.0634 -0.2013
  224SOD    SOD22284   1.027   5.023   5.761 -0.4318  0.0945  1.0113
  225SOD    SOD22285   0.065   1.100  10.958 -0.0761  0.2798  0.0218
  226SOD    SOD22286   5.434   2.353   1.240  0.2164 -0.1754  0.7470
  227SOD    SOD22287   3.178   2.124   6.091  0.2629 -0.0351  0.3284
  228SOD    SOD22288   3.925   5.809  13.832 -0.0411  0.2655  0.2018
  229SOD    SOD22289   2.387   4.671   0.413 -0.2144 -0.1480  0.5137
  230SOD    SOD22290   1.909   0.462  11.627  0.5120 -0.2933  0.5243
  231SOD    SOD22291   2.447   5.119  12.563  0.0498 -0.2850  0.1192
  232SOD    SOD22292   6.732   4.999  13.798 -0.2753 -0.1834 -0.0623
  233SOD    SOD22293   2.807   1.553  11.493 -0.3239 -0.1286 -0.0589
  234SOD    SOD22294   4.115   3.552   2.362  0.1013  0.1637  0.0231
  235SOD    SOD22295   2.350   3.419  12.038  0.2056 -0.0505 -0.5338
  236SOD    SOD22296   5.487   2.947  12.339 -0.3208  0.0602 -0.5178
  237SOD    SOD22297   0.045   3.674   1.209 -0.1648  0.2751  0.2638
  238SOD    SOD22298   4.456   5.129  11.983 -0.3036  0.1965  0.2528
  239SOD    SOD22299   1.350   2.409   4.236  0.1368 -0.2652  0.0078
  240SOD    SOD22300   4.638   0.421   0.629  0.3222  0.1294  0.3015
  241SOD    SOD22301   3.286   2.885   0.758 -0.2901  0.2705  0.6594
  242SOD    SOD22302   0.132   0.130   5.968  0.3779  0.6363  0.2878
  243SOD    SOD22303   2.934   0.613  12.236 -0.4148  0.1801  0.2715
  244SOD    SOD22304   1.631   2.469   1.720  0.0291  0.1972  0.1005
  245SOD    SOD22305   4.589   2.008   0.971  0.1328  0.0152 -0.1851
  246SOD    SOD22306   4.483   2.131   5.868  0.3075 -0.1793 -0.2256
  247SOD    SOD22307   1.003   3.641   3.525  0.3485 -0.4334  0.1077
  248SOD    SOD22308   2.450   5.640   2.250  0.0802  0.0795  0.2949
  249SOD    SOD22309   3.342   1.340   3.440 -0.1485 -0.0324 -0.0704
  250SOD    SOD22310   6.489   4.055   3.776  0.0628 -0.0565 -0.3221
  251SOD    SOD22311   1.551   1.714   5.488 -0.1192  0.3852  0.2334
  252SOD    SOD22312   0.831   0.669   1.332  0.0174 -0.1003 -0.5150
  253SOD    SOD22313   3.511   2.577  15.061 -0.6551 -0.2759 -0.3188
  254SOD    SOD22314   4.510   0.568   1.923  0.2913  0.1236  0.4929
  255SOD    SOD22315   2.886   0.266  13.417  0.1721  0.0015 -0.1276
  256SOD    SOD22316   6.769   5.858   5.923  0.1555  0.5436  0.1792
  257SOD    SOD22317   5.392   0.590   1.262 -0.0330  0.0408  0.3576
  258SOD    SOD22318   0.523   3.329  10.791  0.2214 -0.6260 -0.6988
  259SOD    SOD22319   2.642   2.591  10.773 -0.0912  0.1389 -0.3351
  260SOD    SOD22320   4.039   0.246  11.416  0.2948 -0.5156 -0.0730
  261SOD    SOD22321   3.802   1.424  14.177  0.2744  0.1125 -0.7982
  262SOD    SOD22322   5.072   0.384   2.112 -0.1791  0.3237 -0.1047
  263SOD    SOD22323   6.420   3.547  10.432 -0.0021 -0.1725 -0.1111
  264SOD    SOD22324   3.948   2.568   5.519 -0.0879 -0.1203 -0.0572
  265SOD    SOD22325   3.394   1.798   6.165 -0.3667 -0.3739 -0.1353
  266SOD    SOD22326   1.094   6.679  11.597 -0.0691  0.2452 -0.2099
  267SOD    SOD22327   5.886   2.265  16.791  0.1391 -0.0617 -0.2932
  268SOD    SOD22328   2.618   2.766  16.754 -0.3915  0.2796  0.4058
  269SOD    SOD22329   5.785   0.651  12.543  0.1646  0.3206  0.1952
  270CLA    CLA22330   0.419   0.424  14.156 -0.0227 -0.4004  0.1241
  271CLA    CLA22331   2.306   6.432  15.688  0.2008 -0.5774  0.1910
  272CLA    CLA22332   5.329   6.717   5.362  0.1653 -0.0581  0.3918
  273CLA    CLA22333   1.956   5.323  13.113 -0.1817  0.1446  0.1243
  274CLA    CLA22334   3.509   2.738  14.837  0.2870  0.0371 -0.1418
  275CLA    CLA22335   0.278   5.516   4.218 -0.0306  0.0971 -0.2454
  276CLA    CLA22336   0.553   5.588  13.384 -0.1556  0.2208  0.1699
  277CLA    CLA22337   6.112   3.616  17.027 -0.1492  0.0128 -0.1598
  278CLA    CLA22338   4.283   4.574   5.174 -0.0248  0.5546 -0.3498
  279CLA    CLA22339   2.375   2.603  11.799  0.2160  0.0644  0.3065
  280CLA    CLA22340   2.907   2.566  14.604  0.2721  0.1261 -0.6508
  281CLA    CLA22341   5.346   1.396  13.787 -0.2909 -0.1366  0.1194
  282CLA    CLA22342   0.778   0.919   1.804  0.2038 -0.1274  0.0181
  283CLA    CLA22343   3.641   0.879   1.753 -0.4075 -0.1739 -0.0705
  284CLA    CLA22344   4.572   1.254  13.893  0.1244 -0.0561  0.1505
  285CLA    CLA22345   5.104   0.869   2.437 -0.0934 -0.0374  0.1646
  286CLA    CLA22346   2.744   1.286   4.312  0.2142 -0.7042 -0.2521
  287CLA    CLA22347   4.247   0.473  16.077  0.0850  0.1249 -0.1979
  288CLA    CLA22348   0.197   1.021   1.580 -0.1632 -0.3275  0.4646
  289CLA    CLA22349   1.855   0.255   3.957 -0.4373 -0.1938  0.4753
  290CLA    CLA22350   4.837   0.518   0.798  0.1376  0.2268 -0.1674
  291CLA    CLA22351   2.504   2.175   3.564 -0.0260 -0.2369 -0.1309
  292CLA    CLA22352   5.207   0.933   1.639  0.2944  0.3036  0.3165
  293CLA    CLA22353   2.952   3.978   1.298 -0.3459  0.4677  0.0495
  294CLA    CLA22354   4.924   6.209   3.999 -0.1203  0.2642 -0.0666
  295CLA    CLA22355   6.395   4.253  13.477  0.0223  0.5393  0.3744
  296CLA    CLA22356   1.594   1.301   0.608  0.1154  0.2367 -0.1168
  297CLA    CLA22357   5.714   6.325  14.003 -0.1736  0.1370  0.0004
  298CLA    CLA22358   0.578   1.938   1.664 -0.4576 -0.1881 -0.0067
  299CLA    CLA22359   5.976   3.322   0.852 -0.0735  0.1211  0.1215
  300CLA    CLA22360   1.381   5.961   1.863 -0.1906 -0.1381 -0.3058
  301CLA    CLA22361   2.043   6.719  12.008 -0.1949  0.1058  0.0657
  302CLA    CLA22362   4.213   4.626  14.407 -0.1312  0.4477  0.4780
  303CLA    CLA22363   4.798   0.742   0.328  0.0174 -0.4268  0.0332
  304CLA    CLA22364   1.085   5.496  12.181  0.1471  0.0245  0.1039
  305CLA    CLA22365   6.482   5.229  16.259 -0.2558  0.1215  0.1834
  306CLA    CLA22366   5.864   0.745   3.334  0.1788  0.0788  0.1675
  307CLA    CLA22367   0.176   3.527  15.017  0.4515  0.4805  0.0803
  308CLA    CLA22368   2.379   0.449   3.045 -0.4283  0.0988  0.0127
  309CLA    CLA22369   2.424   3.403   2.782  0.0310  0.0751  0.7473
  310CLA    CLA22370   6.570   3.839  14.990  0.0452  0.0208  0.1123
  311CLA    CLA22371   4.796   2.142  14.330 -0.2744 -0.1243 -0.3208
  312CLA    CLA22372   3.022   2.862  16.799  0.1314 -0.4690 -0.2377
  313CLA    CLA22373   3.085   6.200  14.306 -0.1917 -0.2116 -0.1096
  314CLA    CLA22374   5.654   6.374   1.455 -0.0115 -0.2253  0.0053
  315CLA    CLA22375   5.675   1.829  17.049  0.3478  0.3279 -0.1555
  316CLA    CLA22376   1.810   1.456   0.090 -0.2417  0.3920 -0.0421
  317CLA    CLA22377   4.128   2.853   2.566 -0.1245  0.4612 -0.3903
  318CLA    CLA22378   3.220   1.887   0.874 -0.5253  0.1616 -0.1804
  319CLA    CLA22379   5.705   3.194   4.073  0.1533  0.0218  0.0204
  320CLA    CLA22380   3.174   0.612  13.913 -0.2241  0.1924 -0.2967
  321CLA    CLA22381   2.174   5.042  15.521  0.0149 -0.0838 -0.0804
  322CLA    CLA22382   6.201   2.485  16.110  0.0320  0.2607 -0.3790
  323TIP3   OH222383   0.837   2.497   4.571 -0.4607 -0.3915  0.7224
  323TIP3    H122384   0.783   2.575   4.558  2.0107  1.2622 -0.3526
  323TIP3    H222385   0.885   2.516   4.652  0.2743 -0.7243  0.3638
  324TIP3   OH222386   2.863   1.275   1.088 -0.0418  0.5128 -0.2332
  324TIP3    H122387   2.858   1.358   1.040 -0.5352  1.0829  0.7628
  324TIP3    H222388   2.786   1.276   1.146  1.0631  0.3215  1.2838
  325TIP3   OH222389   5.649   6.037  15.910  0.2287  0.2330 -0.4397
  325TIP3    H122390   5.612   6.068  15.993  0.8842  0.7537 -0.3338
  325TIP3    H222391   5.740   6.067  15.911 -0.1782  1.6564 -2.0635
  326TIP3   OH222392   2.821   1.301  14.275  0.5348  0.5664 -0.1988
  326TIP3    H122393   2.883   1.374  14.274  0.2433  0.8147 -0.3712
  326TIP3    H222394   2.819   1.270  14.184  0.6182  0.3796 -0.1364
  327TIP3   OH222395   5.446   3.838  13.202 -0.1402  0.0585 -0.1354
  327TIP3    H122396   5.426   3.925  13.167 -2.3347 -0.2979  0.0827
  327TIP3    H222397   5.487   3.791  13.129  0.9070  1.1837 -0.3102
  328TIP3   OH222398   5.451   3.013  15.782  0.5487  0.3988 -0.7343
  328TIP3    H122399   5.465   3.037  15.874 -2.4435  0.9392 -0.3127
  328TIP3    H222400   5.436   2.919  15.784  5.6098 -0.7318 -1.5219
  329TIP3   OH222401   0.680   2.757  15.567 -0.4873  0.1892  0.3761
  329TIP3    H122402   0.761   2.807  15.554 -1.5200  1.6533 -0.7373
  329TIP3    H222403   0.670   2.707  15.487 -0.2288 -0.7011  0.8892
  330TIP3   OH222404   5.114   6.227   4.490 -0.2516 -0.2000  0.2947
  330TIP3    H122405   5.057   6.151   4.477 -0.4537  0.0690 -0.4368
  330TIP3    H222406   5.121   6.267   4.403  1.6595 -0.6517  0.1842
  331TIP3   OH222407   2.590   5.646  14.400 -0.0770 -1.5035  0.7435
  331TIP3    H122408   2.646   5.712  14.359 -3.4127  0.5540 -0.9548
  331TIP3    H222409   2.565   5.588  14.327 -0.0395 -2.5127  1.5091
  332TIP3   OH222410   0.435   4.686  14.418  0.0352 -0.2862 -0.0400
  332TIP3    H122411   0.367   4.698  14.484 -0.1723  1.3885 -0.5019
  332TIP3    H222412   0.517   4.683  14.468  0.0538  2.6152  0.3068
  333TIP3   OH222413   0.673   4.313   2.252  0.4908  0.9680 -0.1345
  333TIP3    H122414   0.676   4.357   2.167  2.3825 -0.4954 -0.9064
  333TIP3    H222415   0.675   4.385   2.316 -4.1914  2.2979 -1.1366
  334TIP3   OH222416   5.564   2.690  14.910  0.4466  0.2190  0.3495
  334TIP3    H122417   5.489   2.675  14.853  1.3944 -0.4112 -0.7636
  334TIP3    H222418   5.526   2.717  14.994 -0.9826  0.6837 -0.4320
  335TIP3   OH222419   0.427   1.219   6.647  0.1174  0.8498  0.1634
  335TIP3    H122420   0.458   1.292   6.594 -1.6209  0.4654 -1.5035
  335TIP3    H222421   0.350   1.186   6.600 -2.2945  1.1904  3.4365
  336TIP3   OH222422   1.433   0.784  14.805  0.5197 -0.1788  0.2761
  336TIP3    H122423   1.465   0.772  14.894  0.6423  1.6759  0.5235
  336TIP3    H222424   1.364   0.850  14.813 -0.0163 -0.5690 -0.9075
  337TIP3   OH222425   3.637   1.187   0.329  0.0767 -0.2594 -0.1042
  337TIP3    H122426   3.661   1.123   0.262 -1.0746  0.4326 -1.2421
  337TIP3    H222427   3.662   1.272   0.291  0.8576  0.0402  1.0402
  338TIP3   OH222428   1.834   1.558  14.419 -0.4413 -0.0908 -0.3160
  338TIP3    H122429   1.831   1.638  14.471  0.0877 -0.7350  0.7463
  338TIP3    H222430   1.910   1.510  14.453 -0.0791 -0.5398 -1.6919
  339TIP3   OH222431   1.824   4.913  11.421 -0.1465 -0.2696  0.4542
  339TIP3    H122432   1.748   4.959  11.387  0.2303 -0.2845 -0.4234
  339TIP3    H222433   1.893   4.979  11.423  1.0767 -1.2071 -3.0231
  340TIP3   OH222434   0.034   3.919  15.157  0.1726 -0.7814 -0.3469
  340TIP3    H122435   0.047   3.826  15.175 -0.5894 -0.7088  0.7051
  340TIP3    H222436  -0.059   3.926  15.137  0.2898 -0.2904 -0.7258
  341TIP3   OH222437   2.822   0.990  12.086 -0.5879 -0.4775 -0.0867
  341TIP3    H122438   2.802   1.026  12.173  0.1468 -0.7792  0.2105
  341TIP3    H222439   2.800   1.061  12.026 -1.1492 -0.2786  0.3383
  342TIP3   OH222440   4.553   6.320   2.632 -0.2997 -0.0503 -0.5697
  342TIP3    H122441   4.516   6.238   2.667 -0.3899 -0.9588 -2.6111
  342TIP3    H222442   4.478   6.362   2.589  0.1822  0.0684 -1.3003
  343TIP3   OH222443   5.861   0.463   3.217  0.2572 -0.2165  0.4649
  343TIP3    H122444   5.846   0.555   3.241  0.6693 -0.7533  3.1286
  343TIP3    H222445   5.809   0.413   3.280  0.6912 -1.8407 -0.4076
  344TIP3   OH222446   4.070   1.849   1.103 -0.1138 -0.3640 -0.0358
  344TIP3    H122447   4.089   1.787   1.173  0.8876 -2.0152 -1.6873
  344TIP3    H222448   4.095   1.803   1.023 -2.1825  1.0486 -1.5865
  345TIP3   OH222449   1.050   2.546   0.101 -0.2192 -0.0985  0.7974
  345TIP3    H122450   1.094   2.631   0.104 -1.2352  0.5290 -0.6371
  345TIP3    H222451   1.119   2.482   0.117  1.0165  0.9016 -0.2920
  346TIP3   OH222452   3.614   3.525  11.305  0.5482  0.9610 -0.3272
  346TIP3    H122453   3.693   3.528  11.252  1.2190 -1.6988  0.3489
  346TIP3    H222454   3.644   3.542  11.394  0.6217 -1.1071  0.0930
  347TIP3   OH222455   1.850   3.039  14.927 -0.2010 -0.0849 -0.1888
  347TIP3    H122456   1.862   2.962  14.983 -1.9402 -2.1914 -2.4469
  347TIP3    H222457   1.770   3.020  14.877 -0.0408  2.6817 -1.7163
  348TIP3   OH222458   5.271   4.266   3.268  0.8036 -0.1147  0.0620
  348TIP3    H122459   5.290   4.296   3.179 -1.0935  0.8641 -0.0709
  348TIP3    H222460   5.243   4.344   3.314 -1.2780 -1.1183  0.6048
  349TIP3   OH222461   2.293   2.130  15.556  0.4288 -0.0254  0.1298
  349TIP3    H122462   2.199   2.147  15.560  0.1177 -1.1122 -1.4175
  349TIP3    H222463   2.331   2.184  15.625 -1.3974 -0.1110  1.2530
  350TIP3   OH222464   5.094   4.039  15.650 -0.3171 -0.3397  0.6893
  350TIP3    H122465   5.168   4.008  15.703  0.5572  1.3249  0.5320
  350TIP3    H222466   5.118   4.130  15.628 -1.4816 -0.4213 -1.0685
  351TIP3   OH222467   4.663   2.717  12.765 -0.0842 -0.4176  0.0558
  351TIP3    H122468   4.606   2.692  12.693 -2.6878  1.5378  1.2671
  351TIP3    H222469   4.621   2.680  12.843  2.1212 -1.6487  0.7585
  352TIP3   OH222470   1.378   2.641  13.096  0.6370 -0.2799 -0.3688
  352TIP3    H122471   1.437   2.653  13.170 -0.3322  2.3604  0.1219
  352TIP3    H222472   1.404   2.710  13.034  0.6365 -1.6579 -1.9586
  353TIP3   OH222473   4.780   4.982   3.729  0.4527 -0.4190  0.2606
  353TIP3    H122474   4.691   4.947   3.738  0.7154 -1.5921 -1.2738
  353TIP3    H222475   4.820   4.969   3.815 -0.0766 -2.1921  0.2718
  354TIP3   OH222476   0.189   1.300   3.846  0.1695  0.3203  0.4419
  354TIP3    H122477   0.220   1.384   3.811 -0.7944  0.2106 -0.7579
  354TIP3    H222478   0.260   1.270   3.903  1.1612  1.2485 -0.2519
  355TIP3   OH222479   5.819   4.082   2.471 -0.3636 -0.4986  0.4399
  355TIP3    H122480   5.885   4.054   2.535 -0.5991 -2.9262 -0.2485
  355TIP3    H222481   5.745   4.024   2.487 -1.6297  0.9254 -0.0401
  356TIP3   OH222482   2.865   1.538  13.431  0.0989  0.6277  0.0802
  356TIP3    H122483   2.826   1.467  13.482  1.5441  0.4289  0.9678
  356TIP3    H222484   2.791   1.579  13.386 -0.8194 -1.1811 -0.1503
  357TIP3   OH222485   6.687   5.193   6.487 -0.0702 -0.3848  0.2112
  357TIP3    H122486   6.734   5.112   6.507  0.2269  0.2831  2.5249
  357TIP3    H222487   6.756   5.259   6.475 -0.3132 -0.3913 -1.5016
  358TIP3   OH222488   4.342   2.859   2.807  0.4905 -0.1352  0.1049
  358TIP3    H122489   4.290   2.848   2.886 -0.7480  0.9368 -0.5081
  358TIP3    H222490   4.281   2.840   2.735  1.6779 -1.4187 -0.5977
  359TIP3   OH222491   3.009   2.397  12.008  0.0439  0.1432 -0.7053
  359TIP3    H122492   3.026   2.312  12.049 -0.8518 -1.3211 -3.1556
  359TIP3    H222493   3.095   2.429  11.984  0.4190  0.1157  0.5104
  360TIP3   OH222494   4.532   1.678  10.912  0.1273  0.0511  0.4930
  360TIP3    H122495   4.550   1.664  11.005  1.8221 -2.2531 -0.0948
  360TIP3    H222496   4.463   1.615  10.891  1.9897 -1.8271 -0.4091
  361TIP3   OH222497   3.958   5.568   4.346  0.3791  0.0906 -0.1054
  361TIP3    H122498   3.985   5.591   4.257 -1.0638  1.3916 -0.2605
  361TIP3    H222499   3.912   5.646   4.378 -0.8487 -1.0535  1.0587
  362TIP3   OH222500   5.106   2.789  15.827  0.3168 -0.5059  0.0991
  362TIP3    H122501   5.191   2.754  15.799 -1.4214 -4.4978 -0.8548
  362TIP3    H222502   5.056   2.799  15.746 -0.9384 -0.7449  0.8163
  363TIP3   OH222503   6.114   2.868  16.337 -0.2966  0.0971 -0.5926
  363TIP3    H122504   6.183   2.808  16.309 -0.5969 -0.8792  0.6038
  363TIP3    H222505   6.045   2.859  16.271 -0.7942 -1.7754  0.1028
  364TIP3   OH222506   5.287   5.339  13.569 -0.2232 -0.6400  0.4647
  364TIP3    H122507   5.312   5.429  13.551 -0.0052 -0.3854  1.8642
  364TIP3    H222508   5.335   5.317  13.649 -0.1710 -2.0426  0.0799
  365TIP3   OH222509   3.731   4.104   2.355  0.3268  0.0011  0.4303
  365TIP3    H122510   3.660   4.158   2.321  1.1392  0.8620  0.0417
  365TIP3    H222511   3.715   4.098   2.449 -1.6196 -1.9052  0.0489
  366TIP3   OH222512   5.860   0.397   5.819 -0.4258  0.6272 -0.0868
  366TIP3    H122513   5.921   0.410   5.891 -0.1497 -1.3320  0.0927
  366TIP3    H222514   5.802   0.327   5.848  0.2434 -0.8439 -2.0505
  367TIP3   OH222515   5.313   1.747   2.957 -0.2865 -0.0713  0.0375
  367TIP3    H122516   5.260   1.676   2.995 -0.1629 -0.8667 -1.2114
  367TIP3    H222517   5.309   1.817   3.022 -1.5938 -0.6886  0.6665
  368TIP3   OH222518   3.984   3.473  16.139 -0.3725 -0.2331  0.0377
  368TIP3    H122519   3.991   3.398  16.198 -1.2350 -0.8013 -0.5578
  368TIP3    H222520   3.898   3.512  16.158 -0.2880  0.1001 -0.2325
  369TIP3   OH222521   3.517   4.542   0.267  0.5348 -0.4047 -0.2150
  369TIP3    H122522   3.502   4.600   0.342  0.1283  2.1195 -2.1171
  369TIP3    H222523   3.435   4.545   0.218  1.5389 -0.0459 -1.9668
  370TIP3   OH222524   0.999   2.153  13.507  0.3518 -0.3579  0.5647
  370TIP3    H122525   1.055   2.078  13.492  1.0962  0.3839 -0.4876
  370TIP3    H222526   0.955   2.168  13.423 -0.4129 -0.1059  0.9937
  371TIP3   OH222527   3.651   1.894  14.173 -0.1829 -0.0079 -0.1039
  371TIP3    H122528   3.599   1.970  14.147 -0.2285  0.0867  0.2485
  371TIP3    H222529   3.593   1.820  14.160  0.0865 -0.0629 -1.0904
  372TIP3   OH222530   2.253   0.348  15.593 -0.0277 -0.0302  0.0399
  372TIP3    H122531   2.161   0.344  15.567 -0.1473 -1.7319  0.6042
  372TIP3    H222532   2.283   0.257  15.591  1.4375  0.4054  0.5923
  373TIP3   OH222533   4.285   5.498   3.185  0.1448  0.2892 -0.3877
  373TIP3    H122534   4.346   5.481   3.257  1.9735  0.5427 -1.8121
  373TIP3    H222535   4.242   5.414   3.170 -0.1591  0.2005  0.8903
  374TIP3   OH222536   3.872   3.943  11.398  0.2079 -0.1545  0.0724
  374TIP3    H122537   3.964   3.944  11.422  0.2906 -0.4151 -0.2186
  374TIP3    H222538   3.860   3.860  11.352  0.2164  0.5941 -1.3630
  375TIP3   OH222539   5.020   3.425  16.463 -0.0556 -1.1264  0.1698
  375TIP3    H122540   4.933   3.401  16.493 -0.1771 -0.0329  0.7429
  375TIP3    H222541   5.010   3.438  16.369 -0.9773  0.7909  0.4829
  376TIP3   OH222542   5.139   5.706   4.202 -0.3754  0.7668  0.4168
  376TIP3    H122543   5.054   5.735   4.234 -0.5091 -0.3398  1.1130
  376TIP3    H222544   5.120   5.652   4.126 -0.5020 -1.2278  1.7878
  377TIP3   OH222545   5.521   1.934  11.332  0.1575  0.2161 -0.2404
  377TIP3    H122546   5.477   1.950  11.249  0.6061 -0.7536 -0.6931
  377TIP3    H222547   5.517   1.839  11.343  0.2375  0.3163  0.7766
  378TIP3   OH222548   4.001   5.079   3.312 -0.2652 -0.2594  0.0693
  378TIP3    H122549   4.049   5.100   3.392  1.8183  0.4713 -1.2857
  378TIP3    H222550   3.992   4.984   3.314  1.4672 -0.4523  0.3011
  379TIP3   OH222551   4.957   4.609   3.682 -0.0219 -0.1465 -0.1503
  379TIP3    H122552   5.016   4.653   3.743 -0.6373 -0.6487  0.8352
  379TIP3    H222553   5.008   4.536   3.648  0.6917  0.7509 -1.0924
  380TIP3   OH222554   2.608   0.318  16.051  0.2195 -0.0249 -0.1400
  380TIP3    H122555   2.633   0.254  15.986 -1.6390  0.5921 -1.5687
  380TIP3    H222556   2.598   0.268  16.132 -1.4033 -1.6243 -1.2586
  381TIP3   OH222557   6.075   0.678  15.234 -0.0931  0.0212 -0.0054
  381TIP3    H122558   6.021   0.608  15.271 -1.6994  0.2749 -1.7197
  381TIP3    H222559   6.027   0.759  15.255 -0.9966  0.1901 -2.3228
  382TIP3   OH222560   0.212   6.698   5.054  1.0573  0.3740  0.0902
  382TIP3    H122561   0.239   6.620   5.101  0.5157  0.3172  0.3177
  382TIP3    H222562   0.159   6.665   4.981  0.3458  0.5416  0.5133
  383TIP3   OH222563   4.756   3.928   0.079 -0.3900  0.0362 -0.5153
  383TIP3    H122564   4.696   3.853   0.079  0.8136 -0.9710  0.0003
  383TIP3    H222565   4.773   3.945  -0.014 -0.4188 -0.5768 -0.6432
  384TIP3   OH222566   4.254   1.367   6.437 -0.4340  0.2964  0.2711
  384TIP3    H122567   4.324   1.411   6.486  1.4870 -1.0145 -1.1505
  384TIP3    H222568   4.187   1.350   6.503  0.7839  1.1712  1.8269
  385TIP3   OH222569   0.577   3.214  14.241  0.4366  0.0255 -0.5537
  385TIP3    H122570   0.596   3.289  14.186  1.4749 -0.8786 -1.4748
  385TIP3    H222571   0.642   3.218  14.311  0.4770  0.0086 -0.5894
  386TIP3   OH222572   0.260   2.640  12.043  0.2522 -0.3122  0.3522
  386TIP3    H122573   0.253   2.572  11.977  0.2806  1.3004 -1.3952
  386TIP3    H222574   0.239   2.596  12.125 -0.9243 -2.1404 -0.8611
  387TIP3   OH222575   3.828   4.866  12.948 -0.3346 -0.3073  0.4613
  387TIP3    H122576   3.861   4.822  12.869  0.0029 -0.6701  0.8010
  387TIP3    H222577   3.888   4.939  12.962 -0.0047 -0.6317  0.7546
  388TIP3   OH222578   5.086   0.450   5.150  0.4550  0.0595  0.3058
  388TIP3    H122579   5.054   0.360   5.138  1.1042 -0.1361 -0.0415
  388TIP3    H222580   5.160   0.441   5.210  0.6567  0.3345  0.1012
  389TIP3   OH222581   0.137   2.967   1.563 -0.0512 -0.3174 -0.6151
  389TIP3    H122582   0.141   2.914   1.643 -1.3144  0.2625 -0.1436
  389TIP3    H222583   0.227   2.965   1.529  0.1807 -1.8508 -0.0320
  390TIP3   OH222584   5.428   1.007  16.907  0.0867 -0.2063 -0.1563
  390TIP3    H122585   5.412   0.923  16.951  1.9060 -0.2549  0.4916
  390TIP3    H222586   5.343   1.031  16.871 -0.4545 -2.4458 -0.5698
  391TIP3   OH222587   6.675   6.782   3.495 -0.0321 -0.1750  0.4640
  391TIP3    H122588   6.733   6.708   3.474 -0.3242 -0.1979 -0.2525
  391TIP3    H222589   6.732   6.859   3.492  0.2923 -0.3620  1.2949
  392TIP3   OH222590   2.514   5.261  14.564  0.5283 -0.5841  0.0400
  392TIP3    H122591   2.470   5.296  14.486 -0.3790  0.1495  0.8573
  392TIP3    H222592   2.576   5.329  14.589  1.1160 -0.9999 -0.2768
  393TIP3   OH222593   6.221   2.989   0.690  0.3361 -0.8081  0.0487
  393TIP3    H122594   6.227   2.901   0.652 -0.4960 -0.8199 -0.0789
  393TIP3    H222595   6.265   2.981   0.775  1.6935 -0.9278 -0.6456
  394TIP3   OH222596   6.529   0.329  16.040 -0.0725 -0.1928 -0.1869
  394TIP3    H122597   6.523   0.298  15.949 -2.4867  1.8513 -0.8338
  394TIP3    H222598   6.587   0.404  16.036  0.5851 -0.6719  0.1753
  395TIP3   OH222599   5.562   0.921   2.115  0.0738  0.0027  0.5632
  395TIP3    H122600   5.491   0.974   2.153  0.3276 -1.2478  3.0429
  395TIP3    H222601   5.532   0.830   2.126  1.7263 -0.5273  1.0619
  396TIP3   OH222602   6.408   6.540  14.364 -0.3713  0.0765  0.1195
  396TIP3    H122603   6.419   6.633  14.386  1.5133 -0.1690  0.4056
  396TIP3    H222604   6.371   6.500  14.443 -0.7423  0.4953  0.1610
  397TIP3   OH222605   4.828   5.537  14.168 -0.2059  0.4268  0.5875
  397TIP3    H122606   4.835   5.627  14.136  2.1073 -0.1092 -0.6046
  397TIP3    H222607   4.801   5.486  14.092  0.1289 -0.1228  0.8294
  398TIP3   OH222608   2.841   4.774   0.459 -0.8331  0.1082  0.2411
  398TIP3    H122609   2.883   4.828   0.392  0.8206  0.4041  1.4642
  398TIP3    H222610   2.907   4.710   0.484 -2.1483 -1.3363  0.1423
  399TIP3   OH222611   2.834   4.257   0.046  0.9315 -0.6675 -0.1615
  399TIP3    H122612   2.884   4.331   0.080  1.0163 -0.6782 -0.2651
  399TIP3    H222613   2.814   4.204   0.124  0.3631 -0.2320 -0.0030
  400TIP3   OH222614   3.521   5.091   3.409  0.1392  0.1715 -0.5458
  400TIP3    H122615   3.609   5.115   3.381  0.8793  0.4211  1.7474
  400TIP3    H222616   3.507   5.002   3.375  2.3777 -0.9423  1.1717
  401TIP3   OH222617   1.742   0.693  14.186  0.0323 -0.4626  0.4191
  401TIP3    H122618   1.744   0.669  14.279 -1.4413 -0.6067  0.4383
  401TIP3    H222619   1.802   0.631  14.144 -1.6668 -2.4986  0.8503
  402TIP3   OH222620   5.221   2.970   6.458  0.5148 -0.5870 -0.4467
  402TIP3    H122621   5.191   3.048   6.505  0.0177  0.1984 -1.9670
  402TIP3    H222622   5.142   2.916   6.450  0.9188 -1.3924  0.8346
  403TIP3   OH222623   2.396   6.454  16.955  0.0744 -0.0589 -0.0952
  403TIP3    H122624   2.445   6.488  17.029 -0.8787  0.3810  0.3500
  403TIP3    H222625   2.363   6.532  16.910 -0.6091 -0.3506 -0.1122
  404TIP3   OH222626   1.500   6.581  11.905 -0.3741 -0.2461  0.0539
  404TIP3    H122627   1.426   6.523  11.922 -2.4419  1.8090 -1.2409
  404TIP3    H222628   1.542   6.544  11.827 -1.0606 -0.5677 -0.1735
  405TIP3   OH222629   2.416   0.807  11.537  0.4433 -0.1962  0.1104
  405TIP3    H122630   2.391   0.798  11.629 -0.0342  1.1526  0.1299
  405TIP3    H222631   2.334   0.799  11.488  0.5462  0.1475 -0.1222
  406TIP3   OH222632   4.476   4.033   6.260 -0.4674  0.5311  0.0829
  406TIP3    H122633   4.447   4.026   6.170  0.5989  0.6137 -0.2852
  406TIP3    H222634   4.455   4.122   6.286 -3.2385 -0.2369  0.8455
  407TIP3   OH222635   1.021   3.465   5.175 -0.1086  0.2790  0.1961
  407TIP3    H122636   1.009   3.541   5.232 -1.2190 -0.1472  0.5638
  407TIP3    H222637   1.050   3.502   5.092 -1.5360  1.1999  0.0769
  408TIP3   OH222638   1.090   1.969  16.235 -0.1634  0.1804 -0.2823
  408TIP3    H122639   1.003   1.935  16.212 -0.2844  0.2761  0.0228
  408TIP3    H222640   1.075   2.062  16.252 -0.0592  0.1388  0.0581
  409TIP3   OH222641   3.399   6.268  13.792 -0.3843 -0.5998 -0.1513
  409TIP3    H122642   3.366   6.254  13.880 -1.3268  0.0495 -0.3910
  409TIP3    H222643   3.460   6.341  13.800  0.8355 -1.6142  0.2373
  410TIP3   OH222644   5.659   6.029  14.067  0.1823  0.1116 -0.0678
  410TIP3    H122645   5.666   6.124  14.054 -0.2620  0.1661  0.0761
  410TIP3    H222646   5.593   6.019  14.135  0.4440 -0.2917  0.1261
  411TIP3   OH222647   4.144   4.010   0.985  0.0387 -0.1437 -0.3465
  411TIP3    H122648   4.209   4.002   1.055 -0.7743 -0.0983  0.4396
  411TIP3    H222649   4.121   3.920   0.963  0.1727 -0.1544 -0.4469
  412TIP3   OH222650   4.885   6.303  14.537  0.6113 -0.4687  0.1182
  412TIP3    H122651   4.928   6.375  14.492  0.8179  0.0864  1.1696
  412TIP3    H222652   4.931   6.225  14.507  1.5893  0.0121  0.3302
  413TIP3   OH222653   0.897   4.564   0.877 -0.3785 -0.2365  0.1311
  413TIP3    H122654   0.921   4.502   0.946  0.2096 -1.3444 -1.0335
  413TIP3    H222655   0.972   4.564   0.818 -2.5781 -2.8188 -2.9657
  414TIP3   OH222656   5.845   2.747   2.840 -0.9872  0.7111  0.2215
  414TIP3    H122657   5.869   2.746   2.933  0.2940  1.0474 -0.0913
  414TIP3    H222658   5.761   2.701   2.837  0.3504 -2.0199  1.1707
  415TIP3   OH222659   2.584   5.096   6.016 -0.4709 -0.2236  0.2704
  415TIP3    H122660   2.662   5.074   5.965 -0.1328 -0.6232  0.9501
  415TIP3    H222661   2.578   5.027   6.082 -1.1305  0.0720  0.5293
  416TIP3   OH222662   3.453   3.797  13.275 -0.4071  0.3340 -0.2932
  416TIP3    H122663   3.530   3.742  13.291 -1.1363 -0.6223  0.0230
  416TIP3    H222664   3.485   3.868  13.220  0.6058 -0.2913 -0.5345
  417TIP3   OH222665   4.383   4.833  11.561  0.3759 -0.3033 -0.5458
  417TIP3    H122666   4.347   4.897  11.623  1.6851 -0.7211  0.7121
  417TIP3    H222667   4.307   4.804  11.510 -1.2070 -1.4032  2.1855
  418TIP3   OH222668   5.815   5.075   4.152  0.0108  0.6386 -0.4018
  418TIP3    H122669   5.824   5.023   4.232  0.5605 -1.5837 -1.8187
  418TIP3    H222670   5.827   5.166   4.181  2.5283 -0.2456  1.7082
  419TIP3   OH222671   4.148   0.394   5.881  0.3000  0.1959  0.2243
  419TIP3    H122672   4.196   0.347   5.949 -1.5483  0.3682  1.7196
  419TIP3    H222673   4.198   0.475   5.867  1.0148 -0.1156  0.9370
  420TIP3   OH222674   1.607   4.698   0.037  0.3365 -0.1186 -0.6379
  420TIP3    H122675   1.517   4.674   0.057  1.0536 -3.0851 -0.5473
  420TIP3    H222676   1.660   4.630   0.078  2.5341  0.4844 -2.2647
  421TIP3   OH222677   2.577   5.452   2.246 -0.6999 -0.2585 -0.8566
  421TIP3    H122678   2.526   5.374   2.226  0.2942 -1.6135  1.5133
  421TIP3    H222679   2.661   5.439   2.202 -0.8698 -0.0692 -1.2380
  422TIP3   OH222680   5.092   6.730   0.189  0.8655 -0.1125 -0.4128
  422TIP3    H122681   5.000   6.710   0.173  0.9529 -0.1979 -0.8383
  422TIP3    H222682   5.099   6.824   0.172  1.3533 -0.5293 -2.9653
  423TIP3   OH222683   6.296   5.946   4.817 -0.6292 -0.2312 -0.4898
  423TIP3    H122684   6.361   5.879   4.839 -0.6212  0.4545  1.9082
  423TIP3    H222685   6.224   5.931   4.878 -1.2570  1.0567 -0.8667
  424TIP3   OH222686   0.528   5.292   0.556 -0.0700  0.2491  0.4799
  424TIP3    H122687   0.538   5.197   0.546  1.4509  0.4668 -0.2766
  424TIP3    H222688   0.529   5.306   0.651 -2.0940 -0.6258  0.6919
  425TIP3   OH222689   1.308   5.214   1.079  0.7938 -0.0476 -0.0005
  425TIP3    H122690   1.213   5.217   1.094  0.9966  0.0254  1.3381
  425TIP3    H222691   1.321   5.136   1.024  0.0713 -0.7760  0.8223
  426TIP3   OH222692   0.946   1.271   3.336  0.2222  0.2060 -0.1321
  426TIP3    H122693   0.971   1.230   3.419 -1.3257 -0.2368  0.1629
  426TIP3    H222694   0.852   1.290   3.347  0.1238  0.6441 -1.5800
  427TIP3   OH222695   0.436   2.751  16.195  0.5418 -0.2080 -0.1457
  427TIP3    H122696   0.462   2.738  16.104  2.4315 -1.0706  0.4729
  427TIP3    H222697   0.434   2.846  16.205 -0.1784 -0.0873 -1.1902
  428TIP3   OH222698   5.823   6.628  15.077  0.4203 -0.1781  0.0997
  428TIP3    H122699   5.848   6.643  15.168 -0.9080  1.2257  0.2826
  428TIP3    H222700   5.765   6.552  15.080 -0.6700  0.6416  0.6580
  429TIP3   OH222701   2.728   2.868   3.328  0.0259  0.3143 -0.1247
  429TIP3    H122702   2.674   2.941   3.359 -0.3413  0.0833 -0.2191
  429TIP3    H222703   2.812   2.881   3.372  0.5352  1.7529 -1.4463
  430TIP3   OH222704   4.049   5.674  14.501 -0.1484  0.2095 -0.6588
  430TIP3    H122705   4.091   5.676  14.587 -0.3315 -0.4335 -0.5437
  430TIP3    H222706   4.121   5.663  14.439 -0.1176 -0.6941 -0.4773
  431TIP3   OH222707   3.482   0.885  15.387  0.1919 -0.0066  0.2526
  431TIP3    H122708   3.420   0.877  15.315 -0.3171  0.5113  0.6162
  431TIP3    H222709   3.567   0.865  15.349  0.1882  1.8970 -0.9007
  432TIP3   OH222710   3.379   2.689   4.494 -0.0475  0.0251 -0.2199
  432TIP3    H122711   3.342   2.773   4.521 -0.1266 -0.3037  0.7043
  432TIP3    H222712   3.430   2.659   4.569  0.6950 -0.3459 -0.8628
  433TIP3   OH222713   5.821   2.479  15.779  0.0121  0.0144 -0.2818
  433TIP3    H122714   5.807   2.421  15.853 -2.0211  0.0045 -0.6155
  433TIP3    H222715   5.830   2.566  15.817  1.7469 -0.2954  0.1198
  434TIP3   OH222716   3.383   2.108   1.307 -0.2170  0.0202 -0.1095
  434TIP3    H122717   3.437   2.125   1.230 -0.4159 -0.4230 -0.3538
  434TIP3    H222718   3.425   2.033   1.349 -1.2141 -0.9981 -0.8706
  435TIP3   OH222719   1.430   2.552  15.353  0.2074 -0.3038 -0.4597
  435TIP3    H122720   1.359   2.488  15.349  1.1391 -1.5248  0.8555
  435TIP3    H222721   1.388   2.636  15.369 -1.0267 -0.6869 -1.6023
  436TIP3   OH222722   6.334   2.679   5.417 -0.1439 -0.0767  0.4112
  436TIP3    H122723   6.393   2.623   5.366 -1.6314 -0.0425 -1.4508
  436TIP3    H222724   6.328   2.760   5.366 -1.9793 -0.1855  0.3756
  437TIP3   OH222725   1.831   1.725   0.953 -0.0870  0.2887 -0.4512
  437TIP3    H122726   1.795   1.703   0.867 -1.5278 -0.5243  0.3142
  437TIP3    H222727   1.781   1.802   0.980 -1.0034 -0.6027  0.4537
  438TIP3   OH222728   2.915   5.675   2.450 -0.4806 -0.8764  0.7056
  438TIP3    H122729   2.876   5.589   2.438 -1.8259 -0.0439 -1.5436
  438TIP3    H222730   2.876   5.708   2.532  0.4866 -2.5500  1.9008
  439TIP3   OH222731   5.427   2.470  16.282  0.1143 -0.0347  0.4238
  439TIP3    H122732   5.359   2.507  16.338 -1.6948 -0.3613 -1.4474
  439TIP3    H222733   5.408   2.376  16.280  0.0426 -0.0131 -0.8132
  440TIP3   OH222734   5.061   1.611   0.660 -0.0058 -0.0069 -0.1952
  440TIP3    H122735   5.103   1.633   0.743  1.0117  0.0153 -0.6994
  440TIP3    H222736   5.065   1.692   0.609 -1.3791  0.2210  0.0289
  441TIP3   OH222737   1.203   4.154   3.111  0.5371  0.0497  0.2268
  441TIP3    H122738   1.270   4.169   3.046 -0.6293  0.2974 -0.9572
  441TIP3    H222739   1.126   4.125   3.061 -1.6305  3.8187  0.9812
  442TIP3   OH222740   1.401   6.412   3.055  0.3486 -0.2642  0.4173
  442TIP3    H122741   1.412   6.371   2.969 -0.4299  0.2415  0.0623
  442TIP3    H222742   1.310   6.395   3.078  0.9577 -1.8040  1.9134
  443TIP3   OH222743   5.263   4.134  15.991  0.4033  0.5622 -0.1680
  443TIP3    H122744   5.295   4.050  15.958 -0.3823 -0.2015  0.9187
  443TIP3    H222745   5.171   4.118  16.012  0.3935  1.5251  0.6120
  444TIP3   OH222746   6.587   5.143  13.696  0.6499  0.2005  0.2688
  444TIP3    H122747   6.540   5.158  13.614  0.0239  0.4597  0.6703
  444TIP3    H222748   6.534   5.185  13.763  0.7692 -0.6365  0.9135
  445TIP3   OH222749   4.232   3.993  12.842 -0.2640  0.2898  0.3893
  445TIP3    H122750   4.164   4.059  12.854 -0.8374 -0.1272 -0.4779
  445TIP3    H222751   4.244   3.954  12.929 -0.3980  1.0688  0.7602
  446TIP3   OH222752   2.960   2.042   6.011  0.2922  0.0294 -0.1043
  446TIP3    H122753   2.912   2.011   6.087  1.9185  1.0325  1.4339
  446TIP3    H222754   2.909   2.116   5.979 -0.0906  0.0002  0.4289
  447TIP3   OH222755   3.264   5.398   5.873 -0.3344 -0.1518 -0.2332
  447TIP3    H122756   3.328   5.390   5.803  1.2596  2.2742  0.8424
  447TIP3    H222757   3.269   5.314   5.919  0.8625 -0.6189 -1.1662
  448TIP3   OH222758   4.724   3.711   2.635  0.0426 -0.6648 -0.2307
  448TIP3    H122759   4.753   3.729   2.545 -0.3507  0.0587 -0.2242
  448TIP3    H222760   4.693   3.620   2.633 -0.8085 -0.3812 -1.0684
  449TIP3   OH222761   0.700   1.003   2.425  0.1225  0.0841 -0.4214
  449TIP3    H122762   0.789   1.032   2.446 -0.0338  1.1111 -1.1360
  449TIP3    H222763   0.668   1.066   2.360 -0.7234 -0.9095 -1.0061
  450TIP3   OH222764   0.593   3.229  11.373 -1.2236  0.4198 -0.3663
  450TIP3    H122765   0.568   3.307  11.423  1.3193  1.1687 -0.1057
  450TIP3    H222766   0.583   3.156  11.435  2.0076  1.3365  1.5141
  451TIP3   OH222767   5.383   2.002  16.117  0.6549 -0.1107 -0.3418
  451TIP3    H122768   5.298   2.025  16.079 -0.7040 -1.4793  1.6963
  451TIP3    H222769   5.409   1.922  16.072  0.6331  0.0337 -0.6135
  452TIP3   OH222770   3.989   5.423  16.824 -0.7311 -0.0435 -0.8670
  452TIP3    H122771   3.930   5.483  16.869 -0.0435  1.6090 -2.0325
  452TIP3    H222772   3.939   5.394  16.747 -1.1202 -1.1582 -0.2270
  453TIP3   OH222773   1.285   0.608   1.541  1.0026 -0.2163  0.6510
  453TIP3    H122774   1.222   0.602   1.613 -0.9145  1.4248 -0.7670
  453TIP3    H222775   1.340   0.530   1.551 -0.9396 -1.4888  2.2586
  454TIP3   OH222776   6.341   4.154  16.868 -0.1471  0.1055  0.3774
  454TIP3    H122777   6.353   4.229  16.926  1.3984  0.4357 -0.3219
  454TIP3    H222778   6.426   4.109  16.868 -0.3417 -0.3239 -1.0096
  455TIP3   OH222779   0.838   5.945   3.383 -0.0761  0.5848 -0.3601
  455TIP3    H122780   0.901   6.011   3.355  0.8096 -0.2731 -0.4471
  455TIP3    H222781   0.776   5.939   3.311  0.6494  0.3193 -0.9764
  456TIP3   OH222782   6.513   2.243  13.401  0.3951  0.4433 -0.2790
  456TIP3    H122783   6.500   2.166  13.345 -2.8338  0.1749  0.6800
  456TIP3    H222784   6.527   2.315  13.339  0.3943 -0.4130 -1.3009
  457TIP3   OH222785   5.799   5.740  16.130  0.0122 -0.3541  0.6412
  457TIP3    H122786   5.724   5.725  16.073  0.3388  1.1361 -0.2489
  457TIP3    H222787   5.845   5.657  16.132 -1.1327 -1.0163  0.4236
  458TIP3   OH222788   6.745   2.102   1.527  0.0549  0.0122 -0.1562
  458TIP3    H122789   6.702   2.181   1.495  2.0283  1.7106  1.1488
  458TIP3    H222790   6.799   2.073   1.454 -1.0831 -0.5067 -0.8269
  459TIP3   OH222791   5.647   3.882   4.348 -0.3572 -0.4719 -0.3910
  459TIP3    H122792   5.560   3.852   4.376 -0.1021  0.2309  1.3188
  459TIP3    H222793   5.706   3.814   4.380 -0.0095  0.5879  1.3095
  460TIP3   OH222794   6.359   5.395  15.704  0.0452  0.3529 -0.5893
  460TIP3    H122795   6.359   5.407  15.799 -0.3906  1.0945 -0.6778
  460TIP3    H222796   6.285   5.338  15.687 -0.5849  1.1512 -0.5855
  461TIP3   OH222797   0.769   0.982  12.878 -0.1833 -0.5720 -0.5112
  461TIP3    H122798   0.765   0.974  12.974 -0.3152  0.2464 -0.4443
  461TIP3    H222799   0.863   0.986  12.859 -0.1350 -1.3084 -0.4765
  462TIP3   OH222800   5.886   6.400  12.252  0.3021  0.5513 -0.5252
  462TIP3    H122801   5.888   6.308  12.277  0.6132  0.1977 -1.7777
  462TIP3    H222802   5.871   6.447  12.334 -0.7947 -0.6659  0.0019
  463TIP3   OH222803   4.196   5.848  16.733  0.0727 -0.1612  0.0493
  463TIP3    H122804   4.200   5.943  16.721  1.4901 -0.3363 -1.0416
  463TIP3    H222805   4.108   5.824  16.705 -0.5568  0.8995  1.0301
  464TIP3   OH222806   3.927   5.414   3.327 -0.4410  0.4006  0.4616
  464TIP3    H122807   3.946   5.334   3.278  2.0766  0.9848  0.3565
  464TIP3    H222808   3.894   5.383   3.412 -0.0705 -0.7457  0.2038
  465TIP3   OH222809   5.501   0.925  15.359  0.2765 -0.2723  0.3282
  465TIP3    H122810   5.446   0.994  15.322  0.6900  0.3158  0.7751
  465TIP3    H222811   5.587   0.941  15.321 -0.5680 -3.7219 -3.7700
  466TIP3   OH222812   4.849   6.606   2.300 -0.1931  0.2346 -1.1187
  466TIP3    H122813   4.850   6.695   2.263  0.6784 -0.0199 -1.7246
  466TIP3    H222814   4.899   6.613   2.381 -0.4818  0.3796 -0.9497
  467TIP3   OH222815   4.305   4.823  14.861 -0.0522 -0.4429 -0.0099
  467TIP3    H122816   4.399   4.806  14.854  0.3142  1.5717 -0.4678
  467TIP3    H222817   4.268   4.793  14.778  0.0611 -1.8135  0.4128
  468TIP3   OH222818   1.016   1.493  14.446 -0.4633 -0.1537  0.0347
  468TIP3    H122819   1.079   1.422  14.449 -1.1492 -0.8007 -0.4667
  468TIP3    H222820   1.024   1.537  14.531 -1.2291 -1.8916  1.0644
  469TIP3   OH222821   3.707   0.625   3.729 -0.3077  0.5202 -0.3157
  469TIP3    H122822   3.713   0.716   3.699  0.8941  0.3908 -0.5195
  469TIP3    H222823   3.703   0.574   3.649 -1.1713  0.3965 -0.1992
  470TIP3   OH222824   6.539   5.457   6.650  0.3052  0.1878  0.0140
  470TIP3    H122825   6.555   5.423   6.738 -0.2832  1.4497  0.6330
  470TIP3    H222826   6.621   5.499   6.624  0.7394 -0.8675 -0.3881
  471TIP3   OH222827   4.349   0.322   0.896 -0.5085  0.8183  0.3029
  471TIP3    H122828   4.265   0.276   0.888  0.6718 -1.5802  0.9045
  471TIP3    H222829   4.391   0.282   0.972  1.0775  2.1989  0.2008
  472TIP3   OH222830   3.308   4.263   5.392  0.8237 -0.0590  0.6578
  472TIP3    H122831   3.306   4.351   5.430  0.4658 -0.1256  0.7986
  472TIP3    H222832   3.331   4.276   5.300  0.7715  0.1822  0.6793
  473TIP3   OH222833   2.225   0.458   4.934  0.5165  0.3683  0.0783
  473TIP3    H122834   2.183   0.422   5.012 -0.7314 -0.4174 -0.9131
  473TIP3    H222835   2.283   0.526   4.968  0.5792 -0.4564  1.7485
  474TIP3   OH222836   4.764   2.942   3.224 -0.1972 -0.6566  0.2493
  474TIP3    H122837   4.671   2.929   3.205  0.2983 -0.5594 -2.7855
  474TIP3    H222838   4.766   3.021   3.279 -1.8162  1.4061 -2.3693
  475TIP3   OH222839   4.575   2.938   6.603 -0.2755  0.2534  0.0964
  475TIP3    H122840   4.549   2.847   6.612 -2.0334  0.8344  1.2656
  475TIP3    H222841   4.669   2.938   6.621 -0.5087 -1.1278  1.5116
  476TIP3   OH222842   5.012   1.534  13.800 -0.0657 -0.2084  0.1052
  476TIP3    H122843   5.000   1.542  13.895 -1.7166 -0.3754 -0.0473
  476TIP3    H222844   5.106   1.535  13.787  0.1996 -0.5268  1.7788
  477TIP3   OH222845   2.103   1.869  16.908 -0.3830 -0.2944  0.0659
  477TIP3    H122846   2.101   1.804  16.837  0.2675 -0.0921 -0.1486
  477TIP3    H222847   2.190   1.908  16.901 -0.7426  0.5420  0.2509
  478TIP3   OH222848   0.148   0.496  12.506  0.3837  0.0861  0.0816
  478TIP3    H122849   0.237   0.489  12.470  0.0314  0.6551 -0.9366
  478TIP3    H222850   0.135   0.590  12.519 -0.1343  0.0211  0.0491
  479TIP3   OH222851   4.213   1.085  11.720  0.0752  0.4289 -0.9412
  479TIP3    H122852   4.138   1.054  11.670 -0.0236 -0.9025 -0.0297
  479TIP3    H222853   4.184   1.169  11.757 -0.4358  0.6126 -1.7278
  480TIP3   OH222854   1.605   3.106   0.113 -0.1697  0.9891 -0.4946
  480TIP3    H122855   1.514   3.119   0.139  0.5444  0.8060  2.3150
  480TIP3    H222856   1.629   3.187   0.069 -1.1410  1.8093  0.4339
  481TIP3   OH222857   6.459   3.262   1.821 -0.3069  0.9177  0.4670
  481TIP3    H122858   6.462   3.169   1.841  2.0344  1.3980  2.9094
  481TIP3    H222859   6.525   3.274   1.753 -0.5261  0.8244  0.2358
  482TIP3   OH222860   5.345   0.748  16.971  0.0032  0.3305  0.0827
  482TIP3    H122861   5.265   0.778  17.014  0.2104  1.0548 -0.0183
  482TIP3    H222862   5.316   0.676  16.914 -0.5038  0.3170  0.3457
  483TIP3   OH222863   1.527   2.203  12.094 -0.2985 -0.2230  0.2600
  483TIP3    H122864   1.457   2.257  12.057 -0.4480  0.0692  0.9509
  483TIP3    H222865   1.489   2.115  12.098 -0.5380 -0.1139  0.3964
  484TIP3   OH222866   2.265   6.589   1.739 -0.2488  0.2463 -0.1266
  484TIP3    H122867   2.207   6.528   1.693 -0.4257  0.3607 -0.0593
  484TIP3    H222868   2.273   6.552   1.827 -0.7546  0.5775  0.0633
  485TIP3   OH222869   1.987   6.751  12.376 -0.1914 -0.2050  0.0357
  485TIP3    H122870   1.978   6.811  12.301 -1.0585  0.3775  0.5844
  485TIP3    H222871   1.953   6.667  12.343 -1.3413  0.2535  0.0044
  486TIP3   OH222872   2.038   3.359  14.579  0.1233 -0.4091  0.0893
  486TIP3    H122873   2.080   3.439  14.611 -1.5001  0.3824  0.3168
  486TIP3    H222874   2.058   3.358  14.485  0.2692  0.1958  0.1048
  487TIP3   OH222875   4.863   1.796  11.057 -1.0704  0.0263 -0.2164
  487TIP3    H122876   4.832   1.707  11.047 -0.3670 -0.1245 -1.1349
  487TIP3    H222877   4.935   1.789  11.120  1.0330 -0.5730 -2.5494
  488TIP3   OH222878   1.238   3.011   5.778 -0.2236 -0.1841 -0.5889
  488TIP3    H122879   1.164   2.998   5.718 -0.5258 -0.5565 -0.1453
  488TIP3    H222880   1.315   2.991   5.726 -0.5843 -2.8756 -0.2498
  489TIP3   OH222881   6.254   4.280  16.273  0.3914  0.0125 -0.3408
  489TIP3    H122882   6.345   4.255  16.259  0.3873 -0.5858  0.5812
  489TIP3    H222883   6.253   4.323  16.359 -0.1823  0.0628 -0.3638
  490TIP3   OH222884   3.772   2.651   2.382  0.2224  0.7441 -0.6323
  490TIP3    H122885   3.759   2.671   2.475  0.7894 -2.8377  0.3633
  490TIP3    H222886   3.852   2.699   2.359 -0.7766  2.9617  0.1872
  491TIP3   OH222887   0.710   4.348   1.768 -0.2564  0.3242 -0.2134
  491TIP3    H122888   0.685   4.409   1.699 -1.2375 -0.6012 -0.7033
  491TIP3    H222889   0.691   4.394   1.849 -2.5596  0.1075 -0.5720
  492TIP3   OH222890   4.925   0.081  10.243 -0.4119 -0.2502  0.2622
  492TIP3    H122891   4.836   0.112  10.227  0.1111  0.4832 -1.4935
  492TIP3    H222892   4.920  -0.014  10.235 -1.3107 -0.3722  1.8361
  493TIP3   OH222893   2.869   6.298  11.014 -0.3362 -0.1127 -0.5285
  493TIP3    H122894   2.913   6.228  10.965 -1.0309  0.1017 -1.4626
  493TIP3    H222895   2.777   6.292  10.989 -0.6972  0.0732  0.6737
  494TIP3   OH222896   3.086   0.515  11.892 -0.1509  0.8182 -0.2690
  494TIP3    H122897   3.004   0.503  11.941  1.7643 -0.9244  2.8764
  494TIP3    H222898   3.092   0.609  11.878 -2.1992  1.0795  0.2850
  495TIP3   OH222899   3.176   1.367   0.628  0.6619  0.2908  0.3021
  495TIP3    H122900   3.167   1.274   0.647  1.6976 -0.2952 -1.7585
  495TIP3    H222901   3.106   1.386   0.566  0.3365  0.9429  0.8573
  496TIP3   OH222902   3.174   1.967  11.965 -0.3854 -0.0726 -0.1706
  496TIP3    H122903   3.192   1.973  11.872 -1.0725  0.4336 -0.2849
  496TIP3    H222904   3.092   2.016  11.977 -0.4138 -0.2959  0.6620
  497TIP3   OH222905   5.932   4.834   3.575  0.0858 -0.5224 -0.0748
  497TIP3    H122906   5.987   4.867   3.646  0.4287 -1.0172 -0.0999
  497TIP3    H222907   5.991   4.778   3.524  0.1759  0.7314 -1.4335
  498TIP3   OH222908   2.175   5.092  12.221  0.4253  0.2562 -0.5896
  498TIP3    H122909   2.177   5.175  12.173  2.0658  1.1095  0.8467
  498TIP3    H222910   2.250   5.042  12.186  0.7159  0.2690 -0.0064
  499TIP3   OH222911   4.594   0.499  12.784  0.1549  0.3651  0.4286
  499TIP3    H122912   4.572   0.410  12.755 -1.0817  0.6955  0.3257
  499TIP3    H222913   4.515   0.530  12.829  1.1702  0.7773  2.0243
  500TIP3   OH222914   0.581   6.334  11.362  0.4427  0.5106 -0.5803
  500TIP3    H122915   0.575   6.419  11.405 -0.5661  1.1368 -1.8762
  500TIP3    H222916   0.674   6.313  11.363  0.6792  1.5085 -0.0283
  501TIP3   OH222917   4.800   0.766   3.207 -0.0329 -0.3726 -0.1473
  501TIP3    H122918   4.720   0.816   3.192 -0.0044  0.1166  1.2011
  501TIP3    H222919   4.866   0.809   3.153 -0.2317  0.4813  0.2658
  502TIP3   OH222920   3.597   1.721   4.646  0.2838  0.4525 -0.6329
  502TIP3    H122921   3.670   1.695   4.591  0.2397 -1.8430  0.3091
  502TIP3    H222922   3.638   1.760   4.724  0.4059  1.3119 -1.1119
  503TIP3   OH222923   2.808   4.047   0.248  0.2945 -0.3612 -0.1833
  503TIP3    H122924   2.769   3.976   0.197  0.8031 -1.3293  0.7529
  503TIP3    H222925   2.897   4.018   0.266  1.4314  1.6379 -1.9601
  504TIP3   OH222926   1.042   5.463  13.167 -0.2950  0.2287  0.1983
  504TIP3    H122927   1.035   5.389  13.107  1.0963  0.2389 -0.0085
  504TIP3    H222928   0.952   5.478  13.197 -0.5874 -1.5881  0.3297
  505TIP3   OH222929   1.338   3.215   3.130 -0.1156  0.3953  0.4564
  505TIP3    H122930   1.286   3.286   3.169 -0.4540 -0.3518  1.4290
  505TIP3    H222931   1.372   3.252   3.049 -0.7766  1.4705  0.6395
  506TIP3   OH222932   1.539   5.231  15.577  0.1067  0.0806  0.0218
  506TIP3    H122933   1.601   5.263  15.511 -0.4802 -0.7109 -0.9435
  506TIP3    H222934   1.538   5.136  15.565 -1.1490  0.0623  0.1465
  507TIP3   OH222935   2.815   6.670  12.447  0.4598  0.0441 -0.0359
  507TIP3    H122936   2.887   6.611  12.472  0.4531 -1.1013 -2.4674
  507TIP3    H222937   2.736   6.624  12.475  0.5233 -0.4031 -0.5772
  508TIP3   OH222938   6.764   5.586   6.571 -0.5284  0.1685  0.2136
  508TIP3    H122939   6.855   5.568   6.548 -1.3612 -1.4825 -2.1259
  508TIP3    H222940   6.745   5.670   6.528 -0.7639 -0.6981 -1.4706
  509TIP3   OH222941   1.129   1.068   5.412  0.4670  0.2562 -0.0991
  509TIP3    H122942   1.140   1.083   5.318 -2.1372  0.3486 -0.4870
  509TIP3    H222943   1.181   1.136   5.454  0.3108  1.3089 -1.5305
  510TIP3   OH222944   4.947   1.842   1.243  0.1505 -0.8277 -0.4383
  510TIP3    H122945   4.884   1.845   1.315 -1.0583 -0.5934 -1.4608
  510TIP3    H222946   4.955   1.749   1.222  1.0127 -0.9542  0.4123
  511TIP3   OH222947   6.342   5.363   4.379 -0.3737 -0.3863  0.4808
  511TIP3    H122948   6.304   5.327   4.299 -1.8871  1.1848  0.4500
  511TIP3    H222949   6.418   5.306   4.396 -0.7481 -1.5351 -1.3349
  512TIP3   OH222950   2.072   3.916   1.983 -0.3235 -0.1235 -0.3185
  512TIP3    H122951   2.110   3.958   1.906  0.5125 -0.5381 -0.1409
  512TIP3    H222952   2.067   3.986   2.049 -1.7448  0.4208 -0.9653
  513TIP3   OH222953   1.005   3.438   0.632 -0.5399 -0.0447 -0.4681
  513TIP3    H122954   0.910   3.448   0.642 -0.3853  0.0156  1.3842
  513TIP3    H222955   1.017   3.407   0.543 -2.3302 -0.3787 -0.6326
  514TIP3   OH222956   5.344   1.268  12.098  0.3328  0.2158 -0.0387
  514TIP3    H122957   5.378   1.346  12.054 -2.1246  0.9498 -0.7992
  514TIP3    H222958   5.329   1.206  12.027  0.4195 -0.2331  0.3336
  515TIP3   OH222959   4.265   3.381  13.702  0.2178 -0.3852  0.0738
  515TIP3    H122960   4.352   3.360  13.669 -0.1172  1.2364 -2.0719
  515TIP3    H222961   4.206   3.326  13.650 -0.0684 -2.0850  2.0758
  516TIP3   OH222962   5.072   2.513   6.236  0.3174 -0.5516 -0.0357
  516TIP3    H122963   5.033   2.490   6.320  1.0377  0.2372  0.5282
  516TIP3    H222964   5.161   2.479   6.240  0.0827 -1.3358 -0.8692
  517TIP3   OH222965   4.382   5.390  13.876 -0.3196 -0.0446  0.2746
  517TIP3    H122966   4.452   5.340  13.833  0.2207  0.1022  0.9500
  517TIP3    H222967   4.416   5.479  13.880 -1.2658  0.3881 -0.8889
  518TIP3   OH222968   4.444   0.974  12.463  0.8608 -0.3753 -0.0034
  518TIP3    H122969   4.390   0.981  12.541  0.2447 -0.3181 -0.4291
  518TIP3    H222970   4.459   0.880  12.452 -2.8350 -0.9225 -2.3095
  519TIP3   OH222971   1.894   6.309   4.833 -0.6600 -0.0645  0.4659
  519TIP3    H122972   1.967   6.323   4.774 -1.0694  2.3895  0.4426
  519TIP3    H222973   1.934   6.291   4.918 -0.0749 -3.2166 -0.3571
  520TIP3   OH222974   1.179   1.588   5.134  0.0900 -0.0246  0.6650
  520TIP3    H122975   1.126   1.509   5.136  1.2503 -0.8526 -0.0748
  520TIP3    H222976   1.268   1.557   5.118  0.0395  1.6029 -4.6706
  521TIP3   OH222977   1.970   4.325   6.105 -0.1224 -0.7432  0.4624
  521TIP3    H122978   2.000   4.236   6.122 -0.7371 -0.8754  0.9290
  521TIP3    H222979   2.044   4.381   6.126  0.2957 -1.1536  0.0789
  522TIP3   OH222980   4.854   0.687   2.617 -0.3148 -1.0636  1.1219
  522TIP3    H122981   4.867   0.764   2.561 -1.2974 -2.0497 -0.5180
  522TIP3    H222982   4.931   0.687   2.674  0.9079 -0.2028 -0.4381
  523TIP3   OH222983   3.995   3.636   5.280 -0.3854 -0.3146  0.0270
  523TIP3    H122984   4.079   3.652   5.238 -0.5317  0.8669  0.1686
  523TIP3    H222985   3.971   3.547   5.253  0.8845 -0.6524 -0.0323
  524TIP3   OH222986   5.767   2.890   2.400  0.1192 -0.6803  0.0467
  524TIP3    H122987   5.803   2.803   2.384  0.5719 -0.4901  0.0096
  524TIP3    H222988   5.698   2.900   2.334 -0.0761 -1.0867  0.1842
  525TIP3   OH222989   4.554   1.910  15.058  0.5664  0.2342  0.1424
  525TIP3    H122990   4.513   1.931  14.974 -0.6657  1.9939  1.1099
  525TIP3    H222991   4.562   1.995  15.102 -1.4963 -0.8677  2.9731
  526TIP3   OH222992   3.175   4.349   1.350 -0.3255  0.0664 -0.7682
  526TIP3    H122993   3.174   4.303   1.433 -0.1051  0.0823 -0.7574
  526TIP3    H222994   3.242   4.416   1.360 -1.2742  1.0069 -0.4482
  527TIP3   OH222995   2.805   2.759  12.851  0.0110  0.4920  0.1883
  527TIP3    H122996   2.853   2.676  12.840  0.4563  0.9370 -1.7187
  527TIP3    H222997   2.715   2.732  12.865  0.5716 -0.3384  2.5899
  528TIP3   OH222998   1.574   3.406  13.600  0.5191  0.6506 -0.0361
  528TIP3    H122999   1.553   3.319  13.566  0.8699  0.6883 -0.3566
  528TIP3    H223000   1.666   3.418  13.578  0.5403  0.9975  0.2407
  529TIP3   OH223001   4.525   0.875   4.001 -0.4158  0.2213  0.4284
  529TIP3    H123002   4.484   0.962   4.006  0.2014  0.5056  0.6978
  529TIP3    H223003   4.458   0.815   4.033 -1.6272  0.3156 -1.7391
  530TIP3   OH223004   5.938   2.955  13.755 -0.2723  0.3222 -0.1045
  530TIP3    H123005   5.843   2.944  13.751 -0.1594 -0.5048 -1.1808
  530TIP3    H223006   5.951   3.047  13.778 -1.2979 -0.1762  2.8638
  531TIP3   OH223007   0.770   2.287   3.797  0.2202  0.7387 -0.3975
  531TIP3    H123008   0.829   2.332   3.737 -1.5595 -0.8077 -3.5884
  531TIP3    H223009   0.685   2.326   3.781 -0.1889  1.0157  2.0515
  532TIP3   OH223010   1.665   6.525   5.545 -0.0230 -0.1610 -0.4344
  532TIP3    H123011   1.585   6.485   5.511  0.4766 -2.3065  0.7422
  532TIP3    H223012   1.637   6.569   5.625  0.0704 -1.7316  0.5075
  533TIP3   OH223013   2.476   0.931  14.038  0.1767  0.2758  0.4248
  533TIP3    H123014   2.543   0.950  13.972 -0.8367  1.6758 -0.2560
  533TIP3    H223015   2.475   1.009  14.093 -0.6934  0.1558  0.5856
  534TIP3   OH223016   4.740   3.358  16.451 -0.3069 -0.3618 -0.3405
  534TIP3    H123017   4.675   3.370  16.520 -0.6361 -2.0546 -0.2982
  534TIP3    H223018   4.691   3.370  16.370 -0.4567 -0.6282 -0.2923
  535TIP3   OH223019   5.438   4.056   3.792 -0.4449 -0.5371  0.0511
  535TIP3    H123020   5.494   3.982   3.771 -0.4265 -0.0472 -1.8127
  535TIP3    H223021   5.499   4.127   3.814 -0.4718 -1.1568  2.3115
  536TIP3   OH223022   3.608   3.210  11.155 -0.5206 -0.3298 -0.1346
  536TIP3    H123023   3.600   3.301  11.125  0.3628  0.5036  1.9651
  536TIP3    H223024   3.652   3.165  11.083 -0.9247  0.9089 -1.1860
  537TIP3   OH223025   6.446   1.822   5.987 -0.5109  0.3811  0.5877
  537TIP3    H123026   6.471   1.889   6.051  2.7379  0.3933 -0.4994
  537TIP3    H223027   6.485   1.741   6.021  0.4855  0.2178 -0.8605
  538TIP3   OH223028   5.439   2.961   5.530  0.0382 -0.1468 -0.2040
  538TIP3    H123029   5.387   2.973   5.450 -0.0941 -2.3848 -0.5251
  538TIP3    H223030   5.385   2.905   5.585  0.6968  0.3020  0.9256
  539TIP3   OH223031   3.957   4.124  11.194  0.0672 -0.3669 -0.6022
  539TIP3    H123032   3.880   4.068  11.205 -0.2514  0.3238  0.8613
  539TIP3    H223033   3.987   4.105  11.105  0.0903 -3.0127 -0.1049
  540TIP3   OH223034   6.444   1.190  12.050 -0.2296  0.3748  0.2145
  540TIP3    H123035   6.417   1.133  11.978  0.1726  1.1174 -0.5514
  540TIP3    H223036   6.509   1.140  12.099  1.0455  0.6117 -1.1765
  541TIP3   OH223037   5.075   6.099  15.020  0.3819  0.6561  0.2460
  541TIP3    H123038   5.032   6.183  15.037 -1.3087 -0.2651  0.8385
  541TIP3    H223039   5.080   6.093  14.924 -0.0221  1.1858  0.1885
  542TIP3   OH223040   5.806   2.507  13.733  0.0646 -0.4196  0.3897
  542TIP3    H123041   5.817   2.569  13.805  1.4409  0.7129 -0.7442
  542TIP3    H223042   5.886   2.455  13.732 -0.9601 -2.1071  1.1563
  543TIP3   OH223043   4.730   4.513  13.895 -0.9733  0.6010  0.0494
  543TIP3    H123044   4.755   4.500  13.987 -2.3428  0.9443  0.4862
  543TIP3    H223045   4.764   4.600  13.873 -0.4780  0.4409  0.1666
  544TIP3   OH223046   1.680   3.365   3.682  0.0195  0.4088 -0.0641
  544TIP3    H123047   1.736   3.291   3.706 -1.2454 -0.4908  0.1623
  544TIP3    H223048   1.658   3.350   3.590 -1.6509 -0.4683  0.4414
  545TIP3   OH223049   6.568   4.533   6.271  0.3922  0.1260  0.2959
  545TIP3    H123050   6.501   4.466   6.262  1.4212 -0.6614 -3.8484
  545TIP3    H223051   6.636   4.493   6.325  1.4652 -2.8422 -2.9306
  546TIP3   OH223052   4.380   1.405  11.702 -0.1477 -0.0020  0.2452
  546TIP3    H123053   4.430   1.374  11.777 -0.0991  0.8991  0.5899
  546TIP3    H223054   4.345   1.490  11.729  0.3008  0.5812 -0.9226
  547TIP3   OH223055   2.991   5.141   0.799 -0.5928 -0.6373 -0.2946
  547TIP3    H123056   2.910   5.175   0.835  0.0097 -1.3216  1.9348
  547TIP3    H223057   2.965   5.067   0.745 -1.4678 -1.1096  0.7364
  548TIP3   OH223058   3.988   2.288  15.499 -0.5133  0.2875 -0.0911
  548TIP3    H123059   4.035   2.243  15.428 -2.2271 -0.3801 -0.8589
  548TIP3    H223060   4.054   2.304  15.566  1.0783  0.5603 -1.6648
  549TIP3   OH223061   5.893   1.864  16.691  0.3463  0.4784  0.4334
  549TIP3    H123062   5.943   1.944  16.706 -1.0003  1.9390 -2.1742
  549TIP3    H223063   5.863   1.871  16.600 -2.5934 -1.3921  1.1196
  550TIP3   OH223064   6.185   4.565   0.559 -0.0250 -0.1372  0.0169
  550TIP3    H123065   6.176   4.470   0.561  1.6684 -0.3580 -1.0599
  550TIP3    H223066   6.171   4.588   0.467  1.6204  0.3979 -0.1225
  551TIP3   OH223067   0.215   0.851   0.541  0.0774  0.0124  0.7566
  551TIP3    H123068   0.250   0.764   0.525  1.7646  0.5295  1.4091
  551TIP3    H223069   0.129   0.851   0.499  0.7339 -1.4130 -0.6587
  552TIP3   OH223070   4.143   0.813   3.453 -0.4242 -0.1078  0.4064
  552TIP3    H123071   4.127   0.826   3.546  0.7505  0.8326  0.4848
  552TIP3    H223072   4.208   0.743   3.449 -0.6824 -0.3460  0.2656
  553TIP3   OH223073   1.276   3.455   5.654 -0.1295  0.4506  0.0455
  553TIP3    H123074   1.303   3.458   5.746 -1.0132 -1.2460  0.4056
  553TIP3    H223075   1.344   3.403   5.612  0.0505  0.8701 -0.1864
  554TIP3   OH223076   3.624   1.773   5.154 -0.0921  0.1797 -0.2231
  554TIP3    H123077   3.647   1.780   5.246 -0.4281 -1.4894  0.0213
  554TIP3    H223078   3.685   1.709   5.118 -1.1912 -0.6552 -0.6814
  555TIP3   OH223079   3.869   1.558  12.232  0.5039 -0.3495 -0.3450
  555TIP3    H123080   3.899   1.493  12.295  1.4633  0.3717 -0.0434
  555TIP3    H223081   3.892   1.522  12.147  0.5711 -0.6324 -0.2074
  556TIP3   OH223082   3.089   0.304  16.191 -0.3223  0.3909 -0.3119
  556TIP3    H123083   3.009   0.258  16.216 -0.3632 -0.8075 -2.4318
  556TIP3    H223084   3.061   0.371  16.129  0.1091  1.2697  0.4251
  557TIP3   OH223085   4.545   5.348  12.091 -0.1603 -0.4919 -0.3715
  557TIP3    H123086   4.615   5.407  12.118  1.7890 -1.7960 -2.2080
  557TIP3    H223087   4.496   5.330  12.171  2.0463 -0.0586  1.1703
  558TIP3   OH223088   4.002   0.139  13.534  0.4471 -0.3942 -0.1540
  558TIP3    H123089   3.912   0.156  13.508  0.3236  1.5185  1.3641
  558TIP3    H223090   4.044   0.225  13.534  1.4580 -0.8286  2.0112
  559TIP3   OH223091   0.018   4.269  15.313 -0.8103 -0.0435 -0.2886
  559TIP3    H123092   0.082   4.314  15.257  0.8202  0.3474  1.7914
  559TIP3    H223093   0.037   4.300  15.401  0.5954 -4.9138  1.4349
  560TIP3   OH223094   6.350   5.142   2.496 -0.2313  0.2007  0.3117
  560TIP3    H123095   6.383   5.142   2.586 -1.4633  2.9621  0.8661
  560TIP3    H223096   6.258   5.118   2.503 -0.2390  0.0435 -0.2548
  561TIP3   OH223097   5.908   3.317  11.299 -0.0039 -0.3907  0.0193
  561TIP3    H123098   6.002   3.298  11.288  0.2884  1.6661 -1.7781
  561TIP3    H223099   5.864   3.245  11.254  0.7011 -1.1371  0.4842
  562TIP3   OH223100   6.555   4.395   4.546  0.3958 -0.3115 -0.0018
  562TIP3    H123101   6.542   4.490   4.544 -1.4117 -0.5230 -1.5862
  562TIP3    H223102   6.567   4.374   4.639  1.0068  1.4690  0.3545
  563TIP3   OH223103   0.109   6.414  12.311 -0.3028  0.5864 -0.0762
  563TIP3    H123104   0.146   6.350  12.372 -0.7784  0.0707 -0.3320
  563TIP3    H223105   0.051   6.468  12.366  0.9224  1.5106  0.3662
  564TIP3   OH223106   4.232   2.031   2.575 -0.2786 -0.0682 -0.2527
  564TIP3    H123107   4.189   1.952   2.542 -1.2764  1.3330 -2.6232
  564TIP3    H223108   4.175   2.062   2.646 -0.8231 -0.5835 -0.4572
  565TIP3   OH223109   1.108   4.364  17.212 -0.8751  0.1817 -0.0427
  565TIP3    H123110   1.183   4.375  17.269 -0.5243 -0.3252 -0.3972
  565TIP3    H223111   1.131   4.291  17.155 -2.2459 -0.9979  0.8430
  566TIP3   OH223112   1.620   0.308  13.710  0.2441  0.0065 -0.2619
  566TIP3    H123113   1.582   0.393  13.733  0.4477 -0.4239  1.9885
  566TIP3    H223114   1.546   0.253  13.688 -0.0188  0.4055 -0.3828
  567TIP3   OH223115   0.162   5.969   3.032 -0.0810 -0.1986  0.8918
  567TIP3    H123116   0.196   5.913   3.101  0.4138 -0.8113  0.1732
  567TIP3    H223117   0.160   6.057   3.070  4.0940  0.2765  0.4764
  568TIP3   OH223118   0.545   3.489  17.111  0.6552 -0.2011  0.6879
  568TIP3    H123119   0.543   3.451  17.199  1.0388  1.4541  1.4433
  568TIP3    H223120   0.474   3.553  17.110 -0.2429 -1.1448 -0.6931
  569TIP3   OH223121   4.773   0.174  14.344  0.0365  0.2736 -0.2693
  569TIP3    H123122   4.708   0.106  14.329 -0.2705  0.9571 -2.3610
  569TIP3    H223123   4.833   0.136  14.408 -1.4575 -1.0083  0.4335
  570TIP3   OH223124   5.646   0.705  13.169  0.4538 -0.3551  0.0837
  570TIP3    H123125   5.615   0.796  13.176 -1.1987 -0.8204 -0.7703
  570TIP3    H223126   5.678   0.684  13.257  0.5298  0.9304  0.3897
  571TIP3   OH223127   2.214   0.332   4.193  0.1485 -0.1677 -0.7994
  571TIP3    H123128   2.180   0.249   4.158  0.2369 -1.3108  1.6453
  571TIP3    H223129   2.252   0.376   4.116 -1.2807 -1.6488 -2.4553
  572TIP3   OH223130   5.543   3.714  13.966  0.8966 -0.6809  0.5615
  572TIP3    H123131   5.512   3.760  14.043 -1.5440 -0.9257 -0.1997
  572TIP3    H223132   5.573   3.783  13.907 -1.8423  0.0008 -0.1834
  573TIP3   OH223133   6.264   6.601  11.934 -1.0519  0.1560  0.0310
  573TIP3    H123134   6.315   6.672  11.973 -1.9624  0.2434  1.1104
  573TIP3    H223135   6.200   6.577  12.001 -2.4139  0.0306 -1.2569
  574TIP3   OH223136   4.440   1.932   4.765  0.3589 -0.5669  0.2787
  574TIP3    H123137   4.525   1.892   4.746  1.3091  1.5717 -0.2728
  574TIP3    H223138   4.417   1.979   4.685 -0.4958  0.3046  1.0125
  575TIP3   OH223139   2.052   1.999   1.499 -0.0212 -0.0159 -0.4002
  575TIP3    H123140   2.050   2.076   1.442  0.5368  1.2064  1.1274
  575TIP3    H223141   2.144   1.971   1.498  0.0739  0.2630  0.1960
  576TIP3   OH223142   5.837   6.680   1.615  0.2653  0.3892  0.3661
  576TIP3    H123143   5.904   6.696   1.548  1.3300 -1.1896  1.0010
  576TIP3    H223144   5.872   6.722   1.694  0.3446 -0.1310  0.6105
  577TIP3   OH223145   0.435   1.128   3.943  0.2001 -0.5692 -0.0598
  577TIP3    H123146   0.478   1.200   3.896 -1.6109  2.3485  2.3838
  577TIP3    H223147   0.507   1.075   3.977  1.7013  1.2048 -0.3027
  578TIP3   OH223148   5.697   1.566  12.707  0.0306  0.2813  0.1474
  578TIP3    H123149   5.779   1.592  12.750  0.3125 -0.1295 -0.1467
  578TIP3    H223150   5.635   1.636  12.731 -0.1325 -0.4785  2.1613
  579TIP3   OH223151   2.574   1.394   4.545 -0.1121  0.1231 -0.1801
  579TIP3    H123152   2.641   1.360   4.485  1.2802 -1.1401  1.9553
  579TIP3    H223153   2.615   1.390   4.631 -2.1597  1.5259  0.9367
  580TIP3   OH223154   0.862   3.211  14.347 -0.2345  0.0795 -0.1742
  580TIP3    H123155   0.906   3.144  14.399  1.6014  2.0124  0.8914
  580TIP3    H223156   0.917   3.221  14.269 -2.0613 -1.5898 -1.8133
  581TIP3   OH223157   4.906   5.578   0.672  0.1611  0.2613 -0.4382
  581TIP3    H123158   4.956   5.556   0.750  1.7098 -0.2289 -1.5457
  581TIP3    H223159   4.835   5.634   0.705  0.1845 -0.7322  1.4349
  582TIP3   OH223160   3.393   2.759   2.966 -0.0648 -0.3107 -0.4702
  582TIP3    H123161   3.299   2.741   2.975 -0.6846  1.4316 -2.5342
  582TIP3    H223162   3.419   2.796   3.050 -1.6477  0.7895 -0.4349
  583TIP3   OH223163   5.478   5.242  15.373  0.0496 -0.7810 -0.2625
  583TIP3    H123164   5.535   5.306  15.330  0.7425 -1.6252 -0.6363
  583TIP3    H223165   5.499   5.159  15.330 -0.7570 -1.2775  0.2854
  584TIP3   OH223166   3.177   3.750  12.660  0.4317 -0.3401 -0.2873
  584TIP3    H123167   3.236   3.807  12.612  0.3083 -0.3648 -0.4689
  584TIP3    H223168   3.089   3.779  12.634  0.3535  0.0332  0.3648
  585TIP3   OH223169   2.328   0.841   3.653  0.0986 -0.0682  0.0400
  585TIP3    H123170   2.356   0.814   3.740 -0.1488 -1.0869 -0.1862
  585TIP3    H223171   2.391   0.800   3.594 -1.0533 -1.2810 -0.3919
  586TIP3   OH223172   5.392   4.084  14.781 -0.2544 -0.4636  0.6779
  586TIP3    H123173   5.383   4.084  14.877  1.8331 -2.4396  0.9949
  586TIP3    H223174   5.456   4.014  14.764  1.3650  1.4824 -1.9749
  587TIP3   OH223175   2.658   0.246  13.350 -0.7210 -0.0243  0.6089
  587TIP3    H123176   2.580   0.196  13.328 -0.1670 -0.8899  0.5254
  587TIP3    H223177   2.647   0.330  13.306 -1.3263 -0.3676  0.1004
  588TIP3   OH223178   2.532   4.961   3.812  0.5502 -0.3612 -0.3709
  588TIP3    H123179   2.625   4.942   3.824  1.6079  3.3622 -1.4771
  588TIP3    H223180   2.497   4.970   3.901  1.3656 -1.1519  0.0460
  589TIP3   OH223181   6.457   1.947   0.190 -0.1816 -0.0322 -0.3034
  589TIP3    H123182   6.397   1.898   0.247 -0.4735 -1.2638 -1.6110
  589TIP3    H223183   6.435   2.039   0.206 -2.5517 -0.4299 -0.8062
  590TIP3   OH223184   2.768   1.028   3.287 -0.5809  0.6211 -0.0339
  590TIP3    H123185   2.687   0.981   3.303 -0.5093  0.4070 -0.2911
  590TIP3    H223186   2.781   1.082   3.365 -0.5102 -0.0096  0.4008
  591TIP3   OH223187   5.519   4.456   4.027  0.0143  0.2061 -0.1088
  591TIP3    H123188   5.460   4.381   4.038 -0.7721  0.7671 -0.4913
  591TIP3    H223189   5.479   4.526   4.078 -0.0681  0.8245 -1.0055
  592TIP3   OH223190   4.975   4.566  12.553 -0.2201 -0.4342  0.1225
  592TIP3    H123191   5.044   4.616  12.509 -0.5438  0.6775  0.8406
  592TIP3    H223192   4.989   4.476  12.524  0.9875 -0.0914 -0.4385
  593TIP3   OH223193   5.687   3.836   2.518  1.1540 -0.5128  0.1383
  593TIP3    H123194   5.643   3.851   2.434  1.6765  2.1098  0.2416
  593TIP3    H223195   5.729   3.751   2.508 -0.2434 -1.0657 -1.5919
  594TIP3   OH223196   6.766   0.159   0.186  0.6448 -0.6575  0.6555
  594TIP3    H123197   6.845   0.118   0.222  0.6837 -0.9061  0.2872
  594TIP3    H223198   6.746   0.109   0.107 -0.0806 -0.8126  0.9264
  595TIP3   OH223199   5.539   5.877  16.450  0.6369  0.0514  0.6538
  595TIP3    H123200   5.613   5.825  16.420 -1.4749 -1.8461 -1.6960
  595TIP3    H223201   5.476   5.873  16.378 -2.0806  0.9347  2.7975
  596TIP3   OH223202   4.091   6.537   1.052  0.0601 -0.2829 -0.4176
  596TIP3    H123203   4.015   6.593   1.038 -0.7646 -1.4814 -0.8581
  596TIP3    H223204   4.114   6.504   0.965 -0.3435 -1.7263  0.0007
  597TIP3   OH223205   0.267   3.461  14.705  0.7216 -0.1236 -0.0343
  597TIP3    H123206   0.256   3.502  14.791  0.8638  0.4006 -0.2613
  597TIP3    H223207   0.347   3.409  14.714  1.3509  0.8002 -0.1715
  598TIP3   OH223208   5.539   3.109   5.709  0.0116 -0.8261 -0.1004
  598TIP3    H123209   5.530   3.063   5.625 -1.5054  0.3856 -0.6581
  598TIP3    H223210   5.520   3.042   5.775  2.2051 -2.0613 -0.6003
  599TIP3   OH223211   3.008   0.965  13.806  0.6559  0.2520  0.7544
  599TIP3    H123212   3.000   0.923  13.891  0.3790 -0.6865  0.2741
  599TIP3    H223213   2.919   0.996  13.786  0.0981 -1.8724 -0.3557
  600TIP3   OH223214   0.194   6.020   1.659  0.2134 -0.3471 -0.1307
  600TIP3    H123215   0.135   5.946   1.674  0.1792  0.0321  1.9659
  600TIP3    H223216   0.281   5.985   1.675  0.1571  0.1394  1.4510
  601TIP3   OH223217   0.913   2.450   4.323 -0.2957 -0.3165  0.0043
  601TIP3    H123218   0.918   2.544   4.306  0.5633 -0.1122  1.2107
  601TIP3    H223219   0.868   2.444   4.408  1.6846 -0.8262  1.0743
  602TIP3   OH223220   0.094   1.560   0.263  0.6745  0.3604  0.6540
  602TIP3    H123221   0.062   1.648   0.283 -1.1628 -0.3838  1.1725
  602TIP3    H223222   0.149   1.536   0.338 -1.6260 -0.2385  2.2253
  603TIP3   OH223223   5.903   2.306  11.659 -0.3381  0.0177  0.4306
  603TIP3    H123224   5.852   2.304  11.740  1.7727 -1.2812  1.8279
  603TIP3    H223225   5.921   2.214  11.640  2.6094  0.4276  0.8088
  604TIP3   OH223226   1.649   5.073  11.282 -0.4648 -0.4449  0.1724
  604TIP3    H123227   1.653   5.015  11.206 -0.9608 -1.7011  1.0570
  604TIP3    H223228   1.678   5.158  11.250 -1.6260 -0.6906 -1.6385
  605TIP3   OH223229   2.569   2.120  12.125 -0.3795  0.2196 -0.0414
  605TIP3    H123230   2.576   2.086  12.036 -0.3271 -1.4828  0.5904
  605TIP3    H223231   2.476   2.139  12.136 -1.0444 -2.9818  0.6981
  606TIP3   OH223232   2.054   4.874  12.537 -0.1082  0.4452 -0.2061
  606TIP3    H123233   1.972   4.922  12.523 -1.0620 -0.9965  0.2350
  606TIP3    H223234   2.036   4.816  12.611  1.3576  0.1932 -0.0179
  607TIP3   OH223235   4.938   4.384   4.839  0.2276  0.5645  0.7418
  607TIP3    H123236   4.847   4.361   4.823 -0.2465  2.1005  1.1102
  607TIP3    H223237   4.957   4.452   4.775  0.6989  1.1982  1.5370
  608TIP3   OH223238   4.521   5.408  14.209  0.5617 -0.0940  0.3829
  608TIP3    H123239   4.501   5.318  14.185 -0.5216  0.2963 -0.2727
  608TIP3    H223240   4.485   5.418  14.297  0.4066 -0.2195  0.3336
  609TIP3   OH223241   0.738   4.003   3.962  0.8171 -0.2108  0.9975
  609TIP3    H123242   0.730   4.058   4.040  0.9926 -0.6909  1.3590
  609TIP3    H223243   0.650   3.968   3.948  0.9486 -0.7406  1.4456
  610TIP3   OH223244   0.362   5.219  13.623  0.7283  0.1358 -0.0424
  610TIP3    H123245   0.313   5.197  13.544 -0.3421  1.0531  0.3387
  610TIP3    H223246   0.422   5.145  13.635 -0.6905 -1.1340 -0.4227
  611TIP3   OH223247   1.746   1.132   1.165 -0.2283 -0.3913 -0.1242
  611TIP3    H123248   1.754   1.176   1.080 -3.5112  1.5019  0.3735
  611TIP3    H223249   1.694   1.053   1.146 -1.9131  0.5916  0.1772
  612TIP3   OH223250   4.354   3.813  14.780  0.5859  0.1910 -0.1897
  612TIP3    H123251   4.273   3.865  14.783  1.2932  1.3761 -0.9020
  612TIP3    H223252   4.338   3.749  14.711  0.1423  0.2077 -0.1112
  613TIP3   OH223253   4.135   4.937  17.134  0.1716 -0.2342 -0.0914
  613TIP3    H123254   4.048   4.952  17.170  0.4813 -1.8602  1.5187
  613TIP3    H223255   4.158   5.019  17.090 -2.0600  0.2892 -0.3579
  614TIP3   OH223256   0.616   0.522   5.742 -0.3941  0.3441  0.2696
  614TIP3    H123257   0.687   0.459   5.728 -1.6371 -1.3456  1.2884
  614TIP3    H223258   0.584   0.542   5.654  0.8443  0.5662 -0.1496
  615TIP3   OH223259   1.888   5.059   2.326 -0.6116  0.4189  0.7072
  615TIP3    H123260   1.870   5.093   2.238 -0.9458 -1.2051  0.1010
  615TIP3    H223261   1.828   5.107   2.383 -0.5014  1.3893  0.0342
  616TIP3   OH223262   2.424   0.274   4.953 -0.5905 -0.4495 -0.5700
  616TIP3    H123263   2.352   0.333   4.973 -0.4233 -0.2823 -0.4513
  616TIP3    H223264   2.444   0.291   4.861 -0.4755 -0.2433 -0.5091
  617TIP3   OH223265   5.995   5.041  17.192 -0.3669 -0.2534  0.8202
  617TIP3    H123266   6.089   5.055  17.207 -0.4999  0.4028  1.1113
  617TIP3    H223267   5.954   5.058  17.277 -0.6864 -1.2777  0.8830
  618TIP3   OH223268   6.437   4.068  15.917 -0.1044 -0.0105  0.1561
  618TIP3    H123269   6.479   4.086  16.001 -0.2737  1.7418 -0.0914
  618TIP3    H223270   6.343   4.063  15.938 -0.2596  1.5223 -0.0426
  619TIP3   OH223271   4.649   3.950   4.545 -0.2149  0.2226 -0.2665
  619TIP3    H123272   4.724   3.982   4.494  2.3908 -0.5426  2.7867
  619TIP3    H223273   4.593   4.027   4.556  0.1616  0.8793 -2.3943
  620TIP3   OH223274   4.689   0.002  16.059 -0.3244 -0.2559 -0.0293
  620TIP3    H123275   4.694   0.032  16.150 -0.8143 -0.9954  0.2485
  620TIP3    H223276   4.597   0.014  16.036 -0.5865 -1.7501  0.1681
  621TIP3   OH223277   0.317   1.431  12.487 -0.4707  0.8239  0.1348
  621TIP3    H123278   0.369   1.488  12.429  0.3298 -0.4411 -0.4567
  621TIP3    H223279   0.377   1.408  12.558 -1.5281  2.5653  1.6586
  622TIP3   OH223280   3.224   0.416  15.380  0.4686  0.2143  0.1614
  622TIP3    H123281   3.152   0.353  15.380  0.4867  0.0557  3.1420
  622TIP3    H223282   3.303   0.361  15.383  0.6992  0.4072 -1.4228
  623TIP3   OH223283   5.419   4.321   1.806  0.0848  0.0215  0.0218
  623TIP3    H123284   5.336   4.369   1.812 -0.0324 -0.1631 -0.1292
  623TIP3    H223285   5.460   4.335   1.891  0.5269  1.2601 -0.3735
  624TIP3   OH223286   1.387   4.045   3.878  0.5136  0.2672 -0.6994
  624TIP3    H123287   1.330   3.992   3.821  0.0823 -0.6081  0.4908
  624TIP3    H223288   1.475   4.013   3.860  0.1609 -1.7830  0.8443
  625TIP3   OH223289   1.035   0.496   0.969  0.2880  0.0898  0.3741
  625TIP3    H123290   1.081   0.448   0.901 -0.4983  0.9564 -0.8015
  625TIP3    H223291   1.028   0.585   0.935 -3.2081 -0.2040 -0.0255
  626TIP3   OH223292   4.228   0.984  12.630  0.4884 -0.1935 -0.4116
  626TIP3    H123293   4.216   1.079  12.621  2.3547  0.4298  2.2431
  626TIP3    H223294   4.150   0.954  12.677  0.6487  0.3697  0.2381
  627TIP3   OH223295   3.472   2.842   2.088 -0.1717  0.4529 -0.6482
  627TIP3    H123296   3.483   2.937   2.086  0.0267  0.4311 -0.5776
  627TIP3    H223297   3.382   2.828   2.058 -1.3579  0.8642  2.3015
  628TIP3   OH223298   4.023   6.272   3.806  0.3445 -0.5720 -0.4435
  628TIP3    H123299   4.010   6.299   3.897 -2.8986 -0.7933 -0.7265
  628TIP3    H223300   4.076   6.192   3.812 -0.5747 -1.1015  1.3329
  629TIP3   OH223301   1.183   3.741  14.835 -0.8451 -0.1358  0.1070
  629TIP3    H123302   1.191   3.831  14.803 -1.1110  0.0970  0.6795
  629TIP3    H223303   1.219   3.744  14.923 -1.6722 -0.3927  0.4594
  630TIP3   OH223304   1.367   3.087   1.564 -0.3544  0.0812 -0.3974
  630TIP3    H123305   1.296   3.150   1.551 -0.7198 -0.5037 -1.4333
  630TIP3    H223306   1.326   3.014   1.611  0.2133  0.8479  1.3461
  631TIP3   OH223307   5.536   6.684  15.010  0.0117 -0.4672  0.6969
  631TIP3    H123308   5.563   6.668  15.100 -0.8268 -0.0038  1.0408
  631TIP3    H223309   5.444   6.706  15.016  0.0419 -0.0344 -0.2396
  632TIP3   OH223310   2.591   0.562  13.554  0.5104 -0.1251 -0.0312
  632TIP3    H123311   2.559   0.508  13.626 -0.9603  0.0080 -0.5444
  632TIP3    H223312   2.538   0.642  13.559  1.2575  0.4159 -0.5133
  633TIP3   OH223313   0.023   4.831  14.287  0.2364 -0.3214 -0.5939
  633TIP3    H123314  -0.047   4.778  14.325  1.8024 -3.5809 -1.9235
  633TIP3    H223315   0.016   4.816  14.193  1.4450  0.9975 -0.9274
  634TIP3   OH223316   0.651   3.694   4.396 -0.6792  0.6123  0.4074
  634TIP3    H123317   0.727   3.660   4.350 -0.7518  0.6299  0.2745
  634TIP3    H223318   0.641   3.784   4.364 -1.3921  0.2685 -0.3793
  635TIP3   OH223319   0.245   1.817   1.483 -0.1672  0.4451  0.2613
  635TIP3    H123320   0.261   1.749   1.549 -0.7311  0.6374  0.6006
  635TIP3    H223321   0.275   1.898   1.523  0.8733  0.3510 -0.2951
  636TIP3   OH223322   5.029   2.636   4.135  0.0774  0.2996 -0.0987
  636TIP3    H123323   4.954   2.696   4.132 -1.6137 -1.5917  1.1854
  636TIP3    H223324   4.989   2.550   4.149  2.4733 -0.9451 -0.5099
  637TIP3   OH223325   3.419   4.351  16.462 -0.3162  0.1852 -0.1630
  637TIP3    H123326   3.482   4.324  16.529 -2.9344 -1.4844  1.8128
  637TIP3    H223327   3.445   4.441  16.441  0.5481  0.9201  3.2989
  638TIP3   OH223328   0.062   1.334  12.430 -0.1187 -0.2562  0.3810
  638TIP3    H123329   0.150   1.370  12.442  0.3603 -1.0960 -0.4241
  638TIP3    H223330   0.012   1.405  12.390  0.4857 -0.0840 -0.0915
  639TIP3   OH223331   5.407   3.857  11.788 -0.4991 -0.1832  0.3338
  639TIP3    H123332   5.497   3.879  11.814 -0.4215 -0.6414  0.4751
  639TIP3    H223333   5.359   3.939  11.795 -0.0093  0.1462 -0.0940
  640TIP3   OH223334   1.990   1.689  12.802 -0.1580  0.7369 -0.1600
  640TIP3    H123335   2.025   1.647  12.881 -0.9208 -0.9815 -0.7014
  640TIP3    H223336   2.001   1.625  12.733 -4.7798 -0.2742 -0.2783
  641TIP3   OH223337   6.105   4.720   5.775  0.4850  0.4590  0.1062
  641TIP3    H123338   6.016   4.704   5.742  1.0701 -1.3584 -0.7488
  641TIP3    H223339   6.117   4.814   5.767 -2.0701  1.0898  2.2021
  642TIP3   OH223340   5.549   1.381  11.446  0.9244  0.4401  0.4673
  642TIP3    H123341   5.587   1.320  11.383  1.1277 -0.4209  1.4001
  642TIP3    H223342   5.484   1.329  11.493  0.7173  1.0955  0.9175
  643TIP3   OH223343   1.890   2.733   5.700 -0.0684  0.1415 -0.1164
  643TIP3    H123344   1.842   2.670   5.646 -1.8825  0.8822  0.5252
  643TIP3    H223345   1.909   2.806   5.641  1.1035 -0.5288 -0.5968
  644TIP3   OH223346   3.428   5.370  12.371  0.0025 -0.0021 -0.2128
  644TIP3    H123347   3.390   5.284  12.387 -3.0654  1.3447  0.3746
  644TIP3    H223348   3.414   5.419  12.452  0.5201  1.4647 -0.9632
  645TIP3   OH223349   2.907   2.613  12.518 -0.2379  0.2200 -0.1670
  645TIP3    H123350   2.826   2.579  12.556 -0.9022 -0.6436 -2.1893
  645TIP3    H223351   2.878   2.659  12.439  1.2536 -0.7251 -1.3324
  646TIP3   OH223352   5.751   4.151  13.880 -0.4445 -0.3112  0.1885
  646TIP3    H123353   5.781   4.104  13.802  0.4580 -0.8884  0.8717
  646TIP3    H223354   5.679   4.205  13.848  0.9303  0.6953 -1.4018
  647TIP3   OH223355   4.840   4.064   4.377 -0.1048 -0.2681 -0.0480
  647TIP3    H123356   4.902   3.991   4.387  0.0691 -0.3765 -1.6154
  647TIP3    H223357   4.882   4.138   4.421  1.2597 -0.2970 -1.2183
  648TIP3   OH223358   2.058   2.163   4.088  0.3327 -0.1518 -0.0626
  648TIP3    H123359   2.123   2.176   4.158  0.2202  0.4820 -0.0699
  648TIP3    H223360   2.019   2.078   4.107 -1.8806  1.3005  2.4603
  649TIP3   OH223361   2.210   1.240  15.892  0.0375 -0.2845  0.3983
  649TIP3    H123362   2.260   1.308  15.937  0.3151  0.0031 -0.3180
  649TIP3    H223363   2.274   1.196  15.837 -0.5012  0.1498 -0.6031
  650TIP3   OH223364   1.103   2.128  12.778 -0.5599 -0.3463  0.4923
  650TIP3    H123365   1.044   2.201  12.796  0.5062  0.4007  1.0554
  650TIP3    H223366   1.180   2.145  12.832  0.4324 -0.9834 -0.6657
  651TIP3   OH223367   2.468   5.545  17.229 -0.2864  0.3509  0.3568
  651TIP3    H123368   2.420   5.484  17.173 -1.1866  2.1301 -0.8923
  651TIP3    H223369   2.554   5.503  17.242 -1.1881 -1.6207  0.4082
  652TIP3   OH223370   4.468   0.099  11.829  0.3164  0.1847 -0.0725
  652TIP3    H123371   4.466   0.175  11.886 -1.2120  0.7745 -0.8272
  652TIP3    H223372   4.453   0.134  11.741  1.4537 -0.8081 -0.6985
  653TIP3   OH223373   4.871   3.999  11.638  0.1541 -0.4746  0.1303
  653TIP3    H123374   4.799   4.061  11.628  0.5374  0.0190  0.3841
  653TIP3    H223375   4.828   3.916  11.659 -0.4444 -0.6247 -1.5216
  654TIP3   OH223376   2.700   0.638   0.728 -0.0851 -0.0814 -0.0857
  654TIP3    H123377   2.638   0.642   0.656  0.9046 -0.8563 -1.0141
  654TIP3    H223378   2.663   0.576   0.790 -0.1566 -0.6679 -0.7132
  655TIP3   OH223379   0.045   6.100   5.359  0.5868  0.7548 -0.0485
  655TIP3    H123380   0.068   6.060   5.275  1.2485  1.0554 -0.0112
  655TIP3    H223381   0.126   6.100   5.409  0.0545 -0.0241  0.8537
  656TIP3   OH223382   4.982   0.302   3.012 -0.6857  0.0938  0.1699
  656TIP3    H123383   5.025   0.370   3.064 -1.5911  0.4061  0.5194
  656TIP3    H223384   4.964   0.343   2.927  0.4110 -0.2872 -0.2688
  657TIP3   OH223385   6.670   1.742   0.115  0.3263  0.0619 -0.3140
  657TIP3    H123386   6.716   1.806   0.169 -0.1405 -1.2107  1.7173
  657TIP3    H223387   6.670   1.780   0.028  1.0867  2.2593  0.5635
  658TIP3   OH223388   0.849   5.365   0.695  0.1679  0.3222 -0.0650
  658TIP3    H123389   0.942   5.352   0.712  0.6782  0.8204 -2.1497
  658TIP3    H223390   0.823   5.287   0.647 -0.8808 -0.4698  1.7056
  659TIP3   OH223391   2.863   2.613  16.736 -0.7146 -0.1724  0.1669
  659TIP3    H123392   2.905   2.615  16.650 -0.5497  2.4128  0.2192
  659TIP3    H223393   2.897   2.691  16.781 -1.5364 -0.9246  2.2179
  660TIP3   OH223394   4.528   4.732   2.500 -0.7286  0.0667 -0.4685
  660TIP3    H123395   4.588   4.692   2.438 -1.1632 -1.7218  0.2138
  660TIP3    H223396   4.582   4.794   2.549  0.9740 -2.4494  1.0432
  661TIP3   OH223397   0.841   0.349  10.454  0.1449 -0.2257  0.1352
  661TIP3    H123398   0.754   0.374  10.421  0.8241  0.4826 -1.2220
  661TIP3    H223399   0.868   0.277  10.397  1.4099  1.1224 -1.0461
  662TIP3   OH223400   2.874   2.145  13.333 -0.0983  0.3545 -0.5134
  662TIP3    H123401   2.895   2.166  13.242  0.8252  0.4863 -0.2823
  662TIP3    H223402   2.845   2.054  13.332 -1.8104  0.8709 -1.1842
  663TIP3   OH223403   2.677   4.477  16.706 -0.2802  0.4313 -0.3255
  663TIP3    H123404   2.756   4.423  16.699 -1.8554 -1.9706 -1.1910
  663TIP3    H223405   2.627   4.439  16.778 -0.3143  2.4625  0.7940
  664TIP3   OH223406   6.775   2.789  14.355  0.1355  0.1666  0.2075
  664TIP3    H123407   6.804   2.749  14.437  1.0254 -0.9211 -0.6121
  664TIP3    H223408   6.856   2.819  14.314 -0.2853  0.4832 -0.3950
  665TIP3   OH223409   4.651   0.846   2.709  0.7298  0.9891  0.2043
  665TIP3    H123410   4.718   0.778   2.707  0.6126  0.8420 -2.7542
  665TIP3    H223411   4.690   0.921   2.664 -1.2580  0.6123 -2.4156
  666TIP3   OH223412   4.541   0.392   3.642 -0.5321  0.3691 -0.1958
  666TIP3    H123413   4.463   0.374   3.695 -0.7617  0.9643 -0.3161
  666TIP3    H223414   4.535   0.486   3.622 -0.8402  0.0156 -1.9042
  667TIP3   OH223415   3.356   5.962   1.612 -0.0256  0.4223 -0.0321
  667TIP3    H123416   3.357   5.867   1.623 -2.2480  0.0694 -1.9441
  667TIP3    H223417   3.318   5.996   1.693 -0.5990 -0.4638  0.0822
  668TIP3   OH223418   4.716   4.252   3.196 -0.2506  0.4069 -0.4724
  668TIP3    H123419   4.755   4.301   3.123 -0.8479  0.5905 -0.6773
  668TIP3    H223420   4.776   4.179   3.211 -0.0894  0.4050 -1.1089
  669TIP3   OH223421   5.796   5.206   1.169 -0.4372 -0.6546 -0.1347
  669TIP3    H123422   5.828   5.120   1.196  1.3571  0.4120  1.3370
  669TIP3    H223423   5.761   5.245   1.249 -0.1501  0.4449 -0.5279
  670TIP3   OH223424   1.684   3.330   5.023  0.2793  0.6587  0.4579
  670TIP3    H123425   1.766   3.324   5.071  0.3279  1.9926  0.5934
  670TIP3    H223426   1.616   3.325   5.091  0.0761 -2.6629  0.1812
  671TIP3   OH223427   5.639   0.470  16.598 -0.0484 -0.7526  0.4228
  671TIP3    H123428   5.544   0.461  16.594 -0.3841  0.5647  2.8876
  671TIP3    H223429   5.670   0.452  16.509 -2.3967 -2.9620 -0.0536
  672TIP3   OH223430   4.436   3.645  12.212  0.2401 -0.2318  0.7960
  672TIP3    H123431   4.529   3.621  12.209  0.2845 -0.0975  1.0628
  672TIP3    H223432   4.436   3.733  12.252  0.2201  0.9133 -1.5499
  673TIP3   OH223433   3.606   0.205   1.491 -0.5815  0.4408  0.2989
  673TIP3    H123434   3.591   0.161   1.575 -3.5206  0.7281  0.0322
  673TIP3    H223435   3.604   0.298   1.512  0.0894  0.5144  0.0739
  674TIP3   OH223436   6.751   2.122  13.867  0.0579 -0.3279 -0.6033
  674TIP3    H123437   6.795   2.110  13.783 -1.2381  2.0077 -1.7125
  674TIP3    H223438   6.660   2.095  13.851  0.0167 -0.8207  0.3599
  675TIP3   OH223439   6.701   1.086  12.092  0.7496  0.4348 -0.0364
  675TIP3    H123440   6.764   1.014  12.080  1.6271  0.9976  0.9618
  675TIP3    H223441   6.700   1.100  12.186 -3.5977 -1.8825  0.5256
  676TIP3   OH223442   4.179   3.534  14.135 -0.1369 -0.0523 -0.1569
  676TIP3    H123443   4.103   3.500  14.087 -1.5412 -0.2843  2.0979
  676TIP3    H223444   4.146   3.611  14.181  1.4811  0.8800 -0.4775
  677TIP3   OH223445   5.934   6.301   2.832  0.5438 -0.1056 -0.1168
  677TIP3    H123446   6.011   6.251   2.859  0.2865 -1.1015 -1.1274
  677TIP3    H223447   5.874   6.294   2.906  1.0915 -0.0215  0.3477
  678TIP3   OH223448   3.759   1.497   4.369  0.0693  0.3042 -0.2193
  678TIP3    H123449   3.723   1.534   4.288 -2.2641 -0.4385  0.4027
  678TIP3    H223450   3.683   1.461   4.415  1.2525  1.0546  2.5174
  679TIP3   OH223451   2.300   0.049  12.080  0.5196  0.8109 -0.0910
  679TIP3    H123452   2.216   0.015  12.051  0.5714 -0.3268  1.0124
  679TIP3    H223453   2.296   0.143  12.061 -2.1980  1.3600  2.4871
  680TIP3   OH223454   4.670   3.987  15.050  0.3136 -0.2213  0.4383
  680TIP3    H123455   4.683   3.937  15.131 -0.7036 -0.1959  0.6298
  680TIP3    H223456   4.743   3.961  14.994 -0.3173 -2.1509  0.4305
  681TIP3   OH223457   6.708   0.582  11.224  0.9342  0.4538 -0.1079
  681TIP3    H123458   6.651   0.519  11.178  1.0998  1.5956 -2.0097
  681TIP3    H223459   6.651   0.658  11.239  1.1476  0.4453  0.7542
  682TIP3   OH223460   2.757   0.237   0.773  0.3627  0.2588  0.1327
  682TIP3    H123461   2.818   0.304   0.740  0.7392  0.0003  0.2982
  682TIP3    H223462   2.684   0.288   0.810  1.2443  0.6288  1.4318
  683TIP3   OH223463   4.145   4.004   2.576 -0.3858  0.6748  0.3886
  683TIP3    H123464   4.099   4.026   2.494  1.4627 -0.0263 -0.9017
  683TIP3    H223465   4.190   3.922   2.556 -0.9604 -0.2378  2.5936
  684TIP3   OH223466   0.621   6.116   4.740  0.1415 -0.0959 -0.4512
  684TIP3    H123467   0.685   6.178   4.705  0.2005  0.1687  0.1085
  684TIP3    H223468   0.675   6.044   4.774  0.1315  0.0185 -0.1908
  685TIP3   OH223469   0.615   2.872  14.771  0.2879  0.5820  0.2180
  685TIP3    H123470   0.665   2.791  14.786 -0.6439 -0.3460 -1.3383
  685TIP3    H223471   0.524   2.844  14.778 -0.0573  1.2995 -1.1660
  686TIP3   OH223472   6.006   0.477  17.210  0.1297  0.1207 -0.0911
  686TIP3    H123473   6.040   0.435  17.131  0.4669  0.0825  0.0752
  686TIP3    H223474   5.912   0.459  17.208  0.1179  0.2274 -0.5481
  687TIP3   OH223475   5.120   5.545   1.626 -0.0721 -0.6393 -0.0339
  687TIP3    H123476   5.137   5.573   1.536 -0.4207 -0.6094 -0.0892
  687TIP3    H223477   5.200   5.499   1.651  0.4000  0.1449 -0.0456
  688TIP3   OH223478   6.605   1.466   0.075  0.4035 -0.7724 -0.0639
  688TIP3    H123479   6.637   1.551   0.107  0.5731 -1.2126  0.9754
  688TIP3    H223480   6.518   1.457   0.114 -0.1583 -0.5148 -1.2134
  689TIP3   OH223481   5.801   4.924   0.322 -0.5691 -0.0399 -0.1377
  689TIP3    H123482   5.741   4.929   0.397 -2.0435  0.8722 -1.3089
  689TIP3    H223483   5.767   4.851   0.270 -0.6057  0.3976 -0.7430
  690TIP3   OH223484   0.266   1.739   4.807  0.2679 -0.1781  0.3240
  690TIP3    H123485   0.335   1.739   4.873  0.4137 -1.2459  0.1864
  690TIP3    H223486   0.257   1.647   4.781  1.1283  0.3472 -2.0903
  691TIP3   OH223487   1.557   5.775  16.076  0.2303 -0.0402 -0.7034
  691TIP3    H123488   1.488   5.841  16.070 -0.5350 -0.6157  1.2168
  691TIP3    H223489   1.515   5.698  16.113  1.8197 -0.5005  0.2566
  692TIP3   OH223490   2.717   2.949  11.087 -0.5394 -0.4877  0.0193
  692TIP3    H123491   2.791   2.926  11.031  1.2394  1.1184  1.5532
  692TIP3    H223492   2.662   3.005  11.033 -1.0910 -2.3117 -1.3842
  693TIP3   OH223493   5.362   5.277   1.232  0.1716 -0.0897  0.5202
  693TIP3    H123494   5.387   5.286   1.140 -0.4165  1.3652  0.4740
  693TIP3    H223495   5.359   5.183   1.247  1.3438 -0.3426 -0.6430
  694TIP3   OH223496   6.400   5.925  11.566  0.3782 -0.1995  0.1011
  694TIP3    H123497   6.357   5.985  11.505 -1.2228 -0.9639  0.4108
  694TIP3    H223498   6.405   5.974  11.648 -1.1196 -0.5213  0.4137
  695TIP3   OH223499   5.425   0.900  12.340 -0.5989 -0.3885  0.4210
  695TIP3    H123500   5.414   0.841  12.265  0.9665 -0.2923  0.0692
  695TIP3    H223501   5.344   0.891  12.390 -0.8775 -1.9588 -0.2404
  696TIP3   OH223502   4.836   4.026   2.038 -0.7923  0.4587 -0.3261
  696TIP3    H123503   4.851   4.043   2.130 -1.9687  0.0886 -0.0430
  696TIP3    H223504   4.914   3.979   2.009 -0.3526  0.7011  0.4452
  697TIP3   OH223505   4.748   4.157   6.485 -0.5170  0.3721 -0.5441
  697TIP3    H123506   4.703   4.073   6.475 -0.2361  0.1004  0.3356
  697TIP3    H223507   4.710   4.195   6.565 -1.6093  1.7258 -1.6414
  698TIP3   OH223508   2.358   2.470   4.021  0.4779 -0.6066 -0.4545
  698TIP3    H123509   2.392   2.486   3.933 -0.5783  0.5923 -0.6693
  698TIP3    H223510   2.385   2.380   4.041  4.3740  0.4361 -0.2713
  699TIP3   OH223511   5.525   2.102   0.912 -0.0038 -0.0663 -0.0975
  699TIP3    H123512   5.525   2.134   0.822 -0.4884 -1.9456 -0.8002
  699TIP3    H223513   5.617   2.109   0.940  0.8496 -2.5163 -1.9317
  700TIP3   OH223514   1.456   0.051  13.681 -1.2096  0.5237 -0.4761
  700TIP3    H123515   1.384   0.042  13.743 -2.6303  1.4645 -1.9245
  700TIP3    H223516   1.423   0.014  13.600  0.3739 -0.0704 -0.8941
  701TIP3   OH223517   5.212   0.654   1.133 -0.4109 -0.0565  0.2853
  701TIP3    H123518   5.246   0.655   1.044 -0.7834  1.7976  0.1246
  701TIP3    H223519   5.119   0.633   1.123 -0.0563 -1.9006  0.4545
  702TIP3   OH223520   1.345   3.387  10.612  0.0321 -0.2828  0.3454
  702TIP3    H123521   1.308   3.394  10.524  0.8614 -0.2315 -0.0152
  702TIP3    H223522   1.305   3.309  10.649  0.5221 -0.9789 -0.5225
  703TIP3   OH223523   2.998   0.450   4.783 -0.0928  0.2247 -0.0676
  703TIP3    H123524   2.958   0.363   4.787 -0.2876  0.2529 -1.1182
  703TIP3    H223525   2.964   0.496   4.860 -0.6948 -0.3255  0.0023
  704TIP3   OH223526   1.409   4.937   5.049  0.0209 -0.0005  0.6096
  704TIP3    H123527   1.327   4.888   5.055 -0.7824  1.0188 -1.0975
  704TIP3    H223528   1.400   4.988   4.969  0.9463  2.6324  2.0532
  705TIP3   OH223529   6.321   6.250   2.947 -0.1139 -0.1265 -0.0077
  705TIP3    H123530   6.365   6.177   2.989 -0.5985  0.3256  1.3349
  705TIP3    H223531   6.250   6.210   2.896 -0.7521 -0.5777  1.1864
  706TIP3   OH223532   0.104   3.227  11.531 -0.5545 -0.7561  0.0776
  706TIP3    H123533   0.167   3.265  11.592  0.1350  0.9711 -1.6080
  706TIP3    H223534   0.018   3.250  11.566 -0.1691  0.4046  0.2941
  707TIP3   OH223535   3.446   0.859   0.313 -0.2721 -0.3604 -0.1099
  707TIP3    H123536   3.404   0.895   0.392 -0.6768 -0.9733 -0.0387
  707TIP3    H223537   3.478   0.774   0.340  0.7432 -0.0373 -0.2635
  708TIP3   OH223538   2.466   4.223  12.795  0.1024 -0.1826 -0.5951
  708TIP3    H123539   2.480   4.249  12.886 -0.2052  0.0763 -0.6219
  708TIP3    H223540   2.377   4.189  12.793  0.5157 -1.2924 -0.5540
  709TIP3   OH223541   4.239   6.650  12.853 -0.6387  0.3974  0.1700
  709TIP3    H123542   4.222   6.607  12.937  0.0566  1.9524  1.1602
  709TIP3    H223543   4.314   6.708  12.870  0.2679 -0.0791 -1.8341
  710TIP3   OH223544   2.934   4.268  15.899 -0.3972  0.2488 -0.0869
  710TIP3    H123545   2.843   4.276  15.869 -0.9389 -0.1803  1.3429
  710TIP3    H223546   2.984   4.251  15.819 -1.9569 -2.3514 -0.6582
  711TIP3   OH223547   5.423   4.166   0.916  0.6549 -0.2335 -0.2053
  711TIP3    H123548   5.475   4.110   0.974  1.5837 -1.0819 -1.8089
  711TIP3    H223549   5.455   4.255   0.934  0.5582 -0.4022  0.9268
  712TIP3   OH223550   5.739   6.124   4.983  0.1306  0.2271 -0.6262
  712TIP3    H123551   5.681   6.198   4.967 -1.9189 -1.3412 -1.0338
  712TIP3    H223552   5.771   6.099   4.896 -1.5450 -1.0856 -0.9237
  713TIP3   OH223553   5.094   5.059   0.490 -0.2442 -1.1191 -0.6654
  713TIP3    H123554   5.055   5.141   0.521 -1.6682 -1.9413 -0.1903
  713TIP3    H223555   5.039   5.033   0.416 -1.2959 -2.8351  0.6610
  714TIP3   OH223556   0.291   5.120  12.028 -0.3001 -0.4683  0.1838
  714TIP3    H123557   0.329   5.034  12.048 -2.5554 -1.6942 -0.4699
  714TIP3    H223558   0.235   5.140  12.103 -1.0066 -0.3311 -0.3706
  715TIP3   OH223559   1.071   6.297  14.966  0.3343  0.3769 -0.0936
  715TIP3    H123560   1.095   6.348  14.888  0.9187 -0.0374 -0.1938
  715TIP3    H223561   1.090   6.356  15.039 -1.2118  1.1575 -0.2897
  716TIP3   OH223562   5.295   1.218   5.889  0.2984  0.0674  0.0531
  716TIP3    H123563   5.314   1.232   5.982  0.3716 -0.4079  0.1143
  716TIP3    H223564   5.257   1.130   5.886  1.7968 -0.5897 -0.5495
  717TIP3   OH223565   6.208   6.415  15.225  0.3194 -0.0353 -0.4045
  717TIP3    H123566   6.140   6.477  15.251  1.4961  0.5645  1.5386
  717TIP3    H223567   6.208   6.349  15.295  1.5889 -0.1018 -0.4452
  718TIP3   OH223568   4.462   2.794  12.036 -0.1552 -0.1775  0.1166
  718TIP3    H123569   4.548   2.832  12.052  0.5571 -1.2723 -0.9709
  718TIP3    H223570   4.420   2.855  11.975  0.9626 -1.0192 -1.5823
  719TIP3   OH223571   6.635   1.762  12.701 -0.3920 -0.7947 -0.2407
  719TIP3    H123572   6.590   1.803  12.774 -1.3732 -2.9074  0.4116
  719TIP3    H223573   6.717   1.728  12.739 -0.3275 -0.8289 -0.4085
  720TIP3   OH223574   6.647   2.807  11.548 -0.2634  0.1967 -0.9209
  720TIP3    H123575   6.585   2.835  11.615 -0.5235 -0.4874 -0.8651
  720TIP3    H223576   6.715   2.875  11.548 -0.8583  0.8010 -0.7793
  721TIP3   OH223577   5.409   5.956  12.750  0.0458 -0.0041  0.2795
  721TIP3    H123578   5.367   5.954  12.664 -0.3029 -0.3732  0.4604
  721TIP3    H223579   5.502   5.967  12.730  0.1204 -1.3310 -0.1935
  722TIP3   OH223580   4.504   4.243  13.490 -0.1975  0.5547  0.1383
  722TIP3    H123581   4.511   4.212  13.580  0.8810 -1.2492 -0.5084
  722TIP3    H223582   4.411   4.234  13.469 -0.0869 -1.3903  0.3203
  723TIP3   OH223583   6.023   5.690   2.142 -0.2924 -0.1664 -0.0026
  723TIP3    H123584   6.081   5.615   2.133 -0.2754 -0.1920  0.2902
  723TIP3    H223585   6.042   5.724   2.230  0.2024  0.5988 -0.3948
  724TIP3   OH223586   6.086   6.341  11.876  0.6495 -0.2782  0.5053
  724TIP3    H123587   6.141   6.419  11.883  0.5816 -0.2128  0.3208
  724TIP3    H223588   6.073   6.329  11.782  0.2275 -0.2082  0.5533
  725TIP3   OH223589   0.983   1.102   6.563 -0.0282 -0.1920  0.6874
  725TIP3    H123590   0.973   1.105   6.659 -0.7351  0.0836  0.6107
  725TIP3    H223591   0.987   1.008   6.543  0.0535 -0.2525  0.9800
  726TIP3   OH223592   4.621   1.012  15.124  0.1431  0.2077  0.0927
  726TIP3    H123593   4.702   1.059  15.146 -0.0305 -0.0130  1.2983
  726TIP3    H223594   4.573   1.008  15.207 -0.5366 -0.7579 -0.3317
  727TIP3   OH223595   5.781   3.572  13.579 -0.2589  0.6329  0.0176
  727TIP3    H123596   5.845   3.624  13.529  0.2630 -0.9604 -1.0501
  727TIP3    H223597   5.831   3.539  13.654  0.0473 -0.1804 -0.5339
  728TIP3   OH223598   2.601   4.737   4.866 -0.0735 -1.6832 -0.5175
  728TIP3    H123599   2.602   4.661   4.923 -1.6379 -1.7613 -0.5462
  728TIP3    H223600   2.625   4.810   4.922  0.0265 -2.0009 -0.1459
  729TIP3   OH223601   4.002   0.666   3.894 -0.1915  0.3135  0.5062
  729TIP3    H123602   3.991   0.571   3.886 -0.0758  0.3158  0.2964
  729TIP3    H223603   3.984   0.685   3.986  1.9279 -0.2106  1.0921
  730TIP3   OH223604   0.532   4.929  14.369  0.6687  0.1352  0.1395
  730TIP3    H123605   0.488   4.846  14.384 -0.4176  0.3345 -1.6412
  730TIP3    H223606   0.469   4.995  14.396  1.7648  0.4499  2.1562
  731TIP3   OH223607   5.900   1.054  15.619 -0.2997  0.0935  0.2226
  731TIP3    H123608   5.838   1.102  15.565 -0.2690 -0.0332  0.0740
  731TIP3    H223609   5.975   1.036  15.562 -0.4039 -0.3190  0.2113
  732TIP3   OH223610   0.205   5.997  16.880 -0.0797  0.2009 -0.1124
  732TIP3    H123611   0.128   6.018  16.827 -1.0856 -1.2959  0.6943
  732TIP3    H223612   0.253   5.932  16.828  0.2583  0.5731 -0.2738
  733TIP3   OH223613   0.991   4.804  11.693  0.5095 -0.7730  0.6321
  733TIP3    H123614   1.017   4.884  11.648 -0.3651  0.2923  1.9476
  733TIP3    H223615   0.995   4.826  11.786 -1.0923 -1.8175  0.9875
  734TIP3   OH223616   5.549   6.161   4.407 -0.0369 -0.0532 -0.1432
  734TIP3    H123617   5.545   6.068   4.382 -1.5616  0.1352 -0.7197
  734TIP3    H223618   5.486   6.168   4.479  0.3072  0.4890  0.1114
  735TIP3   OH223619   5.765   4.818  12.567 -0.0138 -0.3014  0.5346
  735TIP3    H123620   5.740   4.730  12.542  0.6073 -0.7133  1.3038
  735TIP3    H223621   5.861   4.815  12.573 -0.0328  0.2299  1.2402
  736TIP3   OH223622   5.055   4.757  12.366 -0.3623 -0.0900  0.0041
  736TIP3    H123623   4.991   4.827  12.361  1.1779  1.3383 -1.0050
  736TIP3    H223624   5.071   4.733  12.275  0.5560 -0.3716  0.2257
  737TIP3   OH223625   1.514   0.386  12.017 -0.0197 -0.2110  0.6217
  737TIP3    H123626   1.512   0.298  11.981 -1.7620  0.2076 -0.4285
  737TIP3    H223627   1.535   0.374  12.110 -2.2287 -1.9437  0.9941
  738TIP3   OH223628   2.064   1.423  15.746 -0.0636  0.6513  0.1653
  738TIP3    H123629   1.975   1.414  15.780 -0.1705  0.4701 -0.1538
  738TIP3    H223630   2.111   1.347  15.780  0.5042  1.7347  1.9286
  739TIP3   OH223631   5.083   2.499  11.749 -0.1945 -0.0342 -0.0708
  739TIP3    H123632   5.025   2.501  11.672  0.6015  0.1635 -0.6780
  739TIP3    H223633   5.097   2.406  11.766 -1.3675 -0.1105  0.6231
  740TIP3   OH223634   6.611   4.614   5.351  0.5675  0.1284  0.0263
  740TIP3    H123635   6.579   4.527   5.374 -1.5479  0.7080 -0.5498
  740TIP3    H223636   6.630   4.656   5.435 -0.8214 -0.0280  0.4367
  741TIP3   OH223637   2.898   2.795   0.625 -0.3482 -0.4782 -0.5822
  741TIP3    H123638   2.861   2.753   0.547  0.1250 -0.6950 -0.6963
  741TIP3    H223639   2.903   2.888   0.602  1.0213 -0.7007 -1.3417
  742TIP3   OH223640   4.418   5.727   1.439 -0.0783 -0.5474  0.2442
  742TIP3    H123641   4.357   5.785   1.393  0.3532  0.1280  0.5000
  742TIP3    H223642   4.369   5.696   1.515  0.5532  1.7720  1.7084
  743TIP3   OH223643   6.127   1.264   4.987  0.4300  0.2961 -0.2936
  743TIP3    H123644   6.075   1.194   5.028  1.0896  0.0272  0.1173
  743TIP3    H223645   6.201   1.275   5.047  1.6894 -0.4447 -1.6539
  744TIP3   OH223646   3.058   2.201   5.092 -0.0017  0.0463  0.1628
  744TIP3    H123647   3.139   2.173   5.051 -0.2156  0.9114 -0.8780
  744TIP3    H223648   3.026   2.123   5.138  1.1369 -0.4382  0.1475
  745TIP3   OH223649   6.298   1.819   4.710 -0.2631 -0.4435 -0.5496
  745TIP3    H123650   6.390   1.840   4.698 -0.5454  0.5435 -1.0382
  745TIP3    H223651   6.292   1.725   4.692  0.9347 -0.9022  1.1731
  746TIP3   OH223652   3.717   1.087   4.260  0.0228  0.3582 -0.0481
  746TIP3    H123653   3.642   1.073   4.318 -0.7892  0.6398 -1.0108
  746TIP3    H223654   3.681   1.133   4.185  1.5060  2.2508  0.3221
  747TIP3   OH223655   4.988   4.172  12.121  0.1667  0.2311 -0.2645
  747TIP3    H123656   4.980   4.158  12.027  0.7793 -0.0337 -0.2802
  747TIP3    H223657   4.922   4.238  12.141 -2.2904 -2.0243 -0.3486
  748TIP3   OH223658   5.824   5.887  11.781  0.1553  0.5188 -0.2983
  748TIP3    H123659   5.738   5.915  11.748 -0.1251  0.3916  0.3080
  748TIP3    H223660   5.814   5.887  11.876 -0.0401 -2.1135 -0.2439
  749TIP3   OH223661   0.615   0.180  14.122 -0.1195  0.0823  0.3184
  749TIP3    H123662   0.573   0.116  14.181  1.9278 -0.6196  1.1100
  749TIP3    H223663   0.565   0.260  14.135 -1.4058 -0.7797  0.9603
  750TIP3   OH223664   0.062   4.209   5.069  0.4887 -0.0905 -0.4713
  750TIP3    H123665   0.035   4.291   5.110 -0.3764 -0.7702  0.3903
  750TIP3    H223666   0.127   4.172   5.129 -0.8690 -1.1475  0.4157
  751TIP3   OH223667   3.517   5.971  14.376 -0.6987 -0.1163  0.3654
  751TIP3    H123668   3.565   6.054  14.371 -1.5586  0.3329 -0.8987
  751TIP3    H223669   3.475   5.973  14.462 -0.1429  0.4332  0.6328
  752TIP3   OH223670   0.950   5.221  12.077  0.5035  0.3865  0.4007
  752TIP3    H123671   0.994   5.220  11.992 -1.0479 -0.3057 -0.4417
  752TIP3    H223672   0.996   5.288  12.128  0.3183  2.1372 -1.6107
  753TIP3   OH223673   2.866   5.629  15.688 -0.1524 -0.4381 -0.3829
  753TIP3    H123674   2.847   5.720  15.711  0.0306 -0.2816 -0.8327
  753TIP3    H223675   2.786   5.597  15.645 -1.2539 -1.3521  2.1749
  754TIP3   OH223676   2.906   1.435  14.994 -0.0592  0.2921  0.1176
  754TIP3    H123677   2.940   1.359  14.947 -0.4520  1.2585 -1.8457
  754TIP3    H223678   2.815   1.414  15.011 -0.1551  0.3014 -0.3796
  755TIP3   OH223679   3.981   5.042   5.357 -0.2609  0.3455 -0.0161
  755TIP3    H123680   3.976   5.003   5.270 -0.7837 -2.0325  1.0147
  755TIP3    H223681   4.061   5.094   5.355  3.0146 -4.0852 -0.3518
  756TIP3   OH223682   2.533   4.974  12.736  0.1343 -0.3234 -0.1402
  756TIP3    H123683   2.601   4.988  12.801 -0.2303  0.2412  0.1250
  756TIP3    H223684   2.553   4.888  12.699  0.8270 -0.2872  0.1269
  757TIP3   OH223685   4.901   1.519  12.502 -0.5187 -0.4318  1.5585
  757TIP3    H123686   4.948   1.462  12.440 -0.9872  0.5194  0.2818
  757TIP3    H223687   4.968   1.546  12.565  0.2949 -0.3959  0.7094
  758TIP3   OH223688   2.841   0.067  15.295  0.1434  0.7088  0.2860
  758TIP3    H123689   2.876   0.146  15.336  0.6946  0.0406  1.1433
  758TIP3    H223690   2.829   0.006  15.367  0.2855 -0.2021 -0.4425
  759TIP3   OH223691   3.983   2.793   3.540 -0.2022  0.6138  0.2551
  759TIP3    H123692   4.024   2.867   3.495 -0.9208  0.2491 -1.0349
  759TIP3    H223693   3.954   2.735   3.470 -0.8665 -0.2381  1.2103
  760TIP3   OH223694   1.421   2.302   0.310  0.1674  0.2470 -0.5919
  760TIP3    H123695   1.506   2.280   0.348  0.3563  1.0194 -0.5549
  760TIP3    H223696   1.441   2.342   0.226 -0.0787  1.7089  0.0187
  761TIP3   OH223697   1.300   6.269  14.579  0.3002  0.1169 -0.1099
  761TIP3    H123698   1.241   6.196  14.562 -0.8518  1.1285 -0.5997
  761TIP3    H223699   1.244   6.346  14.577  1.3591  0.9686  1.1038
  762TIP3   OH223700   5.580   1.460   1.770 -0.4142  0.3514  0.1595
  762TIP3    H123701   5.650   1.398   1.790 -1.0021  0.1873  1.8577
  762TIP3    H223702   5.608   1.542   1.812  0.1580  1.1663 -1.7048
  763TIP3   OH223703   2.687   2.876   0.064 -0.1582 -0.5528 -0.1197
  763TIP3    H123704   2.631   2.816   0.113 -1.2859 -0.4757 -1.2676
  763TIP3    H223705   2.630   2.912  -0.004  1.5639 -1.4234 -2.1234
  764TIP3   OH223706   1.986   0.213  10.725 -0.6487  0.1324  0.1023
  764TIP3    H123707   2.052   0.149  10.700  1.2587  1.3222  1.7990
  764TIP3    H223708   2.009   0.291  10.675 -0.4594  0.6922  1.0375
  765TIP3   OH223709   5.070   3.139  14.060 -0.1953 -0.2763  1.1814
  765TIP3    H123710   5.097   3.051  14.087  0.5506 -1.1809 -2.1208
  765TIP3    H223711   5.135   3.166  13.996 -2.2285  1.2430 -0.3992
  766TIP3   OH223712   1.782   6.663   2.023  0.0355  0.3042 -0.3261
  766TIP3    H123713   1.708   6.722   2.033 -0.3570 -0.2181 -0.0734
  766TIP3    H223714   1.833   6.675   2.103  1.1751  1.9224 -1.2349
  767TIP3   OH223715   5.803   3.194  16.879 -0.3401 -0.0484  0.1611
  767TIP3    H123716   5.818   3.247  16.957 -2.0630 -1.6403  1.6755
  767TIP3    H223717   5.727   3.234  16.837 -0.6961 -0.3840  0.4710
  768TIP3   OH223718   3.246   3.620  14.661  0.9005  0.1043 -0.2075
  768TIP3    H123719   3.254   3.580  14.574  1.4199 -0.2956  0.0233
  768TIP3    H223720   3.166   3.672  14.655  0.5908 -0.4118 -0.7344
  769TIP3   OH223721   0.800   4.028   0.476 -0.1747  0.5846 -0.1824
  769TIP3    H123722   0.879   4.030   0.423 -1.2100  1.1438 -1.7607
  769TIP3    H223723   0.816   4.091   0.546  0.7767  0.6713 -0.4664
  770TIP3   OH223724   5.759   5.761   1.662  0.3599  0.2910 -0.1597
  770TIP3    H123725   5.826   5.785   1.726 -0.1524  1.7459 -0.1448
  770TIP3    H223726   5.693   5.714   1.713  0.2186  0.9572  0.2792
  771TIP3   OH223727   0.792   4.778  17.061  0.3574  0.0738 -0.1857
  771TIP3    H123728   0.759   4.789  16.972  0.5613  0.9414 -0.1678
  771TIP3    H223729   0.880   4.815  17.059  0.5852 -0.4318  0.2408
  772TIP3   OH223730   5.943   2.646  14.669  0.1858 -0.0165  0.2314
  772TIP3    H123731   5.946   2.654  14.764 -1.6606  1.9195  0.2207
  772TIP3    H223732   5.889   2.568  14.653  0.5905 -0.4105  0.7630
  773TIP3   OH223733   0.753   3.889   5.947 -0.1316 -0.3659  0.1788
  773TIP3    H123734   0.671   3.930   5.973 -0.5745 -0.2630 -1.3171
  773TIP3    H223735   0.728   3.820   5.885  0.9640  0.3321 -1.0884
  774TIP3   OH223736   3.199   3.064   1.051 -0.0945  0.8245  0.0391
  774TIP3    H123737   3.280   3.034   1.010  0.3463  0.0258  1.4468
  774TIP3    H223738   3.135   3.065   0.979  0.5862 -0.8247 -0.6303
  775TIP3   OH223739   2.812   0.302   5.571  0.1791 -0.3993  0.0969
  775TIP3    H123740   2.843   0.250   5.645  2.1450  0.0071 -0.3881
  775TIP3    H223741   2.782   0.384   5.611 -1.4789 -1.2456  0.6930
  776TIP3   OH223742   1.405   1.152   1.081 -0.3615 -0.3153 -0.2165
  776TIP3    H123743   1.432   1.061   1.081  1.9361  0.2740  1.5399
  776TIP3    H223744   1.403   1.177   0.989  1.7912 -1.4114 -0.6154
  777TIP3   OH223745   2.389   3.264  12.775 -0.4350 -0.1579 -0.2325
  777TIP3    H123746   2.346   3.347  12.795  1.2975  0.8908 -0.6807
  777TIP3    H223747   2.369   3.208  12.850 -0.6336  1.0746  0.6685
  778TIP3   OH223748   4.598   5.539  13.119  0.1755  0.1208 -0.1393
  778TIP3    H123749   4.693   5.529  13.125  0.1667 -0.3821 -0.6927
  778TIP3    H223750   4.578   5.617  13.171  1.0811  1.1693 -1.3187
  779TIP3   OH223751   4.119   1.918  13.380 -0.5932  0.0126 -0.1630
  779TIP3    H123752   4.150   1.911  13.471 -1.7819 -1.3730  0.1757
  779TIP3    H223753   4.120   2.011  13.361  0.3345  0.2731  1.0366
  780TIP3   OH223754   0.865   3.811  13.135 -0.4773  0.0485  0.3141
  780TIP3    H123755   0.862   3.881  13.200 -3.1638  0.5798 -0.2620
  780TIP3    H223756   0.828   3.735  13.180  0.8623 -0.5673  0.4188
  781TIP3   OH223757   5.892   2.840  16.196  0.3836  0.1576 -0.0133
  781TIP3    H123758   5.866   2.776  16.129  1.0900 -1.5077  1.2140
  781TIP3    H223759   5.868   2.798  16.279  0.4255  1.7347  0.8256
  782TIP3   OH223760   3.889   6.282   3.325  0.5036 -0.1636 -0.2957
  782TIP3    H123761   3.955   6.250   3.386 -0.0492 -0.5677  0.1051
  782TIP3    H223762   3.806   6.270   3.371  0.1442  0.2634 -0.8214
  783TIP3   OH223763   5.134   0.090   2.763  0.3324  0.1997 -0.3434
  783TIP3    H123764   5.056   0.093   2.707 -1.1225  1.2678  1.6131
  783TIP3    H223765   5.207   0.079   2.702 -1.2222  0.5676 -2.3770
  784TIP3   OH223766   1.644   5.350  15.329  0.6233 -0.0369 -0.4916
  784TIP3    H123767   1.688   5.370  15.247  0.6664  1.0274 -0.2363
  784TIP3    H223768   1.574   5.289  15.306  0.0141  0.9992 -1.4917
  785TIP3   OH223769   3.130   4.606   2.060 -0.0541  0.0065  0.3600
  785TIP3    H123770   3.212   4.651   2.081  1.3644 -0.9708 -2.5477
  785TIP3    H223771   3.074   4.675   2.024  1.0832  0.0807 -1.4456
  786TIP3   OH223772   1.593   3.369   0.009  0.4129  0.3238 -0.7942
  786TIP3    H123773   1.557   3.450  -0.026 -0.0710  0.6228  0.3369
  786TIP3    H223774   1.593   3.382   0.104 -3.5759 -2.4666 -0.1563
  787TIP3   OH223775   6.022   3.797   1.693  0.6933  0.1515  0.6052
  787TIP3    H123776   6.058   3.859   1.756  1.8347  0.8432 -0.6602
  787TIP3    H223777   6.098   3.767   1.643  0.1668 -2.2608  1.1329
  788TIP3   OH223778   4.738   5.141   2.594 -0.0936  0.1718  0.5967
  788TIP3    H123779   4.740   5.174   2.684 -0.1253 -1.1174  1.0956
  788TIP3    H223780   4.647   5.150   2.567 -0.3908 -0.7645  1.2315
  789TIP3   OH223781   1.862   4.732  13.903  0.3388 -0.0095  0.3157
  789TIP3    H123782   1.806   4.809  13.914 -0.6016 -0.4921 -0.8230
  789TIP3    H223783   1.935   4.762  13.850  0.3770  0.2878  0.5406
  790TIP3   OH223784   2.240   1.173  11.351 -0.0719  0.2831 -0.1719
  790TIP3    H123785   2.190   1.145  11.274 -0.6711 -1.7405  0.8901
  790TIP3    H223786   2.322   1.125  11.345  1.4200  2.7433 -1.3060
  791TIP3   OH223787   0.011   0.728   1.574  0.4189  0.0518 -0.5471
  791TIP3    H123788   0.017   0.680   1.492  2.4261 -0.6276 -0.0522
  791TIP3    H223789   0.061   0.808   1.558  0.7365 -0.0393 -0.0208
  792TIP3   OH223790   5.346   5.067   2.231 -0.0032 -0.0555  0.2115
  792TIP3    H123791   5.441   5.068   2.239 -0.0608  1.5066  1.2579
  792TIP3    H223792   5.329   5.115   2.150  0.1067 -1.3170 -0.5825
  793TIP3   OH223793   0.741   2.213   2.867 -0.4095 -0.7108  0.1338
  793TIP3    H123794   0.783   2.294   2.896 -0.2862 -0.9372  0.5921
  793TIP3    H223795   0.720   2.228   2.775 -1.9168  0.4971  0.6313
  794TIP3   OH223796   5.681   0.029  11.734 -0.1226  0.2971  0.4279
  794TIP3    H123797   5.633  -0.004  11.658  0.1060 -0.2502  0.5130
  794TIP3    H223798   5.724  -0.049  11.771 -1.2174  0.3046  1.8403
  795TIP3   OH223799   4.584   1.023  15.462 -0.2140 -0.0511 -0.0535
  795TIP3    H123800   4.507   1.070  15.431 -0.7683  0.0859  1.4457
  795TIP3    H223801   4.571   0.933  15.431 -1.6383 -0.3323  1.2378
  796TIP3   OH223802   5.581   2.339   4.306 -0.1487 -0.4447 -0.1769
  796TIP3    H123803   5.666   2.378   4.326 -0.3015  0.1789 -0.6959
  796TIP3    H223804   5.578   2.260   4.359 -0.0051  0.4579  1.2248
  797TIP3   OH223805   0.179   5.676   3.668  0.1755  0.2538 -0.1208
  797TIP3    H123806   0.262   5.703   3.630  0.2593 -2.6211 -2.3838
  797TIP3    H223807   0.202   5.631   3.749  0.6615  0.8781  0.0867
  798TIP3   OH223808   0.304   1.468   4.753 -0.3315  0.6190 -0.0150
  798TIP3    H123809   0.310   1.446   4.846 -1.3143  0.3095 -0.0056
  798TIP3    H223810   0.289   1.384   4.709  1.0204  0.6417 -0.5681
  799TIP3   OH223811   6.600   1.488  12.733 -0.0779  0.3786  0.1739
  799TIP3    H123812   6.695   1.479  12.720 -0.1038 -1.4276  0.8671
  799TIP3    H223813   6.585   1.582  12.734  1.3662  0.7319 -2.2583
  800TIP3   OH223814   2.275   2.090  12.316  0.6990  0.0740  0.5680
  800TIP3    H123815   2.250   2.036  12.391  1.8544 -1.2638  0.0516
  800TIP3    H223816   2.218   2.166  12.320 -0.9719 -1.1572  1.3723
  801TIP3   OH223817   3.292   6.053   2.755 -0.2406  0.3841 -0.2144
  801TIP3    H123818   3.309   5.969   2.797  0.5004  1.0265  0.7957
  801TIP3    H223819   3.301   6.034   2.661 -1.1420 -0.8848 -0.0747
  802TIP3   OH223820   2.409   4.446   2.279 -0.0978 -0.0235 -0.0330
  802TIP3    H123821   2.455   4.380   2.228  0.7022 -0.2255  0.9246
  802TIP3    H223822   2.476   4.483   2.337 -0.9220  0.3757  0.6937
  803TIP3   OH223823   0.670   0.359   4.434  0.2415 -0.3522  0.3041
  803TIP3    H123824   0.718   0.276   4.442  1.0401  0.1334  0.7110
  803TIP3    H223825   0.585   0.334   4.399  1.7036 -0.9794 -3.3047
  804TIP3   OH223826   3.873   1.939  15.198  0.4725  0.6016 -0.7541
  804TIP3    H123827   3.899   1.934  15.106 -0.1499  1.2172 -0.9683
  804TIP3    H223828   3.936   1.999  15.238  1.1116 -0.1391 -0.6430
  805TIP3   OH223829   0.740   4.239   2.544  0.3056 -0.6065  0.1225
  805TIP3    H123830   0.649   4.222   2.521  0.9668 -1.9842 -1.8353
  805TIP3    H223831   0.750   4.334   2.536 -1.2149 -0.2967  1.5744
  806TIP3   OH223832   1.317   0.433   3.856  0.2607 -0.4538  0.4059
  806TIP3    H123833   1.280   0.411   3.770 -0.0512  0.4912  0.2882
  806TIP3    H223834   1.249   0.406   3.918 -0.3881  0.7036  0.2248
  807TIP3   OH223835   1.049   2.147   1.778 -0.0633 -0.4314  1.0036
  807TIP3    H123836   1.121   2.173   1.720 -0.3900  0.3242  0.9256
  807TIP3    H223837   0.992   2.094   1.722 -0.6205  0.6881  0.4827
  808TIP3   OH223838   3.663   3.719   1.935 -0.6705 -0.1455  0.1238
  808TIP3    H123839   3.613   3.641   1.911  1.4315 -1.0875 -1.3929
  808TIP3    H223840   3.738   3.686   1.984  0.3858  0.8569 -0.7546
  809TIP3   OH223841   4.277   0.047  13.495 -0.2858 -0.3087 -0.2450
  809TIP3    H123842   4.317   0.032  13.580  1.8338  2.3370 -0.6630
  809TIP3    H223843   4.258   0.140  13.493  0.1655 -0.1881 -2.8158
  810TIP3   OH223844   0.697   5.719  13.141  0.0674  0.2910  0.1665
  810TIP3    H123845   0.721   5.651  13.078  1.6042  0.0351  0.9652
  810TIP3    H223846   0.676   5.671  13.222 -1.5953  0.6301 -0.0209
  811TIP3   OH223847   5.780   3.644  15.814 -0.6583 -0.4427  0.2376
  811TIP3    H123848   5.755   3.669  15.903 -4.1572 -2.9506  0.1851
  811TIP3    H223849   5.825   3.560  15.826  0.9344  0.3158 -0.2639
  812TIP3   OH223850   3.614   5.930   0.479 -0.3512  0.4928 -0.1245
  812TIP3    H123851   3.706   5.921   0.454 -0.3069 -0.4085  0.3293
  812TIP3    H223852   3.576   5.844   0.463 -0.5641  0.1825  1.8190
  813TIP3   OH223853   1.752   5.245  14.650  0.6591  0.0523 -0.1203
  813TIP3    H123854   1.809   5.296  14.706  1.8608 -2.4543  1.0962
  813TIP3    H223855   1.665   5.282  14.663  0.9896 -0.0597  3.0155
  814TIP3   OH223856   0.398   5.737  11.153 -0.3208 -0.4145  0.6844
  814TIP3    H123857   0.435   5.764  11.069 -0.9258  1.5722  1.0101
  814TIP3    H223858   0.332   5.803  11.173 -0.3995 -0.9982  2.6022
  815TIP3   OH223859   4.897   1.709  14.488  0.0105  0.5159  0.7080
  815TIP3    H123860   4.886   1.650  14.563 -0.0099 -0.1443  0.1982
  815TIP3    H223861   4.905   1.650  14.413 -0.8950  1.1904  0.0672
  816TIP3   OH223862   0.020   6.413   3.412 -0.1911 -0.7378  0.3227
  816TIP3    H123863   0.050   6.440   3.499  2.1363 -0.9865 -0.3242
  816TIP3    H223864  -0.071   6.441   3.408  0.1510  0.8546  2.1898
  817TIP3   OH223865   4.985   3.168  11.824 -0.7912 -0.3219 -0.8236
  817TIP3    H123866   4.955   3.204  11.741  0.3009 -0.6722 -1.3827
  817TIP3    H223867   5.063   3.117  11.802 -0.6498 -0.6578  0.3731
  818TIP3   OH223868   2.466   4.808  16.122 -0.0054  0.2886  0.4902
  818TIP3    H123869   2.542   4.760  16.154  1.0443  1.1021 -0.7256
  818TIP3    H223870   2.449   4.772  16.035 -0.2866  0.9231  0.2735
  819TIP3   OH223871   3.560   4.862  15.875  0.2017 -0.7158 -0.1244
  819TIP3    H123872   3.529   4.932  15.933  2.8148 -0.9486  1.7402
  819TIP3    H223873   3.547   4.897  15.787  1.2131  2.1428  0.7243
  820TIP3   OH223874   1.982   5.276  15.030  0.0624  0.1876 -0.5294
  820TIP3    H123875   1.966   5.318  15.115  2.1456 -0.1365  0.0826
  820TIP3    H223876   1.935   5.331  14.967 -0.9227  0.8579  0.7486
  821TIP3   OH223877   6.635   1.221   1.591 -0.4530 -0.5832 -0.0687
  821TIP3    H123878   6.726   1.223   1.620 -1.1630  0.9646  2.3821
  821TIP3    H223879   6.640   1.215   1.495  2.2287  0.7141 -0.0941
  822TIP3   OH223880   2.087   3.655   0.678  0.1747  0.0502 -0.0951
  822TIP3    H123881   2.073   3.712   0.754  1.0120 -0.4927  0.4849
  822TIP3    H223882   2.024   3.686   0.613  0.1809  1.2255  0.4308
  823TIP3   OH223883   6.412   0.384  16.526  0.1278 -0.5441 -0.3450
  823TIP3    H123884   6.373   0.396  16.439  1.5936 -0.9285 -1.0931
  823TIP3    H223885   6.478   0.454  16.532  0.6865 -1.0950  0.0627
  824TIP3   OH223886   5.632   0.974  16.218  0.0185  0.3693 -1.0693
  824TIP3    H123887   5.664   1.041  16.279 -0.6193 -0.6682  0.4521
  824TIP3    H223888   5.606   0.901  16.273 -1.4882 -0.2530 -2.5140
  825TIP3   OH223889   5.731   6.520  14.492  0.1590  0.0252 -0.0958
  825TIP3    H123890   5.723   6.515  14.397 -0.1418 -2.0839 -0.0067
  825TIP3    H223891   5.646   6.491  14.525 -0.0777  1.6879  0.8371
  826TIP3   OH223892   6.389   2.905  16.796 -0.5472  0.0617 -0.2568
  826TIP3    H123893   6.338   2.986  16.803  1.1529  1.1078  0.5260
  826TIP3    H223894   6.475   2.928  16.830 -0.3101 -2.3667  0.9681
  827TIP3   OH223895   2.536   5.286  15.436  0.2949  0.5084 -0.3312
  827TIP3    H123896   2.471   5.355  15.426  0.5485  0.6502 -1.1134
  827TIP3    H223897   2.620   5.330  15.419  0.4313 -0.0457 -1.1618
  828TIP3   OH223898   4.770   5.403  16.856  0.7519 -0.1930  0.4064
  828TIP3    H123899   4.754   5.309  16.867  3.0011 -0.6420  0.3946
  828TIP3    H223900   4.842   5.422  16.917  1.1480  1.2581 -0.4652
  829TIP3   OH223901   6.280   6.568  14.969  0.4626  0.0897 -0.0275
  829TIP3    H123902   6.255   6.502  15.034 -1.4481  1.5377  0.7895
  829TIP3    H223903   6.351   6.527  14.920 -0.5317 -2.5118  0.5428
  830TIP3   OH223904   1.003   0.382  13.048 -0.6516  0.5251  0.3841
  830TIP3    H123905   0.911   0.389  13.022 -0.6142 -1.9760 -0.6570
  830TIP3    H223906   1.051   0.425  12.977 -0.8125 -2.4994 -1.7366
  831TIP3   OH223907   4.770   1.085  16.879  0.2588 -0.6029  0.3017
  831TIP3    H123908   4.699   1.023  16.891  0.7827 -1.1153  0.8281
  831TIP3    H223909   4.828   1.044  16.815 -0.0755 -0.0380 -0.3771
  832TIP3   OH223910   6.640   0.929   4.497  0.0509  0.2505  0.0754
  832TIP3    H123911   6.652   0.994   4.566  0.5731  0.7464 -0.4698
  832TIP3    H223912   6.656   0.845   4.540 -1.7280  0.3519  1.0656
  833TIP3   OH223913   1.070   6.625   3.861  0.2670 -0.0164  0.1433
  833TIP3    H123914   0.994   6.684   3.863 -0.5803 -1.0994  1.3020
  833TIP3    H223915   1.053   6.566   3.788  1.6557  1.7868 -1.7412
  834TIP3   OH223916   2.654   1.110  15.535  0.6218  0.0304 -0.1310
  834TIP3    H123917   2.671   1.016  15.540  1.5977  0.2222  0.4209
  834TIP3    H223918   2.735   1.148  15.500  1.1351  0.8916  1.8199
  835TIP3   OH223919   0.506   3.276   4.495 -0.2211  0.3703  0.2568
  835TIP3    H123920   0.530   3.369   4.498  0.2134  0.3053 -0.7508
  835TIP3    H223921   0.411   3.276   4.505 -0.3592  1.0231 -0.8313
  836TIP3   OH223922   3.948   4.129  12.184  0.4589 -0.2534  0.1172
  836TIP3    H123923   3.958   4.216  12.145  0.2287 -0.7173 -1.0060
  836TIP3    H223924   3.856   4.106  12.168  0.3456 -0.4577  0.9682
  837TIP3   OH223925   5.256   4.539   2.820 -0.1706 -0.0274 -0.4776
  837TIP3    H123926   5.289   4.540   2.730 -0.1243  1.1679 -0.4743
  837TIP3    H223927   5.162   4.525   2.810 -0.5400  2.2403 -0.9171
  838TIP3   OH223928   2.043   4.001   4.198  0.1227 -0.6790  0.2240
  838TIP3    H123929   2.105   4.073   4.206 -1.2300  0.6452 -0.5489
  838TIP3    H223930   2.002   3.994   4.284  2.1445 -2.4123  1.1323
  839TIP3   OH223931   5.745   1.241   0.913 -0.4765 -0.0450  0.0046
  839TIP3    H123932   5.762   1.333   0.895  1.0360 -0.2869 -0.0079
  839TIP3    H223933   5.701   1.208   0.835  1.0948  0.1578 -1.0044
  840TIP3   OH223934   5.180   5.370   4.924  0.1733 -0.0014  0.0693
  840TIP3    H123935   5.152   5.381   5.016 -2.3237 -2.6321 -0.2317
  840TIP3    H223936   5.243   5.298   4.927 -2.0937 -2.1205 -0.4795
  841TIP3   OH223937   2.445   6.517   0.395 -0.3430  0.2789 -0.0449
  841TIP3    H123938   2.407   6.454   0.456  0.4713 -0.8284 -0.6514
  841TIP3    H223939   2.512   6.467   0.348  1.8100  2.0688  0.9132
  842TIP3   OH223940   3.454   4.732   0.493 -0.0338  0.0288 -0.2827
  842TIP3    H123941   3.371   4.762   0.531  0.1060  1.5961 -1.1330
  842TIP3    H223942   3.521   4.767   0.552  0.0700 -0.0381 -0.3605
  843TIP3   OH223943   5.959   3.917   6.733 -0.6296  0.0273 -0.2660
  843TIP3    H123944   5.984   3.910   6.641 -0.6620  0.3534 -0.2993
  843TIP3    H223945   5.960   3.827   6.765  0.0330 -0.0213 -0.4100
  844TIP3   OH223946   3.715   5.753  15.367  0.2759  0.5178  0.4489
  844TIP3    H123947   3.738   5.844  15.388 -0.7223  0.5618  1.4428
  844TIP3    H223948   3.690   5.755  15.275  0.5349  1.2073  0.3929
  845TIP3   OH223949   0.041   1.772  12.899  0.3267  1.0765 -0.1452
  845TIP3    H123950  -0.015   1.810  12.966 -1.4274 -0.9272 -0.3660
  845TIP3    H223951   0.055   1.681  12.928  0.1851  0.3901 -2.0667
  846TIP3   OH223952   5.463   1.112  14.246  0.3864  0.3210 -0.5892
  846TIP3    H123953   5.513   1.067  14.314  0.3125  3.1578  1.5631
  846TIP3    H223954   5.457   1.050  14.174  3.5089 -1.5954  0.6345
  847TIP3   OH223955   5.107   3.687  16.573 -0.5868 -0.0532 -0.7556
  847TIP3    H123956   5.121   3.670  16.666 -3.0625  1.5329 -0.0003
  847TIP3    H223957   5.119   3.602  16.530 -0.7292 -1.0957  1.1770
  848TIP3   OH223958   3.251   3.241  16.152  0.1215 -0.4019 -0.2984
  848TIP3    H123959   3.221   3.320  16.108 -1.1659 -0.3602  0.5776
  848TIP3    H223960   3.192   3.233  16.228  2.8334  0.1140  2.0167
  849TIP3   OH223961   3.021   3.929   4.019 -0.4872 -0.1594 -0.1540
  849TIP3    H123962   3.064   3.875   3.953 -1.1512  1.8514 -2.3673
  849TIP3    H223963   3.088   3.992   4.047 -1.0337  0.9410 -1.2392
  850TIP3   OH223964   5.180   6.229  12.621 -0.3344 -0.0189 -0.3987
  850TIP3    H123965   5.177   6.133  12.614 -1.6308  0.0687 -1.4864
  850TIP3    H223966   5.092   6.254  12.649  0.1519  0.8442  0.4373
  851TIP3   OH223967   5.055   5.409  12.259 -0.9994 -0.2126  0.3406
  851TIP3    H123968   5.145   5.440  12.259 -1.3001  0.7086  0.4283
  851TIP3    H223969   5.060   5.319  12.227 -0.2767  0.5756 -1.9836
  852TIP3   OH223970   4.518   0.901  16.829 -0.3624 -0.1336 -0.0404
  852TIP3    H123971   4.469   0.820  16.843 -0.1818  0.0648  2.2256
  852TIP3    H223972   4.458   0.958  16.782 -0.0012 -1.9876 -2.9839
  853TIP3   OH223973   1.302   5.906   2.575  0.3859  0.3028 -0.3785
  853TIP3    H123974   1.307   5.923   2.481 -0.0045  0.4009 -0.3820
  853TIP3    H223975   1.346   5.822   2.587 -2.2543 -1.2535 -1.0631
  854TIP3   OH223976   5.666   1.459   0.561 -0.0406 -1.1157  0.3625
  854TIP3    H123977   5.732   1.398   0.528 -0.7442 -0.2911 -2.9209
  854TIP3    H223978   5.699   1.546   0.536 -1.7631 -0.6125 -0.3049
  855TIP3   OH223979   0.805   0.655   0.675 -0.2319 -0.4744  0.2043
  855TIP3    H123980   0.861   0.585   0.642  0.8456  0.7795 -0.7098
  855TIP3    H223981   0.863   0.712   0.724 -0.4722  1.3129 -1.4691
  856TIP3   OH223982   5.595   2.540   2.772 -0.2257 -0.2145  0.0284
  856TIP3    H123983   5.681   2.515   2.739 -0.1966 -0.6286  0.4029
  856TIP3    H223984   5.534   2.506   2.707 -0.0386  1.9452 -1.3665
  857TIP3   OH223985   6.731   1.873   1.833 -0.6746  0.7173 -0.1094
  857TIP3    H123986   6.704   1.797   1.782 -0.1319  1.6725 -1.8919
  857TIP3    H223987   6.818   1.895   1.800  0.6453  0.1499  2.6903
  858TIP3   OH223988   6.024   2.735   1.680  0.1917 -0.3544  0.2179
  858TIP3    H123989   5.962   2.698   1.743  1.2759  0.9376  2.1769
  858TIP3    H223990   6.078   2.661   1.653 -1.4618 -1.2875 -0.7042
  859TIP3   OH223991   5.577   4.189  16.439 -0.1138  0.5566  0.0933
  859TIP3    H123992   5.576   4.119  16.374 -0.0931  0.4653  0.1925
  859TIP3    H223993   5.587   4.269  16.387  0.6873  0.4269  0.0350
  860TIP3   OH223994   2.562   2.200  13.332  0.1095  0.3005 -0.8086
  860TIP3    H123995   2.615   2.161  13.262  0.5367 -0.5199 -0.0569
  860TIP3    H223996   2.543   2.289  13.302 -0.7044 -0.4093 -2.4870
  861TIP3   OH223997   2.664   3.872  14.509 -0.6996 -0.3423  0.2355
  861TIP3    H123998   2.738   3.925  14.480  0.8076 -1.7939  1.2395
  861TIP3    H223999   2.587   3.923  14.485  0.6095  1.1514 -0.9937
  862TIP3   OH224000   5.903   6.351   1.039 -0.0174 -0.2141 -0.2157
  862TIP3    H124001   5.819   6.397   1.045  0.5222  0.8172 -0.2848
  862TIP3    H224002   5.967   6.416   1.067  0.8051 -0.8298 -0.6437
  863TIP3   OH224003   2.160   0.901   2.522 -0.3851 -0.0872 -0.3301
  863TIP3    H124004   2.081   0.848   2.508 -0.3778  0.1011 -1.1203
  863TIP3    H224005   2.232   0.841   2.502 -0.3732  0.1578 -1.0637
  864TIP3   OH224006   1.395   3.406  13.057  0.2771  0.4921 -0.6824
  864TIP3    H124007   1.333   3.337  13.035  0.1523 -0.0451  1.1339
  864TIP3    H224008   1.412   3.393  13.151 -0.8358  3.7600  0.0841
  865TIP3   OH224009   4.623   6.039  13.991  0.6748  0.0095 -0.6660
  865TIP3    H124010   4.581   5.982  13.927 -0.3661 -0.1885  0.1862
  865TIP3    H224011   4.610   6.127  13.956 -1.2765  0.0320  0.0184
  866TIP3   OH224012   6.061   6.248   3.211 -0.3719 -0.1559 -0.0373
  866TIP3    H124013   6.141   6.196   3.213  0.4069  1.0355  0.6723
  866TIP3    H224014   5.991   6.183   3.223  0.4889 -1.1690 -0.2734
  867TIP3   OH224015   4.562   6.524  13.841  0.3794  0.1500  0.2540
  867TIP3    H124016   4.593   6.469  13.914  0.9530  0.1253 -0.0079
  867TIP3    H224017   4.605   6.608  13.854  1.1018 -0.0987 -0.4996
  868TIP3   OH224018   1.719   3.533  10.844 -0.0119 -0.1089  0.1524
  868TIP3    H124019   1.700   3.626  10.833 -0.2498 -0.2634 -0.7714
  868TIP3    H224020   1.788   3.515  10.780 -0.5954 -0.7627 -0.2963
  869TIP3   OH224021   6.527   5.148   4.381  0.3045  0.0128 -0.2350
  869TIP3    H124022   6.484   5.068   4.351  1.1310 -0.3164 -0.5726
  869TIP3    H224023   6.545   5.131   4.474 -0.5364  0.2693 -0.0153
  870TIP3   OH224024   0.359   4.692   5.686  0.1173  0.6740 -0.4949
  870TIP3    H124025   0.309   4.620   5.646  0.7196  0.1198 -0.2649
  870TIP3    H224026   0.343   4.683   5.780  0.2949  0.7628 -0.4566
  871TIP3   OH224027   3.991   5.310   1.701 -0.5112 -0.0634  0.1261
  871TIP3    H124028   3.952   5.257   1.771  0.0024 -0.8441 -0.1602
  871TIP3    H224029   4.077   5.335   1.736 -0.4371 -0.0813 -0.0449
  872TIP3   OH224030   1.094   6.056   5.265 -0.1610 -0.4501  0.1405
  872TIP3    H124031   1.182   6.088   5.282  0.2674  0.0158 -2.4806
  872TIP3    H224032   1.103   5.961   5.262 -0.6610 -0.7567  4.0102
  873TIP3   OH224033   5.531   4.109   3.177 -0.2435  0.3328 -0.1803
  873TIP3    H124034   5.521   4.147   3.265  1.5399 -1.8124  1.0578
  873TIP3    H224035   5.549   4.185   3.121  1.0476  1.5785  1.7756
  874TIP3   OH224036   2.400   6.359   5.755  0.2260  0.1720  0.1062
  874TIP3    H124037   2.406   6.305   5.677 -0.1305  0.6335 -0.2489
  874TIP3    H224038   2.475   6.418   5.749  1.0584 -0.7682  0.8851
  875TIP3   OH224039   3.924   0.104  10.384  0.4592  0.0100 -0.0322
  875TIP3    H124040   3.995   0.158  10.348  0.4716  1.0049  1.4092
  875TIP3    H224041   3.846   0.158  10.374  0.3261 -0.0527  0.6650
  876TIP3   OH224042   3.896   1.339   2.076 -0.3949  0.0202 -0.2894
  876TIP3    H124043   3.806   1.331   2.106 -0.9729 -0.7063 -2.0637
  876TIP3    H224044   3.890   1.330   1.980  1.4408  0.9311 -0.5374
  877TIP3   OH224045   2.199   5.164   0.195  0.4302  0.2767  0.1812
  877TIP3    H124046   2.193   5.182   0.101 -1.5334  1.8611  0.5134
  877TIP3    H224047   2.112   5.130   0.218  0.3873  1.2449  1.6165
  878TIP3   OH224048   1.881   2.059   0.869  0.1283 -0.3218 -0.4150
  878TIP3    H124049   1.812   2.026   0.927 -0.1132 -0.6850 -0.8986
  878TIP3    H224050   1.962   2.024   0.906 -0.0997 -1.2330 -0.7578
  879TIP3   OH224051   4.630   5.785   3.897 -0.1788  0.8169 -0.2613
  879TIP3    H124052   4.665   5.863   3.940 -0.1878  1.1537 -0.8579
  879TIP3    H224053   4.594   5.818   3.814  0.4589  0.0717 -0.8465
  880TIP3   OH224054   0.026   6.330  13.003  0.0579  0.6209  0.4409
  880TIP3    H124055   0.042   6.394  13.073  0.4986  1.2618 -0.2261
  880TIP3    H224056   0.111   6.292  12.984  0.0813  1.0005 -0.2569
  881TIP3   OH224057   4.714   5.710   2.752 -0.0231  0.0857  0.2199
  881TIP3    H124058   4.699   5.785   2.695  0.5627 -0.4516 -0.6673
  881TIP3    H224059   4.781   5.740   2.814  0.8396  0.0579 -0.6605
  882TIP3   OH224060   6.133   4.344  12.435 -0.1051 -0.0066  0.1389
  882TIP3    H124061   6.187   4.383  12.504  0.2521 -0.9455  0.4045
  882TIP3    H224062   6.187   4.346  12.357 -0.2812  0.4984  0.0271
  883TIP3   OH224063   6.194   4.120  12.914 -0.4951 -0.3199 -0.1380
  883TIP3    H124064   6.289   4.133  12.915 -0.4556 -0.3830 -1.5253
  883TIP3    H224065   6.157   4.208  12.925 -0.2691 -0.2029 -0.3064
  884TIP3   OH224066   3.725   5.917  13.750 -0.0237  0.0683 -0.0769
  884TIP3    H124067   3.708   5.956  13.665 -1.9278  0.1103  0.2837
  884TIP3    H224068   3.648   5.939  13.803  1.8136  1.5038  2.2025
  885TIP3   OH224069   4.002   6.726   3.674  0.2430 -0.1698 -0.3899
  885TIP3    H124070   3.957   6.713   3.591  0.0407 -0.9004 -0.1716
  885TIP3    H224071   4.084   6.678   3.665 -0.6028 -1.8762  0.5021
  886TIP3   OH224072   0.430   1.268  13.554  0.1027 -0.6042 -0.3998
  886TIP3    H124073   0.469   1.215  13.485 -0.4921 -0.5060 -0.8164
  886TIP3    H224074   0.410   1.205  13.624  0.0790 -0.8161 -0.5949
  887TIP3   OH224075   0.863   6.314  11.364 -0.3428 -0.2848  0.1405
  887TIP3    H124076   0.931   6.353  11.310 -0.1577 -2.1121 -1.0253
  887TIP3    H224077   0.898   6.228  11.390 -1.1658 -0.2058  1.6802
  888TIP3   OH224078   3.216   1.617  12.706 -0.5226 -0.2452  0.0399
  888TIP3    H124079   3.244   1.660  12.786 -2.1085 -0.2255  0.6131
  888TIP3    H224080   3.290   1.626  12.647  0.6813 -0.2586  1.4920
  889TIP3   OH224081   2.982   6.166  12.943  0.4824 -0.4581  0.1037
  889TIP3    H124082   3.031   6.125  12.872 -0.7391 -1.4074 -0.2451
  889TIP3    H224083   2.998   6.110  13.018  0.8181 -0.1382  0.2705
  890TIP3   OH224084   4.683   5.940   2.586  0.1759 -0.0366 -0.3723
  890TIP3    H124085   4.610   5.937   2.524  0.4594 -3.6109 -0.7690
  890TIP3    H224086   4.757   5.903   2.538  1.2978  0.1984  1.1072
  891TIP3   OH224087   5.265   4.874  14.152  0.0709 -0.2957 -0.5639
  891TIP3    H124088   5.322   4.928  14.098  0.3979 -0.2187 -0.1462
  891TIP3    H224089   5.316   4.857  14.232 -0.4091 -0.3951 -0.2731
  892TIP3   OH224090   1.535   5.556  15.550  0.4787  0.1138 -0.0424
  892TIP3    H124091   1.614   5.509  15.577  0.0486 -1.3244 -1.2030
  892TIP3    H224092   1.568   5.639  15.515  1.3849 -0.0529  0.3795
  893TIP3   OH224093   1.035   0.358   4.131  0.2939 -0.4279  0.0260
  893TIP3    H124094   1.028   0.299   4.056 -0.8772  0.2774 -0.4415
  893TIP3    H224095   0.948   0.358   4.171  0.0405  1.5053 -0.4085
  894TIP3   OH224096   4.258   1.374  13.755  0.1398 -0.2556 -0.5093
  894TIP3    H124097   4.303   1.445  13.710  0.2915 -0.8203 -1.2767
  894TIP3    H224098   4.306   1.363  13.837 -0.2032  0.8551 -0.1413
  895TIP3   OH224099   0.675   5.603  14.032  0.1184  0.3606  0.1228
  895TIP3    H124100   0.582   5.617  14.048 -0.1794 -1.4027  0.2077
  895TIP3    H224101   0.691   5.514  14.064  1.2038 -0.4258 -2.4033
  896TIP3   OH224102   2.134   0.805  14.893 -0.1603 -0.3225 -0.4646
  896TIP3    H124103   2.151   0.818  14.800 -0.5119  0.0030 -0.4880
  896TIP3    H224104   2.220   0.815  14.935 -0.3932  2.4206 -0.4637
  897TIP3   OH224105   1.495   1.934   1.687 -0.1991  0.1919 -0.5019
  897TIP3    H124106   1.531   1.949   1.599 -1.7260  1.4349 -0.9451
  897TIP3    H224107   1.537   2.000   1.742  0.2379 -0.1432 -0.4243
  898TIP3   OH224108   1.185   5.316  15.216  0.1094  0.3966  0.3727
  898TIP3    H124109   1.163   5.223  15.216  0.1899  0.3656 -1.0724
  898TIP3    H224110   1.230   5.329  15.300 -0.9929 -0.5788  1.1692
  899TIP3   OH224111   4.184   5.957  10.922  0.7463 -0.6829  0.2278
  899TIP3    H124112   4.210   6.044  10.892  0.9023 -1.2871 -1.5127
  899TIP3    H224113   4.248   5.898  10.883 -0.0460 -1.6890  0.4113
  900TIP3   OH224114   3.839   4.768  11.772 -0.2291 -0.2123 -0.0601
  900TIP3    H124115   3.849   4.705  11.844  1.7145 -1.0075 -0.9355
  900TIP3    H224116   3.859   4.717  11.694 -0.9775  0.9634 -1.0402
  901TIP3   OH224117   6.443   2.012   0.649 -0.3804 -0.1290  0.1745
  901TIP3    H124118   6.530   1.972   0.654 -1.1923 -1.8699  2.2044
  901TIP3    H224119   6.446   2.083   0.713 -0.4002 -0.0925  0.1349
  902TIP3   OH224120   4.609   5.908  13.714 -0.3792 -0.1090  0.2357
  902TIP3    H124121   4.573   5.950  13.636 -1.3844 -0.7736  0.3205
  902TIP3    H224122   4.578   5.818  13.710 -1.2188  0.0614  1.8604
  903TIP3   OH224123   4.201   0.303   0.532  0.1156 -0.7279 -0.5670
  903TIP3    H124124   4.157   0.362   0.594  0.8000 -0.4004 -0.3783
  903TIP3    H224125   4.134   0.281   0.468 -0.4268 -0.5514 -0.0685
  904TIP3   OH224126   6.042   3.218   4.497 -0.1372  0.0570 -0.0705
  904TIP3    H124127   5.996   3.140   4.528  0.8976 -0.2222  0.8299
  904TIP3    H224128   6.135   3.197   4.507  0.1728  1.6578  0.9075
  905TIP3   OH224129   4.288   3.478   1.745  0.6373 -0.1250  0.9068
  905TIP3    H124130   4.224   3.549   1.754  0.1180 -0.3757 -0.5674
  905TIP3    H224131   4.348   3.509   1.676  0.8719 -0.7830  0.8091
  906TIP3   OH224132   0.487   3.509   4.760  0.1557  0.4217  0.0981
  906TIP3    H124133   0.467   3.520   4.667  1.1417 -1.0837 -0.3304
  906TIP3    H224134   0.552   3.577   4.778  0.5198  0.2561 -0.5299
  907TIP3   OH224135   4.854   6.721  12.689  0.3543 -0.1158  0.3935
  907TIP3    H124136   4.940   6.703  12.650  0.7373  1.2831  0.5473
  907TIP3    H224137   4.817   6.634  12.706  1.6334 -0.7402  0.1061
  908TIP3   OH224138   3.756   0.506   0.406  0.1888  0.1188  0.8142
  908TIP3    H124139   3.699   0.449   0.458 -0.3043  0.6526  0.8712
  908TIP3    H224140   3.809   0.552   0.470 -1.3427  1.7739  0.9845
  909TIP3   OH224141   0.742   4.007   6.367  0.5540  0.4256  0.0118
  909TIP3    H124142   0.741   3.912   6.377  1.3956  0.6753  4.5649
  909TIP3    H224143   0.820   4.025   6.315  0.5600 -1.3233 -0.6514
  910TIP3   OH224144   3.553   5.059  13.152  0.2420 -0.3578  0.6510
  910TIP3    H124145   3.462   5.086  13.140  0.6525  0.8642  0.1575
  910TIP3    H224146   3.570   5.072  13.245  0.0295 -0.2011  0.6693
  911TIP3   OH224147   0.501   3.947  13.690  0.0753  0.3023 -0.0761
  911TIP3    H124148   0.545   4.002  13.754  2.6848 -1.2458 -0.4033
  911TIP3    H224149   0.412   3.938  13.724  0.9376  0.7388  2.5507
  912TIP3   OH224150   1.188   4.601   1.464 -0.2465  0.2348  0.0196
  912TIP3    H124151   1.242   4.571   1.390 -1.0523 -0.1107 -0.4348
  912TIP3    H224152   1.236   4.676   1.498  2.7769 -2.4594  2.2938
  913TIP3   OH224153   3.902   4.834   3.221 -0.0235 -0.0889 -0.1657
  913TIP3    H124154   3.873   4.760   3.274  0.8376 -1.6551 -1.7307
  913TIP3    H224155   3.837   4.841   3.151 -0.1783  0.7458  0.0546
  914TIP3   OH224156   2.912   2.421   2.869  0.3019  0.3243  0.1257
  914TIP3    H124157   3.001   2.395   2.846 -0.3487 -1.9480 -0.1045
  914TIP3    H224158   2.872   2.449   2.787  0.5165  0.4495  0.0635
  915TIP3   OH224159   6.257   4.996  16.875 -0.0630  0.3389  0.7349
  915TIP3    H124160   6.165   5.004  16.852  0.0178 -2.5523 -1.1314
  915TIP3    H224161   6.275   5.072  16.930 -3.5394  0.9798  1.2077
  916TIP3   OH224162   1.641   0.696   0.324  0.3848  0.5386  0.6937
  916TIP3    H124163   1.634   0.715   0.418 -0.7330 -1.2947  1.0344
  916TIP3    H224164   1.730   0.664   0.313  0.8212  1.6320  0.9426
  917TIP3   OH224165   3.673   5.889  16.296  0.5822  0.2641  0.3522
  917TIP3    H124166   3.623   5.812  16.271 -1.1834  1.3964  0.2499
  917TIP3    H224167   3.761   5.855  16.316  0.5092 -1.4340 -1.8644
  918TIP3   OH224168   1.464   0.977  12.033  0.0570  0.0457 -0.3327
  918TIP3    H124169   1.557   0.998  12.031  0.4083 -0.8082  2.9072
  918TIP3    H224170   1.457   0.894  11.986  0.7984  0.3570 -1.0349
  919TIP3   OH224171   5.633   6.634   4.128 -0.1185 -0.4453  0.2216
  919TIP3    H124172   5.708   6.662   4.075  0.6304  1.2975  2.0908
  919TIP3    H224173   5.627   6.540   4.112  0.6953 -0.1799 -2.1269
  920TIP3   OH224174   0.114   5.963   3.990  0.2030 -0.3413 -0.2440
  920TIP3    H124175   0.056   5.922   4.054 -0.5836 -0.5664 -1.0695
  920TIP3    H224176   0.142   6.044   4.032  1.3743 -1.4514  1.2033
  921TIP3   OH224177   1.946   2.622  12.138 -0.3512 -0.0666 -0.2340
  921TIP3    H124178   1.869   2.565  12.147 -0.1096 -0.3808 -0.1626
  921TIP3    H224179   2.003   2.575  12.077  0.4985 -0.5973  0.9408
  922TIP3   OH224180   0.037   4.352   3.429  0.0516 -0.1915  0.0483
  922TIP3    H124181   0.122   4.348   3.385 -0.0381  1.9225 -0.4610
  922TIP3    H224182  -0.025   4.315   3.366  0.3385  0.0717 -0.3919
  923TIP3   OH224183   2.252   2.679  17.187 -0.0490  0.1234 -0.0646
  923TIP3    H124184   2.291   2.658  17.102 -1.5668  0.6562 -0.9338
  923TIP3    H224185   2.301   2.626  17.250  0.0706 -1.5136 -1.4594
  924TIP3   OH224186   1.135   0.340  11.764  0.4339  0.1126  0.0179
  924TIP3    H124187   1.191   0.415  11.782  1.9448 -0.7808 -0.7673
  924TIP3    H224188   1.193   0.276  11.724 -1.4622 -0.2825 -2.3055
  925TIP3   OH224189   2.909   3.371   2.375 -0.3454 -0.1063 -0.0662
  925TIP3    H124190   2.838   3.397   2.315  0.1207 -0.0686 -0.6052
  925TIP3    H224191   2.863   3.334   2.450 -1.0081  1.3926  0.3051
  926TIP3   OH224192   6.629   5.316   4.194 -0.5508  0.1564  0.0037
  926TIP3    H124193   6.587   5.268   4.265  0.6563 -0.6425  0.2188
  926TIP3    H224194   6.686   5.379   4.238  0.2711 -0.4029 -0.2113
  927TIP3   OH224195   3.048   1.488   5.133 -0.0191 -0.0715 -0.1941
  927TIP3    H124196   3.114   1.443   5.081  0.2206  1.6590 -1.4674
  927TIP3    H224197   2.966   1.473   5.086  0.1033  0.9736 -0.7855
  928TIP3   OH224198   5.220   4.781   4.735 -0.0945  0.2566  0.5112
  928TIP3    H124199   5.167   4.794   4.813 -0.3772 -1.1197  0.5742
  928TIP3    H224200   5.286   4.716   4.761  1.7199  1.9838  0.4636
  929TIP3   OH224201   5.337   2.888   1.722  0.1027  0.0490 -0.2692
  929TIP3    H124202   5.336   2.983   1.729 -0.7783 -0.0124  0.8814
  929TIP3    H224203   5.298   2.858   1.804  0.9817 -1.3271 -0.3246
  930TIP3   OH224204   4.858   5.993   0.712 -0.4509  0.6006  0.2477
  930TIP3    H124205   4.768   5.997   0.680 -0.0017  0.3918 -1.1418
  930TIP3    H224206   4.856   5.927   0.781 -1.4171  0.8327  0.4608
  931TIP3   OH224207   6.474   3.304  13.948  0.1628 -0.4678 -0.5175
  931TIP3    H124208   6.453   3.340  13.862 -0.9472 -0.8842 -0.4443
  931TIP3    H224209   6.456   3.375  14.009  1.3729 -0.0262 -0.6399
  932TIP3   OH224210   4.861   1.010  14.703 -0.2930 -0.2885 -0.1539
  932TIP3    H124211   4.832   1.074  14.768  2.8860  0.3567  0.7796
  932TIP3    H224212   4.842   0.925  14.742 -2.2012  0.0339 -0.2850
  933TIP3   OH224213   6.491   5.560  11.781  0.6493 -0.3261  0.0690
  933TIP3    H124214   6.570   5.613  11.773 -0.4506  1.3291 -0.4761
  933TIP3    H224215   6.450   5.588  11.862 -0.4346  0.4043 -0.6975
  934TIP3   OH224216   0.512   3.347  13.733  0.0287  0.0374 -0.0391
  934TIP3    H124217   0.594   3.338  13.685 -0.7780  1.0244 -1.6999
  934TIP3    H224218   0.506   3.440  13.755 -0.5973 -0.0375  0.1336
  935TIP3   OH224219   5.045   3.390  12.133 -0.4974 -0.7575 -0.6441
  935TIP3    H124220   5.066   3.480  12.159 -3.6600 -0.1264  0.1587
  935TIP3    H224221   5.090   3.335  12.196 -1.0487  0.4288  0.8311
  936TIP3   OH224222   3.875   3.883   2.846 -0.0204  0.0825 -1.0656
  936TIP3    H124223   3.794   3.904   2.893 -0.8098  0.6908 -2.6178
  936TIP3    H224224   3.851   3.810   2.788  1.0661 -0.9999 -0.1996
  937TIP3   OH224225   5.979   2.388   0.928  0.2970  0.2281 -0.5413
  937TIP3    H124226   6.053   2.338   0.892 -0.5984 -0.3908 -1.5860
  937TIP3    H224227   6.015   2.432   1.004  2.0469  0.8651 -1.6808
  938TIP3   OH224228   1.422   1.536  17.192  0.2144 -0.0758 -0.4940
  938TIP3    H124229   1.424   1.500  17.281 -1.6591 -0.5836 -0.5999
  938TIP3    H224230   1.411   1.460  17.135  1.1556  0.2665 -1.1590
  939TIP3   OH224231   5.517   3.936   6.510  0.4001 -1.0313 -0.2245
  939TIP3    H124232   5.467   3.975   6.582  1.1464 -0.2270 -0.1257
  939TIP3    H224233   5.451   3.892   6.456 -0.2967 -0.7455  0.3837
  940TIP3   OH224234   4.159   0.385  14.649 -0.3397  0.3761 -0.2393
  940TIP3    H124235   4.066   0.406  14.634 -0.4060  0.9329  0.8205
  940TIP3    H224236   4.180   0.431  14.730  0.1965 -1.7687  0.8946
  941TIP3   OH224237   0.992   0.362   5.532 -0.4823 -0.5650 -0.1065
  941TIP3    H124238   0.935   0.331   5.603  1.9695  0.1225  2.3195
  941TIP3    H224239   0.931   0.393   5.465 -2.9491 -3.2177  0.7052
  942TIP3   OH224240   0.636   1.120   4.772 -0.0838  0.0985 -0.0389
  942TIP3    H124241   0.731   1.106   4.770 -0.1765 -0.6154 -2.2576
  942TIP3    H224242   0.625   1.215   4.777  0.7378  0.1805  0.3410
  943TIP3   OH224243   1.089   2.873  13.913  0.0844  0.2917 -0.1542
  943TIP3    H124244   1.123   2.887  13.825  2.2061 -1.5773  0.2574
  943TIP3    H224245   0.994   2.879  13.904  0.1459 -1.3278 -2.8975
  944TIP3   OH224246   3.923   4.391   1.879  0.1044 -0.1171 -0.2239
  944TIP3    H124247   4.007   4.437   1.886  0.0298 -0.2085  2.1756
  944TIP3    H224248   3.942   4.312   1.829  1.6853 -0.5779  1.0391
  945TIP3   OH224249   5.885   1.980   5.276  0.0814 -0.0027  0.4961
  945TIP3    H124250   5.979   1.992   5.269  0.1559 -0.4503  0.6546
  945TIP3    H224251   5.849   2.069   5.276  0.6970  0.3249  3.0187
  946TIP3   OH224252   0.595   1.227   3.714  0.7220  0.5788 -0.2991
  946TIP3    H124253   0.582   1.303   3.770 -0.4236  0.8736 -0.9280
  946TIP3    H224254   0.642   1.164   3.769  1.3714  1.5941  0.3370
  947TIP3   OH224255   3.890   1.789  10.760  0.5083 -0.1702 -0.2062
  947TIP3    H124256   3.895   1.695  10.742  1.6333 -0.5659  1.8352
  947TIP3    H224257   3.934   1.830  10.686 -0.4072 -1.1927 -1.3565
  948TIP3   OH224258   6.263   5.466  11.243  0.0730 -0.0001  0.1784
  948TIP3    H124259   6.239   5.402  11.310 -0.6035 -0.7626 -0.7625
  948TIP3    H224260   6.181   5.510  11.222 -0.0956 -1.0188 -1.4210
  949TIP3   OH224261   6.562   5.185  16.567  0.3509 -0.6444  0.3430
  949TIP3    H124262   6.579   5.091  16.560 -0.9975 -0.8262 -1.1048
  949TIP3    H224263   6.550   5.214  16.476  0.5719  0.9003  0.7750
  950TIP3   OH224264   4.516   2.898   1.722 -0.0559 -0.0339  0.4130
  950TIP3    H124265   4.552   2.815   1.752  1.0135  0.5265  0.7125
  950TIP3    H224266   4.431   2.875   1.684  0.6797 -1.4181 -0.4843
  951TIP3   OH224267   4.845   4.082  14.335 -0.2042  0.3951  0.4086
  951TIP3    H124268   4.856   4.030  14.415  0.7232  1.3789  0.9472
  951TIP3    H224269   4.839   4.017  14.265 -1.1905 -0.4919  1.2795
  952TIP3   OH224270   0.405   0.816   3.311  0.3420  0.0440  0.2424
  952TIP3    H124271   0.405   0.908   3.285 -3.3759  0.4834  1.2222
  952TIP3    H224272   0.312   0.792   3.313  0.8912 -2.6027  3.7259
  953TIP3   OH224273   5.913   6.350  13.499 -0.0837  0.2492  0.0364
  953TIP3    H124274   5.930   6.346  13.593 -0.3594 -0.0619  0.0760
  953TIP3    H224275   5.850   6.280  13.483 -0.6742  0.8288 -0.2379
  954TIP3   OH224276   3.668   0.230  16.495 -0.6803  0.2957 -0.0445
  954TIP3    H124277   3.656   0.281  16.415  1.7877  2.7053  0.9517
  954TIP3    H224278   3.594   0.255  16.550  0.0086  2.2298  0.0721
  955TIP3   OH224279   2.662   6.175   1.635  0.0137 -0.3642  0.3499
  955TIP3    H124280   2.614   6.257   1.622 -0.6164 -1.0534 -2.2374
  955TIP3    H224281   2.717   6.191   1.712  0.4987  2.7694 -0.5048
  956TIP3   OH224282   4.391   5.682   2.455 -0.0497  0.0079  0.1906
  956TIP3    H124283   4.312   5.628   2.445 -0.5419  0.5500  1.0711
  956TIP3    H224284   4.434   5.677   2.369 -0.7091 -0.8014 -0.1066
  957TIP3   OH224285   1.580   3.896   1.113  0.1471  0.1049  0.1606
  957TIP3    H124286   1.507   3.947   1.146  0.7265  0.8631  0.2880
  957TIP3    H224287   1.540   3.815   1.080 -0.8594  0.9235 -0.6658
  958TIP3   OH224288   2.334   2.003   0.070 -0.1250 -0.0500  0.7261
  958TIP3    H124289   2.307   1.912   0.064  0.7315 -0.6151  3.6717
  958TIP3    H224290   2.373   2.011   0.157  1.9235  2.5834 -0.2654
  959TIP3   OH224291   5.350   5.032  12.028 -0.8764 -0.1608  0.3767
  959TIP3    H124292   5.341   5.022  11.933 -2.0260  1.4016  0.2878
  959TIP3    H224293   5.435   5.074  12.039 -0.6918 -0.4418  0.0533
  960TIP3   OH224294   2.253   0.539   3.322 -0.1380 -0.3221 -0.3514
  960TIP3    H124295   2.195   0.464   3.327  2.5600 -2.6626 -1.2192
  960TIP3    H224296   2.308   0.522   3.246  1.8090  1.6086  0.4987
  961TIP3   OH224297   6.748   3.916   5.277  0.4993  0.1639  0.1015
  961TIP3    H124298   6.685   3.875   5.337  0.9577 -0.3503  0.2336
  961TIP3    H224299   6.712   4.004   5.262  0.0728  0.0933  0.6639
  962TIP3   OH224300   2.394   2.333  16.298  0.0020  0.3091 -0.0166
  962TIP3    H124301   2.430   2.375  16.220 -0.9758  1.2312  0.0083
  962TIP3    H224302   2.428   2.244  16.294  2.3115  1.1051  0.0385
  963TIP3   OH224303   4.987   2.305   6.385  0.4363  0.3175  0.3310
  963TIP3    H124304   4.902   2.263   6.370  0.0846  1.0853  0.1415
  963TIP3    H224305   5.021   2.262   6.463  0.1423 -0.4086  0.0732
  964TIP3   OH224306   2.806   1.473   3.346 -0.3609  0.2360 -0.0753
  964TIP3    H124307   2.749   1.433   3.412  0.7831 -0.1812  0.6776
  964TIP3    H224308   2.871   1.521   3.397  1.3797 -1.2215 -0.8390
  965TIP3   OH224309   6.486   1.914  12.432 -0.0144 -0.5380 -0.5520
  965TIP3    H124310   6.420   1.854  12.466 -0.9165  1.1135  0.7486
  965TIP3    H224311   6.504   1.883  12.343  1.4746 -4.2933  0.8511
  966TIP3   OH224312   6.624   3.814  11.347  0.4425  0.3243 -0.8145
  966TIP3    H124313   6.616   3.908  11.331  0.4057  0.4258 -0.1961
  966TIP3    H224314   6.708   3.803  11.390  0.2405  0.1262 -0.4650
  967TIP3   OH224315   1.048   6.459   5.776  0.5307  0.3528 -0.1686
  967TIP3    H124316   1.096   6.529   5.732  1.1398 -0.4511 -0.8322
  967TIP3    H224317   1.101   6.380   5.759 -0.5114 -0.3828 -0.0585
  968TIP3   OH224318   3.218   1.527  11.382 -0.0821  0.0281 -0.3252
  968TIP3    H124319   3.302   1.501  11.345 -0.2952  0.3431 -1.0678
  968TIP3    H224320   3.188   1.450  11.430 -0.0544 -0.6137 -1.3012
  969TIP3   OH224321   0.333   5.056   5.518 -0.3317 -0.1369 -0.6244
  969TIP3    H124322   0.353   5.131   5.574 -1.8182 -0.6997  0.7250
  969TIP3    H224323   0.397   4.990   5.543 -0.2749  0.0044 -0.3953
  970TIP3   OH224324   3.842   4.145  15.091 -0.0151  0.1133  0.4156
  970TIP3    H124325   3.763   4.098  15.117  0.1445  1.0651  2.9833
  970TIP3    H224326   3.831   4.163  14.998 -3.0422  0.5879  0.7757
  971TIP3   OH224327   2.051   6.435   1.639  0.1349 -0.3043 -0.0610
  971TIP3    H124328   2.043   6.341   1.656 -0.8991  0.1828  2.6699
  971TIP3    H224329   1.966   6.471   1.664  0.8273  1.4964 -0.1508
  972TIP3   OH224330   4.720   2.493  14.162  0.2157 -0.0765  0.5742
  972TIP3    H124331   4.739   2.411  14.208 -2.7234 -1.6048 -0.6877
  972TIP3    H224332   4.790   2.502  14.098 -0.1737 -2.4658 -0.2594
  973TIP3   OH224333   0.467   0.695  13.141  0.0547  0.2804  0.1941
  973TIP3    H124334   0.406   0.637  13.187 -0.0017 -0.4557 -0.7784
  973TIP3    H224335   0.476   0.656  13.054 -1.5670  2.8097 -1.2252
  974TIP3   OH224336   1.234   2.963   0.567  0.7665  0.1172 -0.2027
  974TIP3    H124337   1.218   3.037   0.509  0.5282  0.3143  0.1088
  974TIP3    H224338   1.182   2.982   0.645  0.0724 -0.7506 -0.4307
  975TIP3   OH224339   2.463   1.147   3.651  0.2781  0.3537 -0.4561
  975TIP3    H124340   2.426   1.084   3.588 -0.9364  0.6967 -0.1103
  975TIP3    H224341   2.477   1.096   3.731  0.3486  0.2779 -0.5160
  976TIP3   OH224342   2.172   4.330   0.504  0.0608  0.1105 -0.1677
  976TIP3    H124343   2.174   4.269   0.578  0.2050 -1.0985 -1.1423
  976TIP3    H224344   2.249   4.306   0.452  0.8678  1.9959  0.0875
  977TIP3   OH224345   3.068   3.270  16.401  0.2658 -0.5386 -0.5364
  977TIP3    H124346   3.011   3.343  16.424  0.1957 -0.8500  0.3182
  977TIP3    H224347   3.061   3.209  16.474  0.8653 -1.0830 -0.9113
  978TIP3   OH224348   1.997   5.185   3.602 -0.0173  0.3348  0.4131
  978TIP3    H124349   2.089   5.172   3.625 -0.5474  0.0090  2.5365
  978TIP3    H224350   1.969   5.102   3.565  0.1174 -0.1381  1.3498
  979TIP3   OH224351   1.701   2.987   2.749  0.4543 -0.3894  0.6038
  979TIP3    H124352   1.634   2.971   2.682  1.1986  0.0121 -0.2452
  979TIP3    H224353   1.769   2.922   2.731 -0.1786 -1.5589  2.1624
  980TIP3   OH224354   3.149   0.062   0.861 -0.4105  0.6961  0.5284
  980TIP3    H124355   3.156   0.068   0.956  0.0090 -1.9298  0.7350
  980TIP3    H224356   3.055   0.067   0.844 -0.4667  1.4770  1.0451
  981TIP3   OH224357   4.933   4.284  10.669 -0.1935  0.3791  0.1635
  981TIP3    H124358   4.850   4.241  10.690 -0.0822  0.4365  0.7253
  981TIP3    H224359   5.000   4.223  10.698 -0.0323  0.9445  1.0106
  982TIP3   OH224360   4.970   0.813   5.097  0.0069 -0.4024  0.0330
  982TIP3    H124361   4.941   0.737   5.147 -0.9202 -0.7608 -0.9926
  982TIP3    H224362   4.890   0.865   5.084  0.2859 -0.1730 -0.8167
  983TIP3   OH224363   5.953   1.016   2.798 -0.8048 -0.0574  0.0795
  983TIP3    H124364   6.037   1.013   2.752 -1.2146 -0.4448 -0.6650
  983TIP3    H224365   5.899   1.075   2.745 -0.2920  2.0921  1.8133
  984TIP3   OH224366   6.212   1.454   5.542  0.8656  0.1513  0.1117
  984TIP3    H124367   6.239   1.544   5.523 -0.5850  0.2054 -1.9955
  984TIP3    H224368   6.285   1.418   5.592  2.4177  1.8847 -0.7529
  985TIP3   OH224369   0.740   2.035  14.817  0.3593  0.9067 -0.7996
  985TIP3    H124370   0.783   1.982  14.884 -0.6720 -0.4558 -1.1779
  985TIP3    H224371   0.770   1.998  14.734  0.9543  2.0326 -1.1112
  986TIP3   OH224372   2.245   3.871   1.092 -0.0939 -0.2623  0.4560
  986TIP3    H124373   2.167   3.923   1.071 -0.4398 -1.5929 -1.8274
  986TIP3    H224374   2.284   3.849   1.008  1.5852 -1.4065  1.4579
  987TIP3   OH224375   5.352   2.211   1.407 -0.8509 -0.3900  0.4542
  987TIP3    H124376   5.354   2.121   1.373 -1.7467 -0.0046 -0.6908
  987TIP3    H224377   5.288   2.208   1.478 -0.2817 -0.8231  0.9606
  988TIP3   OH224378   0.408   3.811   2.018 -0.3101  0.6629 -0.2504
  988TIP3    H124379   0.395   3.791   2.111 -0.8634 -0.5104 -0.5576
  988TIP3    H224380   0.454   3.734   1.983 -1.0190  0.6345 -1.1535
  989TIP3   OH224381   4.811   4.057  15.781  0.5838 -0.5976  0.1890
  989TIP3    H124382   4.765   3.978  15.751 -0.6598  0.2038 -0.0768
  989TIP3    H224383   4.900   4.047  15.746  0.6023 -2.1060  0.5808
  990TIP3   OH224384   1.803   5.918   3.807 -0.4414  0.0784  0.9433
  990TIP3    H124385   1.894   5.932   3.833 -0.2733 -0.5823  0.7491
  990TIP3    H224386   1.759   6.001   3.825  0.4935  0.8676 -0.2405
  991TIP3   OH224387   3.771   3.218   3.302 -0.4361 -0.0226 -0.2858
  991TIP3    H124388   3.703   3.267   3.257 -0.7939 -0.3265 -0.0767
  991TIP3    H224389   3.773   3.255   3.390  0.6508  0.9637 -0.6818
  992TIP3   OH224390   1.934   0.545   3.085 -0.4637 -0.3437 -0.2511
  992TIP3    H124391   1.916   0.452   3.078 -1.4022 -0.2681  0.8741
  992TIP3    H224392   1.881   0.585   3.015  0.2235 -0.6615 -0.9742
  993TIP3   OH224393   0.179   6.415   3.069 -0.3196 -0.7322  0.0832
  993TIP3    H124394   0.171   6.462   3.152 -1.2167 -1.5990  0.5144
  993TIP3    H224395   0.088   6.393   3.046 -0.1494  0.1442 -1.5198
  994TIP3   OH224396   0.362   5.250  12.715 -0.0155  0.3970 -0.7799
  994TIP3    H124397   0.358   5.281  12.625  0.6919 -1.5125 -1.5186
  994TIP3    H224398   0.306   5.310  12.764 -1.3520  0.7742 -2.6893
  995TIP3   OH224399   1.114   1.586   0.954 -0.1694  0.2173 -0.0185
  995TIP3    H124400   1.200   1.546   0.967 -0.1499  0.0954 -0.4894
  995TIP3    H224401   1.064   1.561   1.032 -0.5284 -1.7505 -0.8077
  996TIP3   OH224402   5.495   2.086   3.642  0.1878  0.3412  0.5614
  996TIP3    H124403   5.498   2.149   3.714 -2.7626 -0.6477  1.7004
  996TIP3    H224404   5.435   2.018   3.672 -1.9357  0.3004 -3.1461
  997TIP3   OH224405   5.766   1.232   4.876  0.0424 -0.6515 -0.0510
  997TIP3    H124406   5.817   1.255   4.798  0.2266 -3.3790 -0.8386
  997TIP3    H224407   5.709   1.160   4.847 -1.7810  0.0063  1.7075
  998TIP3   OH224408   0.195   0.454   5.672 -0.2659  0.6017  0.3940
  998TIP3    H124409   0.205   0.480   5.764  1.3849  1.5804 -0.0379
  998TIP3    H224410   0.123   0.508   5.640 -1.2881 -0.1919  1.2281
  999TIP3   OH224411   2.817   3.373  16.756  0.2667  0.0840 -0.4304
  999TIP3    H124412   2.871   3.372  16.835 -0.8384  0.8353  0.3663
  999TIP3    H224413   2.870   3.419  16.691  0.5086  1.0047  0.3941
 1000TIP3   OH224414   3.675   4.102   1.612 -0.0374  0.1079  0.1434
 1000TIP3    H124415   3.663   4.109   1.707  0.8106 -0.3508  0.2943
 1000TIP3    H224416   3.650   4.012   1.592  0.1326  0.0977 -0.0169
 1001TIP3   OH224417   0.919   1.650  12.331  0.2450  0.2552  0.0289
 1001TIP3    H124418   1.007   1.663  12.295  0.0852  1.0173 -0.0818
 1001TIP3    H224419   0.864   1.715  12.288 -0.4054 -0.2927  0.0143
 1002TIP3   OH224420   1.821   2.579  13.973  0.0828 -0.6632 -0.0462
 1002TIP3    H124421   1.815   2.577  13.878  0.9732 -0.2041 -0.1265
 1002TIP3    H224422   1.884   2.649  13.991  0.0999 -0.9070  0.8727
 1003TIP3   OH224423   1.754   2.071   2.555  0.2254  0.4422  0.7681
 1003TIP3    H124424   1.784   1.983   2.576 -1.5622  0.0820  2.0425
 1003TIP3    H224425   1.812   2.129   2.604  1.4305  0.0042 -0.1083
 1004TIP3   OH224426   1.599   4.165   4.122  0.4523 -0.6641 -0.1478
 1004TIP3    H124427   1.581   4.101   4.191 -1.0529  0.5802  0.6698
 1004TIP3    H224428   1.588   4.250   4.165 -0.6150  0.1459 -1.9399
 1005TIP3   OH224429   6.486   6.159   4.411  0.6350  0.0971  0.2491
 1005TIP3    H124430   6.477   6.249   4.443 -1.3372  0.4594 -1.1902
 1005TIP3    H224431   6.573   6.157   4.371  0.5285  1.5145 -0.0990
 1006TIP3   OH224432   1.031   1.782   4.527  0.1548 -0.3781 -0.5080
 1006TIP3    H124433   1.033   1.730   4.607 -1.1543 -0.9914 -0.8637
 1006TIP3    H224434   1.014   1.719   4.457  0.5884  0.2491 -1.2007
 1007TIP3   OH224435   3.643   6.150  16.268  0.0512  0.2875  0.4686
 1007TIP3    H124436   3.702   6.202  16.322 -0.3749  1.6050 -0.2922
 1007TIP3    H224437   3.665   6.059  16.289  2.3954  0.7250  0.1329
 1008TIP3   OH224438   1.645   4.351   0.056  0.1660 -0.0166  0.0593
 1008TIP3    H124439   1.716   4.403   0.096  1.2053 -1.0555 -0.3842
 1008TIP3    H224440   1.649   4.267   0.100 -0.8980 -0.0488  0.1113
 1009TIP3   OH224441   5.592   4.879  16.117  0.2787  0.3065 -0.1795
 1009TIP3    H124442   5.626   4.966  16.137  1.4282 -0.7732  3.0740
 1009TIP3    H224443   5.497   4.890  16.117  0.3982  1.4844  0.5395
 1010TIP3   OH224444   5.724   0.566  16.836  0.0146  0.3751  0.4099
 1010TIP3    H124445   5.681   0.536  16.756  0.5410 -0.3349  0.3726
 1010TIP3    H224446   5.803   0.611  16.805  0.0290  0.4212  0.5154
 1011TIP3   OH224447   1.035   2.343   3.560  0.5139  0.0205 -0.1639
 1011TIP3    H124448   1.093   2.365   3.488  0.5167 -0.1846 -0.2233
 1011TIP3    H224449   0.961   2.298   3.519 -0.8897  2.3767 -0.4219
 1012TIP3   OH224450   0.535   4.977  14.082  1.0537 -0.3153 -0.2700
 1012TIP3    H124451   0.628   4.965  14.102  1.3811  0.3927 -1.2913
 1012TIP3    H224452   0.500   5.020  14.160  2.4748  3.1639 -1.3589
 1013TIP3   OH224453   4.978   4.908   0.302 -0.4729 -0.4080 -0.7228
 1013TIP3    H124454   4.886   4.887   0.318 -0.5223  0.3093 -0.0042
 1013TIP3    H224455   4.988   4.904   0.207 -0.8348 -2.1255 -0.7235
 1014TIP3   OH224456   3.703   5.304  13.721  0.9118 -0.5665  0.5366
 1014TIP3    H124457   3.653   5.265  13.793  0.2079 -0.5287  0.0785
 1014TIP3    H224458   3.778   5.345  13.763 -0.0202  0.3514  1.3733
 1015TIP3   OH224459   5.769   1.956  13.359  0.1839 -0.6772 -0.1956
 1015TIP3    H124460   5.817   1.877  13.335  0.7990 -0.1981 -0.5698
 1015TIP3    H224461   5.826   2.028  13.332  0.6966 -0.0913  2.1757
 1016TIP3   OH224462   1.080   0.138   4.467 -0.1866 -0.3099 -0.1800
 1016TIP3    H124463   1.133   0.078   4.520 -1.1277 -0.8958  0.1324
 1016TIP3    H224464   1.135   0.159   4.392  1.8569  1.8365  1.7574
 1017TIP3   OH224465   3.175   6.528  17.008 -0.5820  0.3500 -0.2987
 1017TIP3    H124466   3.166   6.559  16.918 -0.9053  1.4298  0.0974
 1017TIP3    H224467   3.252   6.574  17.042  0.0485 -0.6890 -0.2736
 1018TIP3   OH224468   5.909   4.066  11.955  0.3256  0.7788 -0.0611
 1018TIP3    H124469   5.902   4.109  11.870  0.3039  2.7485  0.8910
 1018TIP3    H224470   6.003   4.051  11.967  0.3338  0.5566 -0.3900
 1019TIP3   OH224471   6.351   4.069  14.118  1.3052 -1.0406  0.1798
 1019TIP3    H124472   6.309   4.086  14.034 -1.0360 -0.1856  1.4427
 1019TIP3    H224473   6.346   3.974  14.128 -1.9828 -0.9020  0.9845
 1020TIP3   OH224474   1.618   4.413   4.265 -0.5091 -0.0101 -0.5033
 1020TIP3    H124475   1.649   4.475   4.331  1.3172 -1.3416 -0.0083
 1020TIP3    H224476   1.526   4.397   4.288 -0.3970  0.8784  0.6402
 1021TIP3   OH224477   0.539   5.047   0.967 -0.0811  0.4983 -0.3495
 1021TIP3    H124478   0.550   5.139   0.943  1.1519  0.4779  0.1069
 1021TIP3    H224479   0.452   5.025   0.933 -0.4326  1.8434 -0.4039
 1022TIP3   OH224480   6.493   5.426  17.045  0.4183  0.1904  0.4588
 1022TIP3    H124481   6.539   5.447  17.126  1.1365 -0.3610  0.2057
 1022TIP3    H224482   6.561   5.388  16.988 -0.2304 -0.1185 -0.1233
 1023TIP3   OH224483   4.517   0.804   5.313  0.1678 -0.6062  0.4798
 1023TIP3    H124484   4.525   0.802   5.409 -1.3763  0.7057  0.6699
 1023TIP3    H224485   4.467   0.883   5.295  1.2893 -0.2894 -1.5091
 1024TIP3   OH224486   4.496   4.228  14.071 -0.4070 -0.5446 -0.2201
 1024TIP3    H124487   4.405   4.197  14.077 -0.1396 -1.2630  0.3006
 1024TIP3    H224488   4.492   4.319  14.103 -1.0113 -0.4033 -0.6635
 1025TIP3   OH224489   6.738   5.977  12.195 -0.4655 -0.6819 -0.3735
 1025TIP3    H124490   6.832   5.969  12.210 -0.1471  1.3135 -1.0701
 1025TIP3    H224491   6.702   5.892  12.223  1.5693 -1.6670 -0.5554
 1026TIP3   OH224492   5.145   5.512   0.085 -0.1613  0.5659  0.4588
 1026TIP3    H124493   5.072   5.502   0.146  0.2667  2.5145  1.3564
 1026TIP3    H224494   5.215   5.458   0.122 -0.5140  0.2302  0.6422
 1027TIP3   OH224495   0.378   3.787  11.286  0.2317  1.0529  0.2883
 1027TIP3    H124496   0.313   3.855  11.266 -1.8089 -0.8473  0.0306
 1027TIP3    H224497   0.459   3.835  11.302 -0.3556  3.3931 -2.7968
 1028TIP3   OH224498   1.086   4.013   2.892 -0.1406  0.3564 -1.0534
 1028TIP3    H124499   1.160   4.005   2.832 -0.4413  0.6571 -1.4731
 1028TIP3    H224500   1.010   4.029   2.835 -0.2788  1.6100 -0.5565
 1029TIP3   OH224501   3.741   5.630   1.641  0.3741 -0.7272  0.0830
 1029TIP3    H124502   3.728   5.535   1.643 -0.4115 -0.6173  0.2046
 1029TIP3    H224503   3.779   5.647   1.555  1.8959 -1.3190  0.6047
 1030TIP3   OH224504   2.955   5.556  15.030 -0.0287 -0.0754  0.4050
 1030TIP3    H124505   2.915   5.480  14.988  1.0066  0.6830 -2.0998
 1030TIP3    H224506   2.892   5.627  15.015 -0.2190 -0.0436  1.2799
 1031TIP3   OH224507   2.564   2.717   5.031 -0.0690  0.6761  0.0309
 1031TIP3    H124508   2.609   2.757   5.105 -0.5949 -0.6304  1.0925
 1031TIP3    H224509   2.472   2.711   5.058  0.0382 -1.5227  0.0797
 1032TIP3   OH224510   2.523   4.554   0.567 -0.0240 -0.2058 -0.4044
 1032TIP3    H124511   2.606   4.509   0.551  1.3080  1.2518  1.8510
 1032TIP3    H224512   2.503   4.533   0.658 -1.5286  0.4565 -0.5645
 1033TIP3   OH224513   1.334   0.962   3.213 -0.2611 -0.4023 -0.1637
 1033TIP3    H124514   1.263   1.015   3.177  0.6059  2.5422  2.1207
 1033TIP3    H224515   1.305   0.939   3.301  1.4649  0.7065  0.7494
 1034TIP3   OH224516   5.026   2.168  15.914 -0.6028  0.1890  0.5518
 1034TIP3    H124517   5.104   2.224  15.907 -1.3618  1.2215  0.0357
 1034TIP3    H224518   4.953   2.226  15.890 -1.6221 -0.5348  1.8102
 1035TIP3   OH224519   0.117   5.147  13.783  0.1394 -0.3752  0.0903
 1035TIP3    H124520   0.178   5.146  13.857  0.1520  0.8705  0.1132
 1035TIP3    H224521   0.170   5.178  13.709 -0.6284  1.4935  0.2835
 1036TIP3   OH224522   2.318   0.775  11.805 -0.1628 -0.1850 -0.2638
 1036TIP3    H124523   2.293   0.720  11.879 -0.4909  0.3531  0.0382
 1036TIP3    H224524   2.351   0.856  11.846  1.4542 -0.6058 -0.6661
 1037TIP3   OH224525   3.477   5.330  11.640 -0.3254 -0.1072  0.3025
 1037TIP3    H124526   3.537   5.271  11.686 -0.0272  0.3005  0.4384
 1037TIP3    H224527   3.534   5.385  11.587 -0.6660 -0.6396 -0.6469
 1038TIP3   OH224528   0.192   0.652  15.145  0.2719 -0.1498  0.0301
 1038TIP3    H124529   0.145   0.714  15.202  0.7692 -0.9424  1.3297
 1038TIP3    H224530   0.268   0.701  15.115  0.1721  0.1773  0.3005
 1039TIP3   OH224531   6.524   3.622  10.658 -0.9112  0.2754  0.3653
 1039TIP3    H124532   6.604   3.577  10.686  2.0487  3.5458 -1.9007
 1039TIP3    H224533   6.500   3.676  10.734 -0.0659  0.3527  0.5887
 1040TIP3   OH224534   0.214   2.675   1.505 -0.7799 -0.4759  0.0268
 1040TIP3    H124535   0.185   2.594   1.545  1.4716 -0.9067  0.9722
 1040TIP3    H224536   0.137   2.710   1.460 -2.1741 -2.3542  0.8585
 1041TIP3   OH224537   2.566   2.083  17.046  0.1912  0.8637  0.5882
 1041TIP3    H124538   2.662   2.078  17.037  0.0938  0.0521 -0.1293
 1041TIP3    H224539   2.549   2.036  17.128  0.4591  1.6682  1.1194
 1042TIP3   OH224540   2.900   6.418  11.344  0.1627 -0.1013  0.4055
 1042TIP3    H124541   2.907   6.369  11.262 -0.6194  1.5571 -0.7048
 1042TIP3    H224542   2.970   6.482  11.340 -0.2766  0.4093  0.7346
 1043TIP3   OH224543   1.850   4.132   3.630  0.1076 -0.0111  0.4285
 1043TIP3    H124544   1.817   4.175   3.551 -1.3318 -1.8085 -0.0226
 1043TIP3    H224545   1.880   4.046   3.600 -0.7477 -0.8475  1.8654
 1044TIP3   OH224546   4.064   5.952   3.489  0.3142 -0.3386 -0.3101
 1044TIP3    H124547   4.146   5.904   3.480  0.4644 -0.5439  1.7995
 1044TIP3    H224548   3.999   5.896   3.446  1.0348 -0.8624 -0.7313
 1045TIP3   OH224549   2.670   3.590   6.205  0.0353 -0.1242 -0.1090
 1045TIP3    H124550   2.661   3.598   6.110  0.8365 -1.4934 -0.3321
 1045TIP3    H224551   2.669   3.495   6.221 -2.1248  0.1035  1.4761
 1046TIP3   OH224552   2.431   5.823  15.471  0.2976 -0.3586 -0.3956
 1046TIP3    H124553   2.481   5.796  15.548 -1.4246  0.6584  1.1564
 1046TIP3    H224554   2.390   5.743  15.439 -0.2332 -0.5627  0.7319
 1047TIP3   OH224555   4.468   1.964   1.168 -0.6869  0.1314  0.0766
 1047TIP3    H124556   4.535   1.937   1.231 -0.6851  0.6836  0.3237
 1047TIP3    H224557   4.385   1.947   1.213 -0.6799  0.9342  0.4194
 1048TIP3   OH224558   5.822   4.690   2.618 -0.0059 -0.5141 -0.0940
 1048TIP3    H124559   5.863   4.660   2.537 -0.6267  0.6000 -0.8485
 1048TIP3    H224560   5.867   4.642   2.687  1.7122 -0.2387 -0.9692
 1049TIP3   OH224561   1.389   1.234  17.173  0.2638  0.2007 -0.2817
 1049TIP3    H124562   1.378   1.159  17.114  0.2741 -0.5878  0.7016
 1049TIP3    H224563   1.478   1.264  17.157  0.8298 -1.0085  0.4512
 1050TIP3   OH224564   1.306   0.083  14.970  0.1535 -0.1794 -0.4541
 1050TIP3    H124565   1.392   0.108  14.938 -0.0330  0.1524 -0.7049
 1050TIP3    H224566   1.260   0.166  14.982 -0.0781 -0.3465 -0.1716
 1051TIP3   OH224567   6.057   1.062  17.059 -0.0331  0.0256 -0.3935
 1051TIP3    H124568   6.137   1.075  17.008  0.7227  1.5861  1.0751
 1051TIP3    H224569   6.051   0.968  17.072  0.4003 -0.3032 -2.2886
 1052TIP3   OH224570   2.874   2.215  14.799  0.4740 -0.2972 -0.6195
 1052TIP3    H124571   2.810   2.229  14.730  1.0058 -0.3206 -1.1236
 1052TIP3    H224572   2.952   2.184  14.754  0.9955  0.1797 -0.0734
 1053TIP3   OH224573   3.609   4.841   1.216 -0.7629 -0.1370 -0.4888
 1053TIP3    H124574   3.674   4.904   1.246  0.6341 -1.7162 -0.0507
 1053TIP3    H224575   3.615   4.769   1.279 -0.4427 -1.8689 -2.3865
 1054TIP3   OH224576   0.729   3.633   4.666 -0.3221  0.2485 -0.2435
 1054TIP3    H124577   0.797   3.698   4.683  0.2156 -0.1683 -0.7215
 1054TIP3    H224578   0.683   3.666   4.589  0.1870 -0.1139 -0.7061
 1055TIP3   OH224579   5.346   3.377  13.391 -0.2308 -0.4235  0.0860
 1055TIP3    H124580   5.292   3.449  13.422  0.7991  0.5010 -0.2188
 1055TIP3    H224581   5.379   3.405  13.306  1.0737 -0.7578  0.4433
 1056TIP3   OH224582   3.594   0.519  16.079 -0.0956 -0.8760 -0.1624
 1056TIP3    H124583   3.556   0.518  15.992  1.0944 -0.0872 -0.7202
 1056TIP3    H224584   3.686   0.497  16.065  0.2972  0.0799  0.7836
 1057TIP3   OH224585   3.912   0.495  16.992  0.5224  0.0772 -0.0317
 1057TIP3    H124586   3.932   0.534  16.907  0.5538  1.3650  0.5391
 1057TIP3    H224587   3.837   0.437  16.975  1.5320 -0.9298 -1.2241
 1058TIP3   OH224588   2.020   0.876  16.327 -0.3232  0.3394 -0.2558
 1058TIP3    H124589   2.100   0.915  16.293  0.0304  0.9727  1.2026
 1058TIP3    H224590   1.998   0.929  16.404 -0.6701 -1.4122  0.9145
 1059TIP3   OH224591   4.125   4.756   3.956  0.3051 -0.3137 -0.0257
 1059TIP3    H124592   4.210   4.780   3.917 -1.0576  2.9138 -1.3794
 1059TIP3    H224593   4.135   4.776   4.049  1.3348 -0.9296  0.0080
 1060TIP3   OH224594   2.158   4.535  16.353 -0.7766 -0.2523  0.2714
 1060TIP3    H124595   2.135   4.581  16.433 -0.0686  1.3203 -0.3979
 1060TIP3    H224596   2.239   4.490  16.373 -1.6192 -1.4960  1.0152
 1061TIP3   OH224597   3.748   3.319  16.358  0.6361  0.0032 -0.3596
 1061TIP3    H124598   3.661   3.283  16.342  1.3880 -2.2003  0.1798
 1061TIP3    H224599   3.756   3.391  16.296 -1.5604  0.2521 -0.4146
 1062TIP3   OH224600   3.103   5.588   2.263 -0.3469 -0.0786  0.2905
 1062TIP3    H124601   3.129   5.660   2.206 -0.4584  0.1665  0.5426
 1062TIP3    H224602   3.055   5.631   2.335  0.1216 -0.3396  0.7641
 1063TIP3   OH224603   2.887   4.539   1.354  0.2405  0.1971  0.0705
 1063TIP3    H124604   2.834   4.460   1.351 -0.5568  0.7470 -1.1751
 1063TIP3    H224605   2.972   4.510   1.387  0.4420 -1.4669 -1.7045
 1064TIP3   OH224606   3.067   5.480  13.098 -0.0900  0.3617  0.0344
 1064TIP3    H124607   3.046   5.573  13.108  0.3285  0.4717 -0.1119
 1064TIP3    H224608   3.005   5.435  13.156 -0.6995  0.6882 -0.3553
 1065TIP3   OH224609   4.600   0.760   1.977  0.2382 -0.0544  0.9216
 1065TIP3    H124610   4.549   0.841   1.988  0.4717  0.1661  0.4294
 1065TIP3    H224611   4.686   0.780   2.013  0.3552 -0.0156  0.6291
 1066TIP3   OH224612   5.110   1.063   1.360  0.8707  0.2002 -0.4972
 1066TIP3    H124613   5.163   1.009   1.301  1.5324  1.3549 -0.9963
 1066TIP3    H224614   5.122   1.023   1.446  0.9157 -0.7575 -0.9318
 1067TIP3   OH224615   2.226   4.303  15.540  0.1995  0.3094  0.4304
 1067TIP3    H124616   2.209   4.296  15.446 -0.6292 -0.6905  0.6240
 1067TIP3    H224617   2.284   4.229  15.559 -0.8980 -0.4548  0.9463
 1068TIP3   OH224618   1.856   5.507  17.105 -0.4354 -0.6088 -0.3409
 1068TIP3    H124619   1.765   5.536  17.095 -0.2230 -0.1212 -0.9361
 1068TIP3    H224620   1.903   5.551  17.034  0.4440 -0.1341  0.5271
 1069TIP3   OH224621   5.013   4.865  13.966  0.2546 -0.5744  0.6392
 1069TIP3    H124622   5.075   4.932  13.994  0.1022 -0.6550  1.1858
 1069TIP3    H224623   5.049   4.831  13.884 -0.3524  1.0942 -0.3684
 1070TIP3   OH224624   3.747   0.915  11.130 -0.2479 -0.0824  0.1280
 1070TIP3    H124625   3.783   0.882  11.212  0.0786  0.8897  0.3913
 1070TIP3    H224626   3.710   1.001  11.153 -1.2589 -0.3319 -0.4818
 1071TIP3   OH224627   0.706   0.816  15.166  0.5087 -0.2076 -0.0427
 1071TIP3    H124628   0.753   0.813  15.249  3.4247  0.3562 -1.5516
 1071TIP3    H224629   0.720   0.905  15.133 -2.0843  0.1513 -0.4118
 1072TIP3   OH224630   0.518   3.448   1.323  0.4268  0.1582 -0.0105
 1072TIP3    H124631   0.517   3.433   1.228 -0.2514  2.8702 -0.5190
 1072TIP3    H224632   0.591   3.508   1.338  0.5608 -0.2742  1.2149
 1073TIP3   OH224633   4.674   4.790   1.491 -0.0092 -0.0796 -0.5609
 1073TIP3    H124634   4.613   4.800   1.564  0.0018  0.6037 -0.6365
 1073TIP3    H224635   4.626   4.823   1.415  0.5288  0.7050 -0.5758
 1074TIP3   OH224636   3.181   1.737  13.644  0.1262  1.2502 -0.3089
 1074TIP3    H124637   3.218   1.811  13.693 -0.3725  1.8078 -0.7518
 1074TIP3    H224638   3.108   1.776  13.595  0.1130  0.5388 -0.8597
 1075TIP3   OH224639   1.798   6.009  16.344  0.4294 -0.0671 -0.5086
 1075TIP3    H124640   1.752   5.938  16.388 -0.1615  0.9648  0.5881
 1075TIP3    H224641   1.850   5.966  16.276 -1.4879 -1.3612 -1.2405
 1076TIP3   OH224642   2.551   2.359  12.886 -0.1820  0.7208  0.2017
 1076TIP3    H124643   2.463   2.393  12.871 -0.3145  0.0688 -0.5861
 1076TIP3    H224644   2.576   2.393  12.972 -0.8324  1.6669  0.0294
 1077TIP3   OH224645   3.574   0.697  11.044  0.7401  0.8259 -0.2996
 1077TIP3    H124646   3.625   0.773  11.073 -0.5841  1.3830  0.6695
 1077TIP3    H224647   3.568   0.641  11.122  0.7812  0.2456 -0.7082
 1078TIP3   OH224648   4.159   5.409  14.003  0.4947 -0.3477  0.0973
 1078TIP3    H124649   4.126   5.321  14.016  2.0914 -0.9379  0.3218
 1078TIP3    H224650   4.243   5.397  13.959  1.5609  0.9547  1.6550
 1079TIP3   OH224651   3.940   6.605   1.875  0.1538 -0.3883 -0.3804
 1079TIP3    H124652   3.861   6.594   1.928 -0.1429 -0.7003 -0.8755
 1079TIP3    H224653   3.943   6.527   1.819 -0.2542  0.5168 -1.7249
 1080TIP3   OH224654   6.128   1.272   5.325 -0.3620 -0.1873 -0.3062
 1080TIP3    H124655   6.150   1.341   5.388 -0.7333  0.9891 -1.4169
 1080TIP3    H224656   6.203   1.270   5.265 -0.4103 -0.6654 -0.3498
 1081TIP3   OH224657   5.789   5.486   4.339  0.1223 -0.0121  0.1845
 1081TIP3    H124658   5.763   5.407   4.386  0.3952 -0.5611 -0.5712
 1081TIP3    H224659   5.779   5.464   4.246  0.8302  0.6160 -0.0553
 1082TIP3   OH224660   3.198   5.116  17.025  0.4487 -0.6698  0.3216
 1082TIP3    H124661   3.228   5.060  17.096  0.4085 -0.7128  0.3049
 1082TIP3    H224662   3.188   5.203  17.065 -1.1211 -1.0240  0.7660
 1083TIP3   OH224663   0.445   0.674  11.223  0.4092 -0.6559  0.4329
 1083TIP3    H124664   0.521   0.615  11.219 -1.0345 -2.5319 -1.2059
 1083TIP3    H224665   0.392   0.639  11.295  0.7511  0.2606  1.1492
 1084TIP3   OH224666   1.875   3.499   4.329 -0.0479 -0.0618 -0.5126
 1084TIP3    H124667   1.898   3.477   4.239 -0.2296  1.7995 -1.0494
 1084TIP3    H224668   1.919   3.582   4.346  2.2856 -1.6363  2.1088
 1085TIP3   OH224669   1.467   0.799   1.483  0.3233 -0.2402 -0.0895
 1085TIP3    H124670   1.402   0.736   1.514  2.7455 -1.9641  1.9794
 1085TIP3    H224671   1.455   0.876   1.539 -1.8912  0.7746 -1.8434
 1086TIP3   OH224672   6.271   0.717   2.682 -0.1040 -0.1059  0.0202
 1086TIP3    H124673   6.178   0.739   2.679 -0.3803 -1.1882  0.3110
 1086TIP3    H224674   6.295   0.725   2.775  0.6279  2.1907 -0.3015
 1087TIP3   OH224675   2.524   1.190  13.356 -0.4201 -0.0788  0.2085
 1087TIP3    H124676   2.590   1.253  13.328 -0.3718 -0.4195 -0.4454
 1087TIP3    H224677   2.447   1.244  13.376 -0.6908  0.1320 -1.2620
 1088TIP3   OH224678   1.411   1.121  14.147  0.1284 -0.0576  0.0044
 1088TIP3    H124679   1.394   1.186  14.079  0.3330  0.5110  0.4883
 1088TIP3    H224680   1.470   1.058  14.106  0.7815  0.6370 -0.1374
 1089TIP3   OH224681   3.392   5.064  10.482  0.2568  0.0092 -0.3685
 1089TIP3    H124682   3.351   4.978  10.485  1.5478 -0.6168  0.4185
 1089TIP3    H224683   3.341   5.113  10.418 -0.8382 -1.1592 -0.4282
 1090TIP3   OH224684   2.940   4.062   0.999 -0.1997 -0.1670  0.4251
 1090TIP3    H124685   3.027   4.042   0.964 -0.1575  1.6295 -0.6647
 1090TIP3    H224686   2.943   4.031   1.090  1.9350  0.6854  0.7112
 1091TIP3   OH224687   3.176   3.476  11.456 -0.4023 -0.4867 -0.1301
 1091TIP3    H124688   3.221   3.400  11.492  0.7098  1.0943  2.0815
 1091TIP3    H224689   3.239   3.515  11.396 -1.4559 -1.9263 -2.2980
 1092TIP3   OH224690   6.168   1.217  13.728  0.1988  0.4580  0.6645
 1092TIP3    H124691   6.201   1.175  13.648  0.1519 -1.0210  1.3949
 1092TIP3    H224692   6.228   1.189  13.797 -0.8306  0.2025  1.4779
 1093TIP3   OH224693   3.223   2.139  16.194 -0.5541  0.1468  0.3228
 1093TIP3    H124694   3.305   2.189  16.189 -1.2498  1.3695  0.6109
 1093TIP3    H224695   3.196   2.130  16.103 -0.2558 -0.0086  0.2472
 1094TIP3   OH224696   4.795   4.434   0.671 -0.2385  0.0041  0.4802
 1094TIP3    H124697   4.746   4.358   0.638 -0.8352  0.8745 -0.7453
 1094TIP3    H224698   4.886   4.415   0.648 -0.0184 -1.3884  2.3043
 1095TIP3   OH224699   1.821   6.469   3.762  0.2979 -0.7876 -0.5742
 1095TIP3    H124700   1.881   6.532   3.801 -1.4716  1.4456 -1.2189
 1095TIP3    H224701   1.735   6.495   3.795 -0.6791 -1.8043 -2.1925
 1096TIP3   OH224702   6.692   5.733  12.900  0.2412 -0.3203 -0.2063
 1096TIP3    H124703   6.693   5.803  12.835  0.3041 -0.6569 -0.5670
 1096TIP3    H224704   6.784   5.719  12.922  0.1578  0.6109  0.8459
 1097TIP3   OH224705   1.067   0.121  12.515 -0.4511  0.1983  0.3269
 1097TIP3    H124706   1.118   0.124  12.434 -0.2283  1.6560  0.4959
 1097TIP3    H224707   1.093   0.199  12.563 -2.5746  0.8022  0.5937
 1098TIP3   OH224708   6.475   3.249  16.214 -0.0689 -0.2825  0.1817
 1098TIP3    H124709   6.458   3.155  16.219 -0.6026 -0.1478  1.4147
 1098TIP3    H224710   6.502   3.274  16.302 -1.4123  0.9687  0.2948
 1099TIP3   OH224711   0.020   4.302  16.159  0.3164  0.1805  0.1841
 1099TIP3    H124712   0.083   4.232  16.142  1.2732  0.5149  2.0373
 1099TIP3    H224713   0.059   4.353  16.230 -1.1724  1.5617  0.0832
 1100TIP3   OH224714   4.969   1.663  16.307  0.1921 -0.1857  0.5867
 1100TIP3    H124715   4.973   1.740  16.251  0.6614 -1.7561 -1.6771
 1100TIP3    H224716   4.877   1.637  16.306  0.4212 -1.0616 -0.7773
 1101TIP3   OH224717   0.456   1.021  14.716  0.3794 -0.0352 -0.1857
 1101TIP3    H124718   0.442   1.104  14.670  0.7193  1.3969  2.1329
 1101TIP3    H224719   0.526   0.978  14.668 -0.0051  0.8505 -1.6124
 1102TIP3   OH224720   5.802   2.015  16.241  0.0844 -0.4599 -0.1341
 1102TIP3    H124721   5.822   1.922  16.235  0.5795 -0.6287  2.7376
 1102TIP3    H224722   5.729   2.021  16.303  0.8863  1.0867  0.7472
 1103TIP3   OH224723   3.834   4.003  15.711 -0.8131 -0.1669  0.2209
 1103TIP3    H124724   3.816   4.093  15.683 -4.3067 -0.9216 -0.3876
 1103TIP3    H224725   3.902   3.972  15.651 -0.9370  1.4482 -0.7972
 1104TIP3   OH224726   5.541   2.776   1.936 -0.1369 -0.2729 -0.1051
 1104TIP3    H124727   5.457   2.822   1.946  0.1280  0.0057  0.9001
 1104TIP3    H224728   5.528   2.720   1.859 -0.2417  2.0028 -1.8921
 1105TIP3   OH224729   4.295   1.420  15.424 -0.3571  0.0975 -0.3120
 1105TIP3    H124730   4.366   1.372  15.467 -1.3053 -0.9983  0.0809
 1105TIP3    H224731   4.287   1.380  15.338 -0.1214  0.6044 -0.5715
 1106TIP3   OH224732   4.031   5.076   4.825 -0.6118 -0.0263 -0.2571
 1106TIP3    H124733   4.081   5.096   4.745 -2.3091 -0.3824 -1.4761
 1106TIP3    H224734   3.943   5.109   4.806 -0.7484  1.0492  2.0158
 1107TIP3   OH224735   1.051   3.243  12.377  0.5553 -0.1533 -0.1076
 1107TIP3    H124736   1.096   3.306  12.434  1.1295  0.1551 -0.8775
 1107TIP3    H224737   0.960   3.274  12.375  0.2123 -0.9369  1.6795
 1108TIP3   OH224738   4.066   2.301  14.078 -0.5285 -0.7511  0.0285
 1108TIP3    H124739   4.041   2.216  14.113 -1.0101 -0.8235 -0.4782
 1108TIP3    H224740   3.984   2.341  14.050 -0.1711 -0.7302 -1.0794
 1109TIP3   OH224741   0.932   6.325  14.306  0.0814  0.5887 -0.2430
 1109TIP3    H124742   0.999   6.370  14.356 -0.5085 -0.8055  1.9493
 1109TIP3    H224743   0.849   6.364  14.334 -0.1557  2.1259 -2.7385
 1110TIP3   OH224744   5.309   5.704   0.197 -0.2817 -0.8877 -0.0538
 1110TIP3    H124745   5.375   5.716   0.129 -0.4427 -0.3947 -0.1296
 1110TIP3    H224746   5.248   5.639   0.161 -0.5062 -0.4387 -0.4899
 1111TIP3   OH224747   2.212   0.434   2.413 -0.1319  0.2770 -0.0544
 1111TIP3    H124748   2.142   0.463   2.472  0.6945  1.5163  0.3581
 1111TIP3    H224749   2.212   0.339   2.420 -2.4515  0.1358 -0.8552
 1112TIP3   OH224750   4.989   2.814  15.570 -0.2850 -0.1208 -0.4125
 1112TIP3    H124751   5.010   2.735  15.519  1.3639  0.0351 -0.0249
 1112TIP3    H224752   4.896   2.831  15.550 -0.1481 -1.0215 -2.0346
 1113TIP3   OH224753   3.755   5.680  13.930  0.0103  0.1341  0.0253
 1113TIP3    H124754   3.770   5.663  14.023  1.2634 -0.6819 -0.2973
 1113TIP3    H224755   3.675   5.732  13.928  0.5674  1.1556  1.6472
 1114TIP3   OH224756   6.617   2.676  12.552  0.2631  0.0331  0.3978
 1114TIP3    H124757   6.700   2.637  12.527  0.2907  0.7321 -0.6927
 1114TIP3    H224758   6.600   2.742  12.484 -1.3066 -0.2776  0.4368
 1115TIP3   OH224759   5.560   2.115  11.529  0.1138  1.0126 -0.5153
 1115TIP3    H124760   5.480   2.164  11.510  0.2706  1.2780 -0.4963
 1115TIP3    H224761   5.558   2.041  11.468 -0.5199  0.5987 -0.0019
 1116TIP3   OH224762   1.764   5.706   4.027  0.0954 -0.2045 -0.1024
 1116TIP3    H124763   1.824   5.670   4.093  1.1180  0.4785 -0.6245
 1116TIP3    H224764   1.814   5.778   3.987 -1.0175  0.2678 -0.6802
 1117TIP3   OH224765   4.807   0.860  14.983 -0.1282 -0.2380 -1.0505
 1117TIP3    H124766   4.719   0.823  14.979  0.0400 -0.7581 -0.0448
 1117TIP3    H224767   4.811   0.904  15.068  1.1660 -1.7203 -0.3034
 1118TIP3   OH224768   1.322   3.395  16.604  0.2458 -0.2936 -0.2622
 1118TIP3    H124769   1.377   3.317  16.598 -0.3953 -1.0104  2.1421
 1118TIP3    H224770   1.382   3.464  16.632  0.4609 -0.3889 -0.4878
 1119TIP3   OH224771   3.220   4.105   1.199  0.1543  0.5515  0.3022
 1119TIP3    H124772   3.212   4.191   1.240 -1.4263  0.1668  0.8890
 1119TIP3    H224773   3.139   4.059   1.224  0.0325 -0.4014 -1.6565
 1120TIP3   OH224774   4.945   2.545   5.423 -0.3503 -0.3442  0.4356
 1120TIP3    H124775   4.862   2.593   5.430  0.9260  2.2587 -1.0251
 1120TIP3    H224776   4.990   2.563   5.505  0.2722  1.4075 -0.2388
 1121TIP3   OH224777   3.637   1.595  16.669 -0.8628 -0.2619  0.5495
 1121TIP3    H124778   3.558   1.624  16.623 -0.5589  0.3121  0.3818
 1121TIP3    H224779   3.627   1.500  16.675 -0.2023 -0.5995 -2.0990
 1122TIP3   OH224780   5.387   5.043  12.303 -0.0481  0.1549 -0.1856
 1122TIP3    H124781   5.483   5.052  12.300  0.0527 -0.9061 -0.5238
 1122TIP3    H224782   5.363   5.018  12.214 -0.8766  2.2512 -0.6121
 1123TIP3   OH224783   5.746   0.940  16.910 -0.6808 -0.4858 -0.1571
 1123TIP3    H124784   5.775   1.007  16.848 -1.1445 -0.0479  0.0931
 1123TIP3    H224785   5.800   0.863  16.890 -2.3634 -1.1273 -2.6667
 1124TIP3   OH224786   0.778   0.797   3.860 -0.0701  0.8546 -0.2175
 1124TIP3    H124787   0.787   0.740   3.784 -1.3838  1.0005 -0.5115
 1124TIP3    H224788   0.745   0.740   3.929  3.6308  0.0717  1.1688
 1125TIP3   OH224789   6.342   3.475  13.694  0.5519  0.1825 -0.3306
 1125TIP3    H124790   6.272   3.517  13.644  1.2233  1.4405 -0.2419
 1125TIP3    H224791   6.423   3.507  13.653  1.0857 -1.0976 -0.3148
 1126TIP3   OH224792   1.450   0.402   1.579 -0.0489  0.0680  0.1711
 1126TIP3    H124793   1.499   0.388   1.660  0.3685  1.7302  0.2459
 1126TIP3    H224794   1.381   0.335   1.581  1.2523 -1.3212  0.8149
 1127TIP3   OH224795   0.119   4.912   3.845 -0.6387 -0.3527 -0.3290
 1127TIP3    H124796   0.077   4.881   3.764 -1.4360 -0.1617  0.0068
 1127TIP3    H224797   0.209   4.882   3.837  0.2098  2.3530 -2.7822
 1128TIP3   OH224798   6.011   3.246  12.574  0.0229 -0.7085  0.1129
 1128TIP3    H124799   5.996   3.174  12.512 -0.7954 -0.0374 -0.4799
 1128TIP3    H224800   5.950   3.314  12.548  1.2681  0.4957  0.2231
 1129TIP3   OH224801   6.386   2.158  11.824 -0.4889  0.1808  0.2363
 1129TIP3    H124802   6.330   2.171  11.748 -0.2539  1.1532  0.2221
 1129TIP3    H224803   6.327   2.126  11.892 -0.7249 -0.5607 -0.3011
 1130TIP3   OH224804   1.982   2.917   0.020  0.1234 -0.1671  0.0317
 1130TIP3    H124805   2.019   2.885   0.102 -0.6202  1.4260  1.0281
 1130TIP3    H224806   1.921   2.849  -0.007 -1.4053  0.2975  2.0700
 1131TIP3   OH224807   3.654   3.316  12.624 -0.0709 -0.0643 -0.1367
 1131TIP3    H124808   3.568   3.343  12.656 -0.4047  0.4927 -1.4290
 1131TIP3    H224809   3.716   3.345  12.691 -0.6418  1.9988 -0.4400
 1132TIP3   OH224810   6.270   3.818  14.173 -0.2346  0.0478  0.7353
 1132TIP3    H124811   6.208   3.808  14.102  0.2953  0.4253  0.2114
 1132TIP3    H224812   6.248   3.748  14.234 -0.4551 -0.5046  0.0315
 1133TIP3   OH224813   1.441   5.062  13.491  0.5969 -0.2990  0.0051
 1133TIP3    H124814   1.533   5.034  13.494 -0.3931 -4.0980  1.9834
 1133TIP3    H224815   1.426   5.103  13.576  0.0421 -1.5965  0.5619
 1134TIP3   OH224816   0.398   4.438   0.453 -0.0486 -0.6029  0.0322
 1134TIP3    H124817   0.315   4.486   0.442  0.5184  1.2336  2.6671
 1134TIP3    H224818   0.452   4.467   0.380 -1.6985 -1.9699 -1.8445
 1135TIP3   OH224819   3.043   3.415   0.300 -0.3997  0.0595  0.3023
 1135TIP3    H124820   3.110   3.457   0.355 -0.3742  1.0260 -0.4401
 1135TIP3    H224821   2.963   3.418   0.353 -0.6839  2.1591 -0.1844
 1136TIP3   OH224822   5.274   1.095   0.380 -0.8543  0.6382  0.2930
 1136TIP3    H124823   5.340   1.135   0.437 -1.8817  1.0351  1.2551
 1136TIP3    H224824   5.257   1.010   0.420  0.0524 -0.0578 -0.7472
 1137TIP3   OH224825   0.226   2.975   4.294  0.4662  0.9980  0.2327
 1137TIP3    H124826   0.144   2.987   4.247  1.0210 -0.1361 -1.1243
 1137TIP3    H224827   0.202   2.934   4.377 -0.4778  2.3394  0.6397
 1138TIP3   OH224828   2.435   5.478   5.769  0.4627  0.0144 -0.3243
 1138TIP3    H124829   2.382   5.557   5.776  0.6301  0.0759  0.2643
 1138TIP3    H224830   2.495   5.481   5.844 -1.3639 -2.0466  1.3540
 1139TIP3   OH224831   1.933   1.959  16.160  0.3476  0.0087 -0.4806
 1139TIP3    H124832   1.882   1.900  16.216  0.1439  1.1450  0.5655
 1139TIP3    H224833   1.871   2.026  16.132  1.0293  0.8507 -0.0067
 1140TIP3   OH224834   3.929   6.311   5.718  0.3349 -0.0718  0.3478
 1140TIP3    H124835   3.933   6.290   5.624  1.2087  0.6449  0.2079
 1140TIP3    H224836   3.837   6.300   5.741  0.3025 -1.3933 -0.3244
 1141TIP3   OH224837   3.184   1.425  15.462  0.0515  0.0690 -0.3442
 1141TIP3    H124838   3.119   1.438  15.392 -0.1221 -0.2639 -0.2455
 1141TIP3    H224839   3.251   1.491  15.444 -0.5893  0.7919 -0.1206
 1142TIP3   OH224840   4.582   5.319  15.860  0.4891  0.1952  0.1235
 1142TIP3    H124841   4.570   5.345  15.769 -0.8836  0.5037  0.3623
 1142TIP3    H224842   4.498   5.280  15.884  1.0247 -0.3906  1.0957
 1143TIP3   OH224843   1.847   3.093   0.403  0.1626 -0.1590  0.2477
 1143TIP3    H124844   1.777   3.044   0.359 -1.3629  1.6333  0.5458
 1143TIP3    H224845   1.825   3.184   0.387  0.6157  0.5397  3.1049
 1144TIP3   OH224846   3.776   1.572  16.213 -0.2698 -0.1961 -0.2834
 1144TIP3    H124847   3.837   1.509  16.174  1.1975  0.6926  0.4590
 1144TIP3    H224848   3.743   1.529  16.292  1.2316  0.1788  0.5812
 1145TIP3   OH224849   1.230   4.324  13.534 -0.0868 -0.3526  0.3452
 1145TIP3    H124850   1.303   4.375  13.568  1.0930 -0.9441 -1.1845
 1145TIP3    H224851   1.267   4.237  13.518 -0.3560 -0.0053 -2.8734
 1146TIP3   OH224852   4.778   0.908   3.657 -0.4601  0.7835 -0.2961
 1146TIP3    H124853   4.682   0.914   3.649 -0.4685  3.6590  0.6179
 1146TIP3    H224854   4.792   0.847   3.729 -1.5748  0.1453 -0.5911
 1147TIP3   OH224855   2.187   2.385   5.422  0.3488 -0.8615 -0.0847
 1147TIP3    H124856   2.187   2.403   5.517 -2.0666  1.1639 -0.3493
 1147TIP3    H224857   2.206   2.470   5.382 -1.8364 -0.9214 -1.3963
 1148TIP3   OH224858   3.896   2.967  14.368  0.4441  0.5205  0.3185
 1148TIP3    H124859   3.825   2.907  14.348 -0.6414  1.6218  0.7413
 1148TIP3    H224860   3.857   3.054  14.361  2.0445  1.2162 -0.6158
 1149TIP3   OH224861   3.020   0.250  15.074 -0.0936 -0.3238  0.0708
 1149TIP3    H124862   2.927   0.273  15.071  0.3360  1.4306 -1.6538
 1149TIP3    H224863   3.023   0.157  15.049 -1.3735 -0.4982  0.4974
 1150TIP3   OH224864   2.605   2.024   5.447 -0.0560  1.0243 -0.2905
 1150TIP3    H124865   2.549   2.097   5.421 -0.3498  1.1276  0.5975
 1150TIP3    H224866   2.632   1.984   5.364 -2.2312  0.3638 -0.7427
 1151TIP3   OH224867   2.465   5.722  14.021 -0.4562  0.1093  0.4807
 1151TIP3    H124868   2.517   5.787  13.974 -0.3303 -0.8755 -0.7898
 1151TIP3    H224869   2.528   5.655  14.047 -0.5467  0.5753  1.9917
 1152TIP3   OH224870   6.129   4.039   1.409 -0.0222 -0.3221  0.2705
 1152TIP3    H124871   6.200   4.090   1.448 -1.2172  1.1591  0.6072
 1152TIP3    H224872   6.066   4.028   1.480 -0.9211 -0.0933 -0.4764
 1153TIP3   OH224873   4.779   4.970   5.903  0.6365  0.4205 -0.4376
 1153TIP3    H124874   4.831   5.028   5.959  1.0438 -0.2023 -0.1612
 1153TIP3    H224875   4.827   4.887   5.903 -0.5861 -0.3275  0.2231
 1154TIP3   OH224876   4.503   4.685  15.363  0.3602 -0.0793 -0.3234
 1154TIP3    H124877   4.586   4.700  15.317  0.5213  0.5468  0.1693
 1154TIP3    H224878   4.437   4.728  15.308  0.4869  0.2452 -0.2215
 1155TIP3   OH224879   2.369   4.041   1.727 -0.5603  0.0652 -0.1544
 1155TIP3    H124880   2.357   4.108   1.660 -0.8797 -0.1891 -0.3547
 1155TIP3    H224881   2.464   4.038   1.742 -0.4641 -0.0313 -0.7577
 1156TIP3   OH224882   6.156   5.052  12.204 -0.5661  0.1197 -0.4342
 1156TIP3    H124883   6.084   4.999  12.238  0.3605 -1.5511 -0.9496
 1156TIP3    H224884   6.115   5.112  12.142 -1.9835  1.7859  1.9614
 1157TIP3   OH224885   0.405   5.282  17.163 -0.6903  0.1191  0.3292
 1157TIP3    H124886   0.351   5.345  17.115  0.3662  0.8150  0.0169
 1157TIP3    H224887   0.483   5.332  17.189  0.7685 -1.3444 -0.9775
 1158TIP3   OH224888   0.706   1.060  14.387  0.1409 -0.2371 -0.0639
 1158TIP3    H124889   0.673   1.055  14.298 -0.3702  0.8318  0.0435
 1158TIP3    H224890   0.802   1.058  14.378  0.1051  0.3824 -0.6882
 1159TIP3   OH224891   6.169   1.838   3.948  0.0985  0.0240 -0.6629
 1159TIP3    H124892   6.144   1.817   4.038  1.7425 -1.5788 -0.5061
 1159TIP3    H224893   6.099   1.801   3.894 -0.3373 -0.0119 -0.0797
 1160TIP3   OH224894   6.106   3.270  15.716  0.5376 -0.2413  0.1756
 1160TIP3    H124895   6.125   3.281  15.623 -0.4193  2.2857  0.2002
 1160TIP3    H224896   6.175   3.320  15.760  1.5265 -2.1820  0.9133
 1161TIP3   OH224897   1.176   5.426  11.687  0.1367 -0.4698  0.1917
 1161TIP3    H124898   1.272   5.418  11.681  0.0661 -0.4916 -1.2444
 1161TIP3    H224899   1.163   5.513  11.725  0.7288 -0.5303  0.5569
 1162TIP3   OH224900   1.774   2.873  11.305  0.1332 -0.2084  0.4742
 1162TIP3    H124901   1.785   2.956  11.257  0.8602 -0.0506  0.8997
 1162TIP3    H224902   1.681   2.854  11.297 -0.0166  0.5644  0.2162
 1163TIP3   OH224903   6.162   5.820   3.814 -0.0814  0.2413 -0.7582
 1163TIP3    H124904   6.070   5.849   3.815 -0.2689 -0.3229  0.6185
 1163TIP3    H224905   6.174   5.784   3.727 -1.4453 -0.4749 -0.6882
 1164TIP3   OH224906   1.912   4.351   1.632 -0.0900 -0.3051  0.0023
 1164TIP3    H124907   1.948   4.374   1.547  1.1530 -0.9269  0.3386
 1164TIP3    H224908   1.824   4.318   1.613 -0.2973  0.6970 -0.8976
 1165TIP3   OH224909   0.447   6.298   1.527 -0.3390  0.1332  0.1112
 1165TIP3    H124910   0.452   6.225   1.589  0.1410 -2.4450 -2.7351
 1165TIP3    H224911   0.506   6.273   1.456 -1.6391  2.3730 -1.9071
 1166TIP3   OH224912   3.081   2.780  13.038 -0.2540  0.2117  0.3275
 1166TIP3    H124913   3.059   2.837  12.964 -0.2517 -0.4858 -0.2097
 1166TIP3    H224914   3.053   2.831  13.115  1.8476  1.9630  0.0369
 1167TIP3   OH224915   2.006   1.743   5.495 -0.6410 -0.7178  0.4795
 1167TIP3    H124916   2.004   1.811   5.561 -0.4997 -0.0633 -0.1769
 1167TIP3    H224917   2.091   1.754   5.451  0.0331 -2.2315  1.2959
 1168TIP3   OH224918   2.012   0.778   1.161  0.5234  0.4382 -0.5295
 1168TIP3    H124919   1.979   0.688   1.158 -1.0940  0.9746  0.0790
 1168TIP3    H224920   1.965   0.824   1.091 -0.7025  1.4094  0.8635
 1169TIP3   OH224921   5.745   3.427  14.874 -0.1395  0.1666  1.1373
 1169TIP3    H124922   5.807   3.355  14.881 -0.1870  0.1212  1.0887
 1169TIP3    H224923   5.749   3.471  14.959  0.3141  0.4490  0.9754
 1170TIP3   OH224924   5.078   3.753  11.686  0.3542 -0.3200 -0.1549
 1170TIP3    H124925   5.056   3.712  11.770  0.2445 -1.0524 -0.5369
 1170TIP3    H224926   5.086   3.847  11.707 -0.5266 -0.3767  0.5042
 1171TIP3   OH224927   4.674   3.538  11.902  0.3552  0.4361 -0.2061
 1171TIP3    H124928   4.717   3.455  11.923 -2.3188 -1.5507 -1.8871
 1171TIP3    H224929   4.723   3.571  11.826  0.0653 -0.8947 -1.0205
 1172TIP3   OH224930   5.860   5.099   3.736 -0.4231 -0.5770  0.5436
 1172TIP3    H124931   5.905   5.033   3.685 -0.8739 -0.7470  0.3610
 1172TIP3    H224932   5.923   5.125   3.804 -0.1829 -1.0583  0.5039
 1173TIP3   OH224933   0.115   5.138  14.590  0.0432 -0.0992  0.0883
 1173TIP3    H124934   0.056   5.209  14.564  1.5596  1.3437  0.4250
 1173TIP3    H224935   0.060   5.077  14.639 -0.7407  2.3391  2.4227
 1174TIP3   OH224936   1.282   0.886  11.450  0.1582 -0.1577  0.4677
 1174TIP3    H124937   1.361   0.849  11.411  0.2218  0.4315  0.0089
 1174TIP3    H224938   1.210   0.841  11.407  0.2348 -1.2825  1.4758
 1175TIP3   OH224939   0.372   5.632  14.523  0.1115  0.4540  0.2922
 1175TIP3    H124940   0.420   5.549  14.518 -1.9498 -0.7421 -1.8659
 1175TIP3    H224941   0.420   5.684  14.587  2.1326 -1.9786  0.9069
 1176TIP3   OH224942   4.192   5.000  11.757 -0.3098  0.1262 -0.0268
 1176TIP3    H124943   4.248   5.071  11.727 -0.3341 -0.7015 -2.2008
 1176TIP3    H224944   4.106   5.019  11.721 -0.6478 -0.3075  0.5281
 1177TIP3   OH224945   3.198   2.602  15.486  0.1096  0.7567 -0.3442
 1177TIP3    H124946   3.187   2.667  15.417  2.0467  0.4182 -1.0375
 1177TIP3    H224947   3.186   2.518  15.442  2.3448  0.4870 -0.5947
 1178TIP3   OH224948   1.878   3.352   0.358  0.5693 -0.2874  0.4841
 1178TIP3    H124949   1.919   3.428   0.316  0.0408 -0.1802  0.1516
 1178TIP3    H224950   1.795   3.385   0.391 -0.4174 -1.0639 -1.0717
 1179TIP3   OH224951   0.068   4.268  14.025 -0.0816  0.2401 -0.1335
 1179TIP3    H124952  -0.024   4.292  14.037 -0.4364 -0.8336 -0.5920
 1179TIP3    H224953   0.069   4.173  14.032  1.4118  0.3642  2.4835
 1180TIP3   OH224954   6.069   4.604  14.743  0.3729  0.1321  0.4916
 1180TIP3    H124955   6.158   4.568  14.740  0.7639  1.1044 -2.1765
 1180TIP3    H224956   6.080   4.690  14.786  0.9851  0.7600 -0.8476
 1181TIP3   OH224957   3.424   5.290   2.410 -0.3735  0.2279 -0.2009
 1181TIP3    H124958   3.469   5.369   2.379 -0.2981 -0.7090 -2.6708
 1181TIP3    H224959   3.334   5.300   2.380 -0.5938 -0.2357  0.2858
 1182TIP3   OH224960   2.756   5.785  12.542 -0.3515 -0.2844  0.1509
 1182TIP3    H124961   2.818   5.800  12.471 -0.1664  0.4883  0.4630
 1182TIP3    H224962   2.671   5.812  12.505 -0.4793 -1.1687 -0.2152
 1183TIP3   OH224963   0.809   5.305  15.931  0.3505 -0.0883 -0.9694
 1183TIP3    H124964   0.901   5.282  15.921 -0.1985 -2.9093 -0.2497
 1183TIP3    H224965   0.761   5.226  15.906 -1.7644  0.1264  1.8667
 1184TIP3   OH224966   2.653   6.649  13.307 -0.2625 -0.1163 -0.1226
 1184TIP3    H124967   2.682   6.564  13.276 -0.5913 -0.3245  0.1302
 1184TIP3    H224968   2.600   6.630  13.385 -0.0089  0.3420  0.1702
 1185TIP3   OH224969   0.516   0.162  12.062  0.3653 -0.0082 -0.4081
 1185TIP3    H124970   0.429   0.159  12.020 -0.4930  2.3908  1.0029
 1185TIP3    H224971   0.511   0.098  12.132 -0.0588 -0.3171 -0.7147
 1186TIP3   OH224972   5.834   1.281   2.941 -0.1554 -0.0999 -0.0191
 1186TIP3    H124973   5.903   1.337   2.905 -1.3073  0.5859 -1.2931
 1186TIP3    H224974   5.872   1.242   3.019  1.6682  0.2380 -0.6922
 1187TIP3   OH224975   1.211   2.687   1.447  0.4569  0.1368 -0.1063
 1187TIP3    H124976   1.177   2.776   1.435 -2.5901 -0.6890  1.3358
 1187TIP3    H224977   1.195   2.644   1.363 -4.2166 -0.6931  0.8991
 1188TIP3   OH224978   3.407   1.166  15.359 -0.0745  0.3620  0.6753
 1188TIP3    H124979   3.382   1.095  15.300 -2.1566  2.1392 -0.7568
 1188TIP3    H224980   3.334   1.175  15.420  0.8587  0.3173  1.8489
 1189TIP3   OH224981   6.499   3.814   2.273 -0.3455 -0.3246 -0.2316
 1189TIP3    H124982   6.524   3.743   2.332 -0.6100 -0.2498 -0.0257
 1189TIP3    H224983   6.404   3.805   2.265 -0.5974  0.8931  0.9687
 1190TIP3   OH224984   5.942   3.639   6.806  0.0430 -0.1427 -0.5765
 1190TIP3    H124985   5.952   3.567   6.744  1.0451 -0.8330  0.3426
 1190TIP3    H224986   6.002   3.618   6.877 -2.7802 -0.6822  1.8650
 1191TIP3   OH224987   1.248   6.647   5.264 -0.0904 -0.1270  0.3027
 1191TIP3    H124988   1.251   6.697   5.183  1.7414 -1.6664 -0.6743
 1191TIP3    H224989   1.193   6.699   5.323 -0.1313  1.8412 -1.3644
 1192TIP3   OH224990   5.599   3.467   2.218 -0.0679  0.0863  0.1253
 1192TIP3    H124991   5.665   3.405   2.248  0.5214  0.6151 -0.0509
 1192TIP3    H224992   5.574   3.436   2.131  1.4438  0.9941 -0.6807
 1193TIP3   OH224993   2.589   6.559   1.851  0.1209 -0.3463 -0.4386
 1193TIP3    H124994   2.606   6.520   1.766 -0.0297 -1.8404  0.1838
 1193TIP3    H224995   2.575   6.484   1.909  1.7280  0.5670  1.2341
 1194TIP3   OH224996   5.997   5.612   0.601 -0.7338  0.7171  0.0062
 1194TIP3    H124997   6.062   5.648   0.662  2.8501  1.3119 -3.7304
 1194TIP3    H224998   5.945   5.688   0.573  0.5281  1.3154 -0.8179
 1195TIP3   OH224999   5.368   4.687   0.557  0.5567 -0.4798  0.2805
 1195TIP3    H125000   5.453   4.705   0.517  0.6587  0.4121  0.8748
 1195TIP3    H225001   5.304   4.721   0.494  0.6975  0.4180  0.6179
 1196TIP3   OH225002   4.978   3.325   1.243  0.2132 -0.7601 -0.1191
 1196TIP3    H125003   5.071   3.320   1.264  0.5310  0.4259 -1.1825
 1196TIP3    H225004   4.938   3.256   1.297  1.5212 -0.4746  1.2698
 1197TIP3   OH225005   1.985   4.032  14.006 -0.2091 -0.3749 -0.1914
 1197TIP3    H125006   2.004   4.041  14.099 -2.5119  0.2006  0.2858
 1197TIP3    H225007   2.061   4.070  13.962  1.0328 -0.8877  1.4229
 1198TIP3   OH225008   2.848   1.775  12.130 -0.4125 -0.1300  0.8539
 1198TIP3    H125009   2.782   1.792  12.063 -1.1433  0.2456  1.6429
 1198TIP3    H225010   2.919   1.731  12.084 -1.1200 -0.3423 -0.0572
 1199TIP3   OH225011   1.307   5.824   1.036  0.0769 -0.2396  0.1520
 1199TIP3    H125012   1.288   5.732   1.016 -0.8393  0.2099 -1.1569
 1199TIP3    H225013   1.350   5.857   0.957 -0.5823  0.7298  0.1874
 1200TIP3   OH225014   1.001   1.687  16.914 -0.1184 -0.3062  0.1525
 1200TIP3    H125015   0.997   1.694  16.819  0.4154  0.2951  0.1663
 1200TIP3    H225016   0.910   1.672  16.940 -0.2699 -0.4675 -0.4503
 1201TIP3   OH225017   5.180   0.957   3.570 -0.5607 -0.0206  0.4573
 1201TIP3    H125018   5.166   0.918   3.657 -2.8586  0.3402  0.3159
 1201TIP3    H225019   5.174   0.884   3.509  0.4679 -0.1877  0.5433
 1202TIP3   OH225020   1.978   0.016  11.114 -0.4633 -0.0794  0.0553
 1202TIP3    H125021   1.917   0.073  11.161  1.9394  0.5550  2.6965
 1202TIP3    H225022   2.045   0.076  11.080 -0.7093 -0.8526 -1.9277
 1203TIP3   OH225023   6.216   5.709   2.408 -0.2027  0.1992  0.2582
 1203TIP3    H125024   6.150   5.643   2.427  0.1299 -0.7915 -1.8503
 1203TIP3    H225025   6.264   5.676   2.332 -1.2904  3.6918 -2.2176
 1204TIP3   OH225026   5.260   0.298   4.765 -0.5016  0.1130  0.6004
 1204TIP3    H125027   5.283   0.269   4.853  1.9235 -0.9441 -0.2900
 1204TIP3    H225028   5.217   0.222   4.725  0.3289 -0.1741  0.2246
 1205TIP3   OH225029   3.177   3.830   1.954 -0.2211 -0.7116 -0.2912
 1205TIP3    H125030   3.116   3.894   1.991  1.3487  0.9664 -0.4429
 1205TIP3    H225031   3.148   3.819   1.863 -0.8173 -0.6292 -0.1150
 1206TIP3   OH225032   1.602   6.177   1.177 -0.4471  0.6103  0.5493
 1206TIP3    H125033   1.577   6.115   1.246  0.9139 -0.3606  0.2269
 1206TIP3    H225034   1.639   6.121   1.108  0.6080  1.7689  0.1487
 1207TIP3   OH225035   0.922   4.093   2.672 -0.1769 -0.7005  0.2019
 1207TIP3    H125036   0.999   4.090   2.615 -0.0883  0.4820  0.2300
 1207TIP3    H225037   0.855   4.137   2.620 -0.6473 -1.1798  0.3968
 1208TIP3   OH225038   6.690   4.586  14.403 -0.3510  0.8376  0.1506
 1208TIP3    H125039   6.607   4.540  14.396 -0.8759  1.8147 -0.3592
 1208TIP3    H225040   6.744   4.550  14.333 -0.5422  0.5821  0.1369
 1209TIP3   OH225041   4.739   5.363  11.754 -0.0658 -0.0391  0.1922
 1209TIP3    H125042   4.727   5.314  11.835  2.0729 -3.1516 -1.1785
 1209TIP3    H225043   4.676   5.325  11.693 -0.3531  0.9506 -0.1505
 1210TIP3   OH225044   4.399   5.577   1.740 -0.1168  0.2869 -0.0415
 1210TIP3    H125045   4.479   5.600   1.693  0.5694  0.4940  1.1809
 1210TIP3    H225046   4.409   5.618   1.826 -1.0080 -0.6634  0.5427
 1211TIP3   OH225047   1.077   1.350   5.202  0.0878  0.3832  0.4801
 1211TIP3    H125048   1.069   1.259   5.174  0.4277  0.1841  1.0158
 1211TIP3    H225049   1.085   1.345   5.297 -1.8824  1.0940  0.7281
 1212TIP3   OH225050   5.185   6.156  10.812  0.3707 -0.1431 -0.2101
 1212TIP3    H125051   5.177   6.074  10.860  1.1693 -0.3382 -0.3902
 1212TIP3    H225052   5.275   6.156  10.779  1.0572  1.7206  1.4678
 1213TIP3   OH225053   0.046   4.114  16.363  0.0584  0.2152  0.2752
 1213TIP3    H125054  -0.000   4.137  16.444  0.1947  0.4627  0.2838
 1213TIP3    H225055  -0.013   4.054  16.318 -1.1370  1.9871 -0.6315
 1214TIP3   OH225056   1.174   4.687   5.444  0.1770  0.7208  0.1344
 1214TIP3    H125057   1.258   4.650   5.419  1.0569  0.2249  3.3621
 1214TIP3    H225058   1.112   4.614   5.437  0.6162  0.3149  0.4376
 1215TIP3   OH225059   6.520   5.532  14.696  0.4900 -0.0454 -0.4277
 1215TIP3    H125060   6.507   5.439  14.715  1.6129 -0.1551 -0.1312
 1215TIP3    H225061   6.564   5.533  14.611 -1.7891  0.3352 -1.6855
 1216TIP3   OH225062   4.314   2.485  15.283  0.6951 -0.5040  0.1221
 1216TIP3    H125063   4.301   2.416  15.348  0.6760 -2.4822 -1.8600
 1216TIP3    H225064   4.406   2.476  15.258  0.5883 -0.0462 -0.4318
 1217TIP3   OH225065   0.748   5.991   5.093  0.4766 -0.0366  0.3416
 1217TIP3    H125066   0.677   5.938   5.128  0.7738 -0.5858  0.1195
 1217TIP3    H225067   0.807   5.929   5.050  0.0343  0.6377 -1.3184
 1218TIP3   OH225068   3.825   3.666   2.652  0.5179  0.4350  0.0779
 1218TIP3    H125069   3.730   3.678   2.647  0.2638 -0.8389  1.3576
 1218TIP3    H225070   3.845   3.605   2.582  0.3485  0.4529  0.0123
 1219TIP3   OH225071   5.965   6.374  10.284 -0.4451  0.2956  0.0883
 1219TIP3    H125072   5.892   6.423  10.246  0.1859  0.3281 -1.1358
 1219TIP3    H225073   6.009   6.437  10.340  0.4634  1.2345 -1.6109
 1220TIP3   OH225074   0.342   6.417  13.991 -0.2241  0.0581 -0.0223
 1220TIP3    H125075   0.406   6.461  13.936 -0.9283 -0.2601 -1.1227
 1220TIP3    H225076   0.292   6.488  14.031 -0.4802  0.2881 -0.7329
 1221TIP3   OH225077   6.338   5.456  12.683  0.6971 -0.4564 -0.6740
 1221TIP3    H125078   6.283   5.385  12.715 -0.7879 -0.5425 -3.1191
 1221TIP3    H225079   6.327   5.454  12.588  2.2170  1.7556 -0.9806
 1222TIP3   OH225080   4.903   5.137  12.279 -0.2351  0.1576  0.2478
 1222TIP3    H125081   4.944   5.156  12.195  0.2456 -1.9952 -0.0603
 1222TIP3    H225082   4.976   5.110  12.335 -0.9786 -3.0448 -0.1023
 1223TIP3   OH225083   0.560   5.571  16.494 -0.0344 -0.1172 -0.1539
 1223TIP3    H125084   0.628   5.628  16.529  0.3540 -0.1236 -0.8617
 1223TIP3    H225085   0.482   5.591  16.545 -0.3354  2.2045 -1.3774
 1224TIP3   OH225086   0.029   3.884   3.682  0.2326  0.6687  0.2808
 1224TIP3    H125087   0.066   3.840   3.758  0.4449 -2.7960 -1.5975
 1224TIP3    H225088   0.104   3.926   3.640  1.4449 -2.4576 -1.0399
 1225TIP3   OH225089   0.599   3.060  15.857 -0.0758  0.0809  0.1855
 1225TIP3    H125090   0.514   3.097  15.881 -1.0031 -2.3413  0.9823
 1225TIP3    H225091   0.622   3.105  15.776 -1.0923  2.2736  1.0084
 1226TIP3   OH225092   3.016   6.575   4.687 -0.4934 -0.3107 -0.3192
 1226TIP3    H125093   2.955   6.523   4.634 -0.0539  0.3724 -1.5435
 1226TIP3    H225094   2.960   6.632   4.739 -1.0206 -2.3408  1.5144
 1227TIP3   OH225095   6.254   2.409  16.965 -0.0961 -0.1371  0.0842
 1227TIP3    H125096   6.160   2.396  16.975 -0.6052  2.4750 -0.4452
 1227TIP3    H225097   6.265   2.504  16.969  2.7527 -0.4233  1.8725
 1228TIP3   OH225098   6.258   6.138  10.794  0.1933 -0.3765  0.6879
 1228TIP3    H125099   6.350   6.157  10.781 -0.2003  3.5896  2.2942
 1228TIP3    H225100   6.212   6.199  10.736 -1.4207 -1.1516  1.0868
 1229TIP3   OH225101   2.023   5.289  16.871 -0.5581  0.3872  0.0916
 1229TIP3    H125102   2.107   5.334  16.863 -0.9619  1.0669 -0.5367
 1229TIP3    H225103   2.045   5.199  16.893  0.3621  0.4078 -0.6845
 1230TIP3   OH225104   6.543   4.709  14.134  0.1841  0.2719 -0.6924
 1230TIP3    H125105   6.492   4.754  14.201  1.7231  1.3928 -0.2069
 1230TIP3    H225106   6.492   4.632  14.112 -1.2687  0.8829  0.3951
 1231TIP3   OH225107   5.448   5.057   5.224 -0.5019 -0.1555 -0.0437
 1231TIP3    H125108   5.543   5.046   5.226 -0.3644  0.9234 -0.2115
 1231TIP3    H225109   5.417   4.997   5.292  0.2348 -1.0272 -0.4520
 1232TIP3   OH225110   6.725   4.602   1.862  0.3643  0.0047  0.1384
 1232TIP3    H125111   6.661   4.539   1.895  2.4837 -1.2280  2.2073
 1232TIP3    H225112   6.728   4.585   1.767  0.0157 -2.2197  0.4565
 1233TIP3   OH225113   6.322   0.404   3.904 -0.0329  0.5575  0.1504
 1233TIP3    H125114   6.384   0.465   3.945  0.5611  2.1357 -2.7704
 1233TIP3    H225115   6.245   0.458   3.886  0.1241  0.2448 -1.6175
 1234TIP3   OH225116   4.926   4.330  13.781  0.7221  0.1697 -0.5939
 1234TIP3    H125117   4.874   4.410  13.778  0.4632  0.0153 -0.3192
 1234TIP3    H225118   4.867   4.262  13.748  0.3828 -0.1923  0.6828
 1235TIP3   OH225119   0.094   2.858   0.985  0.5977  0.1543  0.3600
 1235TIP3    H125120   0.006   2.894   0.991  1.1590  1.4263  1.2835
 1235TIP3    H225121   0.123   2.879   0.896  0.4911  0.9895  0.5197
 1236TIP3   OH225122   3.601   4.664   4.933 -0.0162  0.0614 -0.8176
 1236TIP3    H125123   3.580   4.757   4.944 -0.9167 -0.3279  1.4670
 1236TIP3    H225124   3.695   4.659   4.946  0.0777  0.6895 -1.2331
 1237TIP3   OH225125   3.616   5.987  17.135  0.3191  0.6242 -0.2943
 1237TIP3    H125126   3.645   5.936  17.211 -0.5863 -0.6908 -0.7828
 1237TIP3    H225127   3.651   6.075  17.150  1.2093  0.0812  1.0171
 1238TIP3   OH225128   0.809   4.839   3.655  0.2635 -0.1754  0.4276
 1238TIP3    H125129   0.823   4.793   3.572 -0.1863 -0.1171  0.3200
 1238TIP3    H225130   0.716   4.859   3.657  0.3759  0.3572  0.6729
 1239TIP3   OH225131   2.057   2.125  12.752  0.1179  0.0622 -0.3734
 1239TIP3    H125132   2.072   2.218  12.770 -2.2049  0.7026 -1.3952
 1239TIP3    H225133   1.962   2.117  12.746  0.0039 -2.9969  2.6264
 1240TIP3   OH225134   0.564   3.327  11.016 -0.3751  0.2154 -0.2157
 1240TIP3    H125135   0.602   3.323  11.104  0.1451  0.3125 -0.4339
 1240TIP3    H225136   0.547   3.420  11.002  0.5311  0.3311 -0.6273
 1241TIP3   OH225137   2.298   1.245  16.892  0.1056 -0.7352  0.0039
 1241TIP3    H125138   2.339   1.302  16.957 -0.3122 -0.8078  0.3375
 1241TIP3    H225139   2.292   1.298  16.813 -0.8584 -0.0821  0.4856
 1242TIP3   OH225140   3.677   5.267  11.830 -0.3739 -0.3936  0.6423
 1242TIP3    H125141   3.733   5.334  11.870  0.3056  0.4170 -1.5411
 1242TIP3    H225142   3.724   5.185  11.844 -0.8163 -0.3466  2.6367
 1243TIP3   OH225143   0.508   5.639   3.886  0.3357  0.0264  0.6563
 1243TIP3    H125144   0.464   5.711   3.932 -1.8321 -1.3200  0.8597
 1243TIP3    H225145   0.500   5.564   3.945  1.6422 -0.6362  0.0344
 1244TIP3   OH225146   4.884   0.720  12.396  0.6759 -0.0733 -0.1181
 1244TIP3    H125147   4.847   0.695  12.480  2.7361  1.3011  1.3001
 1244TIP3    H225148   4.811   0.716  12.335 -0.7941 -1.5092  1.6321
 1245TIP3   OH225149   4.539   0.802   6.041 -0.2627 -0.4617  0.4729
 1245TIP3    H125150   4.560   0.868   6.106 -0.4160 -0.4660  0.5281
 1245TIP3    H225151   4.537   0.719   6.089 -1.0773 -0.3746  0.6082
 1246TIP3   OH225152   4.497   3.973  15.567 -0.2216 -0.0829 -0.1577
 1246TIP3    H125153   4.460   3.972  15.656  2.7811 -1.6313  1.2302
 1246TIP3    H225154   4.476   3.886  15.533 -1.0260  0.3718 -0.8542
 1247TIP3   OH225155   5.246   3.008  14.919  0.3833 -0.1180 -0.0866
 1247TIP3    H125156   5.206   2.941  14.864 -0.6180  0.6891 -0.3801
 1247TIP3    H225157   5.245   3.087  14.866 -0.1235  0.5610  0.8899
 1248TIP3   OH225158   3.938   4.582   4.087 -0.5468 -0.1621 -0.0700
 1248TIP3    H125159   3.974   4.586   4.176 -0.3978 -0.2179 -0.1283
 1248TIP3    H225160   3.980   4.654   4.041  0.2004 -0.8060 -0.4001
 1249TIP3   OH225161   0.497   4.654   6.416  0.0189  0.1028  0.5396
 1249TIP3    H125162   0.581   4.699   6.428 -0.4539  1.4289 -0.7028
 1249TIP3    H225163   0.466   4.635   6.504  0.4857  1.8504  1.1231
 1250TIP3   OH225164   1.888   2.562  12.402 -0.0779  0.0901  0.2802
 1250TIP3    H125165   1.932   2.477  12.409 -1.7593 -0.7435  1.3173
 1250TIP3    H225166   1.932   2.606  12.329  1.0073 -1.5517 -0.1025
 1251TIP3   OH225167   6.751   5.925  16.358 -0.0437 -0.3395  0.2710
 1251TIP3    H125168   6.697   5.982  16.413  0.3884  1.4840 -1.0953
 1251TIP3    H225169   6.704   5.919  16.275  1.2186  0.2891 -0.5288
 1252TIP3   OH225170   5.786   5.732  16.403  0.2689 -0.4277 -0.1554
 1252TIP3    H125171   5.763   5.730  16.310  0.4242  0.7697 -0.2400
 1252TIP3    H225172   5.852   5.800  16.409  1.2014 -1.3782  0.6476
 1253TIP3   OH225173   4.791   6.295   1.662 -0.0562  0.2608 -0.5499
 1253TIP3    H125174   4.882   6.264   1.665  0.6908  2.3839  0.6930
 1253TIP3    H225175   4.760   6.289   1.752 -0.6095  1.0499 -0.6731
 1254TIP3   OH225176   4.303   1.644   4.417 -0.1349 -0.5283  0.2955
 1254TIP3    H125177   4.309   1.557   4.457 -1.1275 -1.3469 -1.2122
 1254TIP3    H225178   4.265   1.699   4.485 -0.3446 -1.4989  0.9926
 1255TIP3   OH225179   6.567   6.369   0.189 -0.1392 -0.5077  0.4412
 1255TIP3    H125180   6.473   6.384   0.176 -0.2241 -1.0528  0.4118
 1255TIP3    H225181   6.597   6.445   0.238 -0.6703 -0.5028  0.7600
 1256TIP3   OH225182   3.324   4.454   2.729  0.2764  0.4458 -0.6034
 1256TIP3    H125183   3.271   4.530   2.705 -0.1984 -0.6361 -3.3341
 1256TIP3    H225184   3.415   4.484   2.718  0.2612  1.5080  1.5386
 1257TIP3   OH225185   4.036   0.653  13.635  0.2526 -0.5414  0.3556
 1257TIP3    H125186   3.991   0.583  13.587 -1.2465 -0.1423  1.1205
 1257TIP3    H225187   3.988   0.733  13.611  1.3096  0.0905  0.2817
 1258TIP3   OH225188   3.401   1.939  13.827 -0.5514 -0.2119 -0.2454
 1258TIP3    H125189   3.418   1.912  13.736 -2.0409 -0.5598 -0.4493
 1258TIP3    H225190   3.483   1.980  13.855  0.4303 -1.3870 -1.2601
 1259TIP3   OH225191   5.009   6.403   4.708  0.0120 -0.2064  0.2891
 1259TIP3    H125192   5.035   6.329   4.653 -0.7772  0.3682 -0.8986
 1259TIP3    H225193   5.083   6.463   4.706  1.4255 -1.6937  2.7413
 1260TIP3   OH225194   6.163   5.837   1.856 -0.0438 -0.0067  0.6562
 1260TIP3    H125195   6.177   5.896   1.930 -1.0216 -3.5373  3.9605
 1260TIP3    H225196   6.068   5.830   1.849  0.0276  0.1872 -0.9611
 1261TIP3   OH225197   4.068   6.558   4.010 -0.2643  0.5741  0.6359
 1261TIP3    H125198   4.002   6.491   4.026 -1.3573  1.3260 -0.4972
 1261TIP3    H225199   4.152   6.513   4.019 -0.9636 -0.8128  0.4000
 1262TIP3   OH225200   1.671   4.549  15.575  0.1778 -0.0913  0.3412
 1262TIP3    H125201   1.679   4.469  15.627  0.2307  0.7817  1.7278
 1262TIP3    H225202   1.614   4.606  15.626 -0.0661  0.6780 -0.7389
 1263TIP3   OH225203   4.645   4.540  14.495 -0.1693 -0.5658 -0.6156
 1263TIP3    H125204   4.678   4.627  14.514  1.5289 -0.9354 -1.6551
 1263TIP3    H225205   4.663   4.489  14.574 -1.1962  0.0012  0.0064
 1264TIP3   OH225206   3.805   5.614   5.029 -0.2430  0.3936 -0.3992
 1264TIP3    H125207   3.858   5.692   5.020 -1.3300  1.2471  0.2742
 1264TIP3    H225208   3.777   5.592   4.940  1.3708 -0.1979 -0.7858
 1265TIP3   OH225209   4.670   2.225   6.335  0.5033  0.8868 -0.1138
 1265TIP3    H125210   4.670   2.309   6.382 -1.2417  1.1947 -0.6040
 1265TIP3    H225211   4.578   2.199   6.333  0.6856  0.2840 -2.2847
 1266TIP3   OH225212   2.016   4.580   1.681 -0.1797 -0.2871 -0.9999
 1266TIP3    H125213   2.099   4.567   1.637  1.0834 -1.2586  1.4644
 1266TIP3    H225214   1.967   4.499   1.664  0.0415 -0.3944 -1.1370
 1267TIP3   OH225215   5.444   6.232  11.170  0.1380 -0.1009  0.5802
 1267TIP3    H125216   5.359   6.189  11.174 -0.0153  0.1345  0.0237
 1267TIP3    H225217   5.463   6.258  11.260  0.5441 -1.8907  1.0345
 1268TIP3   OH225218   1.493   3.187  15.382 -0.3216 -0.2915 -0.3794
 1268TIP3    H125219   1.547   3.140  15.447  0.0747  0.4535 -0.1598
 1268TIP3    H225220   1.408   3.196  15.424  0.2250  1.1172  0.5059
 1269TIP3   OH225221   6.212   0.656  16.621 -0.1525  0.0253 -0.2662
 1269TIP3    H125222   6.262   0.655  16.539 -0.2617  1.2194 -0.3785
 1269TIP3    H225223   6.121   0.647  16.593 -0.0389 -2.2473 -0.0536
 1270TIP3   OH225224   4.610   4.095   2.232 -0.3374 -0.1374 -0.5998
 1270TIP3    H125225   4.579   4.164   2.174  2.7269  0.9757 -1.1373
 1270TIP3    H225226   4.575   4.119   2.318 -0.1154  1.5808 -0.9539
 1271TIP3   OH225227   0.954   0.085   0.321 -0.1267  0.4599 -0.1639
 1271TIP3    H125228   0.894   0.032   0.269 -0.2126  0.8064 -0.4211
 1271TIP3    H225229   0.901   0.158   0.352  0.3633  1.2652 -1.1456
 1272TIP3   OH225230   3.738   2.942  13.904  0.1703 -0.4670 -0.1386
 1272TIP3    H125231   3.763   2.872  13.964  0.8130 -0.9296 -0.9275
 1272TIP3    H225232   3.675   2.902  13.845  0.2473 -0.2784 -0.3522
 1273TIP3   OH225233   2.991   1.634   1.434  0.1699 -0.2119 -0.0627
 1273TIP3    H125234   3.046   1.560   1.411 -0.3642 -0.2604 -1.2224
 1273TIP3    H225235   2.901   1.604   1.417 -0.1403  0.2639  0.6860
 1274TIP3   OH225236   2.912   3.222  12.152  0.2770 -0.3404 -0.0856
 1274TIP3    H125237   2.892   3.154  12.087  0.4420 -0.6438  0.1807
 1274TIP3    H225238   2.958   3.290  12.102  0.3724 -0.5569 -0.2923
 1275TIP3   OH225239   2.188   4.240   4.142  0.8160 -0.3921  0.0549
 1275TIP3    H125240   2.280   4.235   4.114  0.9390  1.1666  0.1247
 1275TIP3    H225241   2.189   4.299   4.217 -0.5367  1.5640 -1.3887
 1276TIP3   OH225242   0.088   3.514   1.038 -0.7446 -0.1870  0.0533
 1276TIP3    H125243   0.026   3.472   0.978 -0.0432 -0.6819 -0.3334
 1276TIP3    H225244   0.171   3.513   0.991  0.0037 -1.3199  1.3467
 1277TIP3   OH225245   0.154   5.974   6.011 -0.3076  0.5160 -0.3545
 1277TIP3    H125246   0.168   5.916   6.085  3.4633 -0.4957 -1.6420
 1277TIP3    H225247   0.163   6.062   6.047  2.2531  0.0283  0.3932
 1278TIP3   OH225248   0.157   2.594   0.648 -0.2335  0.3512  0.6254
 1278TIP3    H125249   0.120   2.588   0.736  0.0287  0.6796  0.7623
 1278TIP3    H225250   0.179   2.504   0.625 -1.3008  0.1236  0.4515
 1279TIP3   OH225251   5.926   0.581  16.549 -0.0003  0.1136 -0.0161
 1279TIP3    H125252   5.859   0.514  16.568 -0.6399  0.7056 -0.1291
 1279TIP3    H225253   5.883   0.663  16.571  0.7521  0.4966  0.0323
 1280TIP3   OH225254   6.556   5.308   5.747  0.1616  0.1586  0.4269
 1280TIP3    H125255   6.578   5.341   5.659 -1.1159  0.0635  0.0501
 1280TIP3    H225256   6.519   5.384   5.792 -0.0399 -0.0171  0.5584
 1281TIP3   OH225257   0.253   3.986  12.981 -0.7991  0.2347 -0.1144
 1281TIP3    H125258   0.225   4.026  13.063 -2.3475 -2.4815  0.8269
 1281TIP3    H225259   0.280   3.898  13.006  0.6482  0.0006 -2.2815
 1282TIP3   OH225260   2.934   4.560   2.745 -0.3663  0.5180 -0.2610
 1282TIP3    H125261   3.007   4.567   2.683 -0.7654  0.8324 -0.7036
 1282TIP3    H225262   2.964   4.608   2.822  0.1319  0.1331 -0.2132
 1283TIP3   OH225263   3.598   2.090  16.776 -0.6213 -0.1290  0.4770
 1283TIP3    H125264   3.643   2.030  16.836  0.4651 -0.7244 -0.8615
 1283TIP3    H225265   3.578   2.035  16.700  0.2572  1.1659 -0.7203
 1284TIP3   OH225266   3.229   0.420  13.644 -0.4786 -0.2637 -0.3870
 1284TIP3    H125267   3.236   0.467  13.727 -0.7307  1.2316 -1.1809
 1284TIP3    H225268   3.231   0.488  13.577  0.6329 -1.4881 -1.6788
 1285TIP3   OH225269   1.974   2.171   6.568  0.3085 -0.3406 -0.4544
 1285TIP3    H125270   1.941   2.115   6.497  2.8866  0.9277 -2.8662
 1285TIP3    H225271   2.026   2.112   6.622  0.4288 -0.8756 -1.1267
 1286TIP3   OH225272   2.029   3.122  17.053 -0.3442  0.1910  0.2355
 1286TIP3    H125273   2.081   3.181  17.108  0.2666  0.5269 -0.6787
 1286TIP3    H225274   2.008   3.049  17.110  1.9094 -0.3950  0.4140
 1287TIP3   OH225275   3.646   0.610  12.321 -0.4598 -0.4270 -0.4586
 1287TIP3    H125276   3.573   0.561  12.285 -0.1773 -2.4145  1.4472
 1287TIP3    H225277   3.670   0.562  12.401  2.1282  0.8323 -0.3728
 1288TIP3   OH225278   1.796   1.381   4.032 -0.5696  1.0612  0.1899
 1288TIP3    H125279   1.847   1.381   4.114 -0.4438  2.2471  0.1231
 1288TIP3    H225280   1.705   1.373   4.061 -0.3923 -1.5556  0.2934
 1289TIP3   OH225281   6.600   5.026   1.062 -0.4753  0.5386  0.4587
 1289TIP3    H125282   6.678   5.080   1.053  0.5928 -0.3819  3.3073
 1289TIP3    H225283   6.541   5.077   1.117 -0.6401  0.0234  0.7743
 1290TIP3   OH225284   2.802   4.676  12.361  0.3485 -0.5335 -0.1122
 1290TIP3    H125285   2.782   4.748  12.421  0.2052 -0.8626  0.2417
 1290TIP3    H225286   2.718   4.631  12.349  0.3797 -0.4765 -0.5532
 1291TIP3   OH225287   6.621   4.548  16.979  0.2990  0.0601  0.0640
 1291TIP3    H125288   6.535   4.589  16.974 -0.3033 -1.2340 -0.5906
 1291TIP3    H225289   6.678   4.607  16.928 -0.6102 -0.0512 -1.1399
 1292TIP3   OH225290   4.444   2.199   1.364 -0.2426 -0.2780 -0.3130
 1292TIP3    H125291   4.372   2.163   1.416 -1.3349  1.0956 -0.8242
 1292TIP3    H225292   4.445   2.146   1.284 -0.2490 -0.7084 -0.0325
 1293TIP3   OH225293   3.228   2.868  12.174  0.5555 -0.1259  0.2477
 1293TIP3    H125294   3.238   2.954  12.216 -0.2905  1.4348 -2.4966
 1293TIP3    H225295   3.134   2.853  12.173  0.6209 -0.5126 -0.3935
 1294TIP3   OH225296   1.813   5.682  15.985  0.6050  0.0192 -0.2147
 1294TIP3    H125297   1.795   5.721  15.899  2.4531 -0.0474 -0.6931
 1294TIP3    H225298   1.742   5.712  16.041  0.5905  1.9921 -1.1972
 1295TIP3   OH225299   6.412   4.560   0.353  0.2935  0.4657 -0.0726
 1295TIP3    H125300   6.421   4.549   0.448 -0.8819 -0.2299 -0.0144
 1295TIP3    H225301   6.320   4.586   0.341 -0.3288 -1.9420 -1.1780
 1296TIP3   OH225302   5.144   0.384  12.800  0.0081  0.8430 -0.5864
 1296TIP3    H125303   5.177   0.296  12.819  1.5071  1.3838 -0.5303
 1296TIP3    H225304   5.053   0.383  12.831 -0.1753 -0.8351 -1.0853
 1297TIP3   OH225305   1.064   6.432   3.655 -0.4469 -0.3662 -0.2275
 1297TIP3    H125306   1.000   6.362   3.652  0.4361 -1.2666  0.8462
 1297TIP3    H225307   1.145   6.389   3.683  0.9486  0.5134 -2.6685
 1298TIP3   OH225308   4.566   3.353  12.136 -0.1055 -0.3550  0.4801
 1298TIP3    H125309   4.649   3.318  12.103  0.4350  1.1910  0.1054
 1298TIP3    H225310   4.568   3.335  12.230  0.6091 -0.4308  0.4576
 1299TIP3   OH225311   2.662   1.058  13.864 -0.6883 -0.6172  0.0188
 1299TIP3    H125312   2.610   1.118  13.811 -1.1789 -1.9125 -1.0326
 1299TIP3    H225313   2.703   0.999  13.800  0.2435 -1.0410  0.9767
 1300TIP3   OH225314   2.310   3.137   4.648  0.6420 -0.0455  0.0184
 1300TIP3    H125315   2.221   3.145   4.682  0.7075 -1.5768  0.6266
 1300TIP3    H225316   2.301   3.090   4.565  0.9367 -0.8913  0.4545
 1301TIP3   OH225317   6.114   0.170   3.298 -0.0787  0.0079 -0.5334
 1301TIP3    H125318   6.031   0.147   3.256  0.1084 -1.8600  0.0366
 1301TIP3    H225319   6.089   0.197   3.387 -0.0707 -1.0619 -0.1874
 1302TIP3   OH225320   2.669   1.909  16.358  0.0412 -0.4969 -0.1142
 1302TIP3    H125321   2.756   1.926  16.321 -1.4716 -1.5371 -4.7948
 1302TIP3    H225322   2.676   1.821  16.395  1.1084 -0.3134  0.1689
 1303TIP3   OH225323   6.627   3.112   0.403  0.2904  0.3064  0.3783
 1303TIP3    H125324   6.637   3.111   0.308 -0.0163  0.3587  0.3443
 1303TIP3    H225325   6.604   3.022   0.426  1.1490  0.1087  0.4934
 1304TIP3   OH225326   3.394   5.782  14.669 -1.1081 -0.0023  0.6739
 1304TIP3    H125327   3.346   5.859  14.638 -0.0215  0.0455 -1.0504
 1304TIP3    H225328   3.434   5.811  14.751  1.8980  2.5225 -1.4026
 1305TIP3   OH225329   0.547   5.338   5.020  0.0831 -0.8516 -0.1046
 1305TIP3    H125330   0.462   5.331   4.976  0.0265 -0.4047 -0.0726
 1305TIP3    H225331   0.565   5.249   5.052 -0.3803 -0.9452 -0.0931
 1306TIP3   OH225332   3.539   5.672  16.137  0.1232  0.0741 -0.2691
 1306TIP3    H125333   3.622   5.689  16.092  0.1984  0.7627  0.1188
 1306TIP3    H225334   3.472   5.709  16.080  0.2011  0.7541  0.0713
 1307TIP3   OH225335   2.818   3.477  16.188  0.2156  0.4450 -0.3727
 1307TIP3    H125336   2.766   3.421  16.247  0.1044  1.6797  0.7543
 1307TIP3    H225337   2.837   3.421  16.112 -1.3201 -0.5795 -0.0536
 1308TIP3   OH225338   2.718   6.764   2.111  0.4412 -0.1611  0.1219
 1308TIP3    H125339   2.680   6.785   2.025  1.2280 -2.4058 -0.8683
 1308TIP3    H225340   2.652   6.794   2.174  0.0767  2.0263 -1.2067
 1309TIP3   OH225341   1.763   2.561  12.904 -0.0904  0.7738  0.5960
 1309TIP3    H125342   1.679   2.520  12.881  1.0799 -2.6746  1.8544
 1309TIP3    H225343   1.798   2.593  12.821 -0.5549 -2.0566 -0.7843
 1310TIP3   OH225344   3.328   3.692   1.252  0.4067 -0.0852  0.2366
 1310TIP3    H125345   3.236   3.673   1.269  0.2113  0.6581  0.0215
 1310TIP3    H225346   3.336   3.692   1.157  1.2328 -2.9527  0.2014
 1311TIP3   OH225347   5.692   0.174  16.706 -0.0763  0.9233 -0.5649
 1311TIP3    H125348   5.733   0.212  16.784  0.4032  0.3204 -0.5186
 1311TIP3    H225349   5.755   0.108  16.675 -0.2538  1.1658 -1.4705
 1312TIP3   OH225350   5.804   4.989  15.095  0.0914 -0.3686 -0.2169
 1312TIP3    H125351   5.813   5.043  15.174 -0.9564 -2.7033  1.6473
 1312TIP3    H225352   5.893   4.958  15.077  0.4139  0.5476 -0.2464
 1313TIP3   OH225353   0.058   2.298  12.062  0.5940 -0.5417  0.3629
 1313TIP3    H125354   0.022   2.250  11.987  0.4345 -0.9962  0.7320
 1313TIP3    H225355   0.128   2.351  12.023 -1.8044  2.0503 -0.7743
 1314TIP3   OH225356   5.752   5.449   2.057 -0.1067  0.6004  0.7365
 1314TIP3    H125357   5.760   5.399   2.138  0.3208 -1.4877 -0.5324
 1314TIP3    H225358   5.838   5.442   2.016 -0.5590  0.9319 -0.2980
 1315TIP3   OH225359   5.144   6.602   1.375 -0.0439  0.2738 -0.3365
 1315TIP3    H125360   5.072   6.541   1.362  1.5081 -1.7252 -0.0146
 1315TIP3    H225361   5.168   6.630   1.287 -0.3106 -0.1452 -0.5455
 1316TIP3   OH225362   6.199   0.604   4.275 -0.2735  0.2044  0.7918
 1316TIP3    H125363   6.128   0.651   4.230  0.3331  0.5185  0.1493
 1316TIP3    H225364   6.202   0.518   4.232  2.8354  1.7629 -2.5900
 1317TIP3   OH225365   0.689   5.165  13.335 -0.6706 -0.1597 -0.1687
 1317TIP3    H125366   0.740   5.172  13.416  1.2011 -0.7780 -1.2363
 1317TIP3    H225367   0.614   5.111  13.359 -0.1381 -0.3553  1.1506
 1318TIP3   OH225368   5.020   4.913  16.016  0.7443  0.7693  0.3231
 1318TIP3    H125369   4.947   4.975  16.015  0.0430  0.0508 -2.5769
 1318TIP3    H225370   4.995   4.848  16.081 -1.6215  0.1743 -1.0625
 1319TIP3   OH225371   0.342   2.742   0.878  0.0583 -0.0729 -0.7363
 1319TIP3    H125372   0.290   2.777   0.806 -0.3272  0.7396 -0.0796
 1319TIP3    H225373   0.283   2.744   0.954  0.6017 -0.4667 -0.2908
 1320TIP3   OH225374   5.285   2.868   2.020 -0.3065 -0.0304 -0.1482
 1320TIP3    H125375   5.274   2.951   2.066 -1.4515 -0.0268 -0.3993
 1320TIP3    H225376   5.206   2.818   2.040  0.5413 -1.2414  0.3296
 1321TIP3   OH225377   1.492   1.081  15.029 -0.0616  0.2205 -0.6431
 1321TIP3    H125378   1.479   0.988  15.046 -0.6943  0.1885 -1.2799
 1321TIP3    H225379   1.415   1.123  15.068  0.2804  0.4969 -0.2483
 1322TIP3   OH225380   0.253   4.119   6.813  0.2025 -0.5349  0.5175
 1322TIP3    H125381   0.327   4.087   6.864  0.9277  0.0940 -0.1041
 1322TIP3    H225382   0.202   4.041   6.792  0.2186 -0.8688  1.6797
 1323TIP3   OH225383   0.930   2.306   0.441 -0.1961 -0.1245 -0.2707
 1323TIP3    H125384   0.992   2.259   0.386  2.0018 -0.1047  2.0510
 1323TIP3    H225385   0.846   2.264   0.424  1.1627 -2.9375 -0.4941
 1324TIP3   OH225386   3.494   5.554   5.374 -0.0790  0.1713  0.5569
 1324TIP3    H125387   3.551   5.607   5.318 -1.6818  0.5850 -0.7565
 1324TIP3    H225388   3.463   5.616   5.441  0.5891  0.0639  0.9798
 1325TIP3   OH225389   3.296   1.965  15.409 -0.2866  0.0466  0.8577
 1325TIP3    H125390   3.300   2.056  15.437 -2.3763  0.6640 -0.5692
 1325TIP3    H225391   3.280   1.916  15.490  0.9131  0.9134  1.6507
 1326TIP3   OH225392   3.044   3.017  15.064  0.8606  0.4463 -0.8872
 1326TIP3    H125393   2.967   3.050  15.110  0.2427 -1.2243 -0.6612
 1326TIP3    H225394   3.009   2.953  15.002  2.2104 -2.3373  1.0266
 1327TIP3   OH225395   2.130   3.112  16.019  0.0692 -0.3575  0.2819
 1327TIP3    H125396   2.049   3.162  16.011  0.7637  0.5232 -1.8044
 1327TIP3    H225397   2.199   3.175  16.001  0.9930 -1.9487 -2.3567
 1328TIP3   OH225398   5.506   4.118  14.343 -0.6780  0.3018  0.1484
 1328TIP3    H125399   5.570   4.168  14.393 -0.2905  0.0437 -0.0791
 1328TIP3    H225400   5.488   4.173  14.266 -0.7759  0.4025  0.2438
 1329TIP3   OH225401   0.649   1.443  14.715  0.0140 -0.6789  0.0774
 1329TIP3    H125402   0.675   1.529  14.748 -0.1732 -0.4622 -0.3252
 1329TIP3    H225403   0.613   1.461  14.628  2.8446 -1.4746 -1.3978
 1330TIP3   OH225404   6.687   2.307  12.782  0.2611 -0.2563  0.0718
 1330TIP3    H125405   6.703   2.215  12.761 -0.2569 -0.2119 -0.5511
 1330TIP3    H225406   6.623   2.336  12.717  2.2847  1.2354 -1.4002
 1331TIP3   OH225407   3.100   6.056   1.255  0.0168 -0.3059  0.2372
 1331TIP3    H125408   3.101   6.118   1.183  0.9738 -0.9698 -0.3354
 1331TIP3    H225409   3.186   6.064   1.296 -0.7477  0.5839  1.7920
 1332TIP3   OH225410   0.205   3.475  13.356  0.2618  0.2456 -0.2293
 1332TIP3    H125411   0.275   3.418  13.389  0.1084 -0.9484 -1.8089
 1332TIP3    H225412   0.210   3.554  13.409  1.5992 -0.5754  0.9191
 1333TIP3   OH225413   5.016   5.781  12.510 -0.0696  0.4414  0.5612
 1333TIP3    H125414   4.982   5.793  12.422  1.7524  1.4251 -0.0503
 1333TIP3    H225415   5.030   5.687  12.518 -0.1375  0.3624 -0.2340
 1334TIP3   OH225416   6.719   3.449   0.269 -0.2532  0.1227  0.5396
 1334TIP3    H125417   6.650   3.493   0.319 -0.8597 -0.0071 -0.1616
 1334TIP3    H225418   6.673   3.381   0.220  0.4478 -0.2704  0.4219
 1335TIP3   OH225419   5.047   3.693   3.766  0.1991 -0.2296  0.9879
 1335TIP3    H125420   5.133   3.706   3.806  0.3799  0.5333  0.3837
 1335TIP3    H225421   5.064   3.692   3.672 -0.3831 -0.6761  0.8818
 1336TIP3   OH225422   0.906   3.621   1.345 -0.1751  0.1721 -0.4285
 1336TIP3    H125423   0.990   3.666   1.352  0.4538 -1.1138  0.8062
 1336TIP3    H225424   0.916   3.563   1.270  0.0081  0.1015 -0.3505
 1337TIP3   OH225425   1.049   5.693   3.048  0.0980  0.6486  0.4603
 1337TIP3    H125426   1.090   5.752   3.111 -0.5844  2.6361 -0.8530
 1337TIP3    H225427   1.016   5.751   2.979  1.3816 -1.4345 -2.0867
 1338TIP3   OH225428   1.614   0.161  11.897  0.0977  0.0040 -0.1830
 1338TIP3    H125429   1.603   0.086  11.838  1.2156 -0.2691 -0.0565
 1338TIP3    H225430   1.655   0.124  11.975  1.1329  0.8267 -0.3203
 1339TIP3   OH225431   5.193   2.369   2.836  0.3034 -0.3739  0.2021
 1339TIP3    H125432   5.157   2.371   2.925 -1.4736 -0.5374 -0.4727
 1339TIP3    H225433   5.118   2.388   2.779  1.3322 -0.5747 -1.2877
 1340TIP3   OH225434   6.684   1.593   0.904 -0.5472  0.2691  0.6928
 1340TIP3    H125435   6.710   1.638   0.824  0.8821 -0.8914  0.4632
 1340TIP3    H225436   6.737   1.634   0.973 -0.7823  0.3500  0.8267
 1341TIP3   OH225437   2.123   4.257   2.987 -0.4935  0.3559 -0.3640
 1341TIP3    H125438   2.202   4.265   2.934 -1.3836 -3.1198 -2.5919
 1341TIP3    H225439   2.151   4.210   3.065 -0.0090  1.1721 -0.0361
 1342TIP3   OH225440   4.639   3.942   3.546  0.2965 -0.3565  0.6017
 1342TIP3    H125441   4.665   4.033   3.532  2.1739 -0.9342 -0.0132
 1342TIP3    H225442   4.661   3.924   3.637  0.5042 -0.3665  0.5501
 1343TIP3   OH225443   5.205   4.070  11.700 -0.0327  0.5030  0.0179
 1343TIP3    H125444   5.136   4.104  11.757  2.3199  1.7994  2.3112
 1343TIP3    H225445   5.200   4.125  11.621 -1.9148  0.2049 -0.0983
 1344TIP3   OH225446   1.023   0.853   5.551  0.4326  0.2918  0.1123
 1344TIP3    H125447   1.031   0.913   5.477 -1.0035  1.6755  1.0278
 1344TIP3    H225448   1.108   0.809   5.555  1.1847  1.5421 -1.1800
 1345TIP3   OH225449   5.990   3.142  11.895 -0.3066  0.0742 -0.0770
 1345TIP3    H125450   5.991   3.086  11.818  2.3670  1.0348 -0.8432
 1345TIP3    H225451   5.942   3.092  11.961 -0.1660 -2.0041 -1.4749
 1346TIP3   OH225452   0.114   3.396   0.055 -0.0877 -0.0271  0.4168
 1346TIP3    H125453   0.059   3.410   0.133 -1.8068  0.4718 -0.8285
 1346TIP3    H225454   0.196   3.440   0.076 -0.4550  0.0012  1.9862
 1347TIP3   OH225455   4.843   0.881  16.337 -0.7712 -0.4816  0.1521
 1347TIP3    H125456   4.774   0.861  16.401 -1.2101 -2.4506 -0.8442
 1347TIP3    H225457   4.923   0.890  16.389 -1.0558 -2.3764  0.9790
 1348TIP3   OH225458   1.466   5.896  11.398  0.3618 -0.6592  0.4670
 1348TIP3    H125459   1.481   5.852  11.314 -0.3318 -1.0046  0.5161
 1348TIP3    H225460   1.552   5.898  11.440  0.8428  0.0531 -0.4999
 1349TIP3   OH225461   4.520   4.830  16.498  0.0741  0.3445  0.4101
 1349TIP3    H125462   4.520   4.735  16.513 -0.0386  0.1957 -0.4957
 1349TIP3    H225463   4.575   4.842  16.421 -0.3561  0.9665  0.1947
 1350TIP3   OH225464   4.360   3.152   1.923  0.3760 -0.3138 -0.5496
 1350TIP3    H125465   4.348   3.096   1.846 -2.1231 -0.2098 -0.2956
 1350TIP3    H225466   4.361   3.092   1.997 -1.7607 -0.1514 -0.3258
 1351TIP3   OH225467   3.098   1.069  11.972 -0.0966 -1.1702 -0.2731
 1351TIP3    H125468   3.128   0.979  11.963 -0.9368 -1.4164 -0.7218
 1351TIP3    H225469   3.063   1.092  11.886  0.2715 -0.3525 -0.2113
 1352TIP3   OH225470   1.722   4.532  12.017 -0.7961 -0.7784 -0.8896
 1352TIP3    H125471   1.789   4.593  12.050 -1.2701 -1.2216  1.0235
 1352TIP3    H225472   1.663   4.518  12.091 -1.5433 -2.4334 -1.7275
 1353TIP3   OH225473   2.968   1.533  14.264  0.3213 -0.2183  0.2283
 1353TIP3    H125474   3.006   1.587  14.194 -0.6091 -0.1876 -0.2701
 1353TIP3    H225475   2.922   1.595  14.320 -1.0024 -0.5017 -0.5115
 1354TIP3   OH225476   5.921   3.105  15.841  0.5143 -0.1277  0.3793
 1354TIP3    H125477   5.921   3.030  15.782 -2.2879 -0.3998  0.5656
 1354TIP3    H225478   5.978   3.169  15.798 -1.3484 -0.3225 -2.7122
 1355TIP3   OH225479   3.933   4.491  16.120  0.2480  0.7172  0.0557
 1355TIP3    H125480   3.882   4.427  16.071  1.2529  0.8181 -1.1714
 1355TIP3    H225481   4.006   4.513  16.062 -0.3238  3.3448  0.2274
 1356TIP3   OH225482   1.878   3.570  11.134  0.9622 -0.3339  0.0417
 1356TIP3    H125483   1.916   3.595  11.050 -2.4188  0.7271 -1.3465
 1356TIP3    H225484   1.946   3.589  11.198  2.7985  1.1679 -2.1922
 1357TIP3   OH225485   6.588   4.556  12.536 -1.0595 -0.0444 -0.0331
 1357TIP3    H125486   6.621   4.501  12.607  0.1564 -1.2005 -1.4175
 1357TIP3    H225487   6.626   4.642  12.552  0.7528 -0.7560 -0.2587
 1358TIP3   OH225488   0.650   4.429  12.442 -0.2417  0.0248 -0.5307
 1358TIP3    H125489   0.706   4.411  12.367 -2.8319 -0.8305 -2.4003
 1358TIP3    H225490   0.632   4.342  12.480  1.0966  0.4517  1.1939
 1359TIP3   OH225491   4.858   6.553   5.426 -0.1864 -0.4812 -0.6282
 1359TIP3    H125492   4.775   6.556   5.474 -0.7800 -0.6658 -1.6086
 1359TIP3    H225493   4.834   6.519   5.340  0.8707 -0.2556 -1.0214
 1360TIP3   OH225494   0.343   5.309  14.628  0.1469  0.1123 -0.0210
 1360TIP3    H125495   0.331   5.355  14.710  1.3337  0.3333  0.0336
 1360TIP3    H225496   0.266   5.251  14.622 -0.0989  0.3060  1.0818
 1361TIP3   OH225497   6.203   0.905   2.964  0.0882 -0.2485  0.0921
 1361TIP3    H125498   6.171   0.821   2.997  1.1310 -1.5952 -2.1355
 1361TIP3    H225499   6.125   0.946   2.925 -0.0688 -1.0775 -0.5032
 1362TIP3   OH225500   5.581   2.963   0.512 -0.2695  0.1451 -0.2847
 1362TIP3    H125501   5.630   3.033   0.556  0.0786  0.1507 -0.6747
 1362TIP3    H225502   5.497   2.960   0.559  0.1896 -0.0252  0.5377
 1363TIP3   OH225503   2.390   2.946   4.810  0.2860  0.0652 -0.5425
 1363TIP3    H125504   2.355   3.014   4.753 -0.7921  0.5217  0.6309
 1363TIP3    H225505   2.420   2.992   4.888  0.0941 -0.7321  0.0167
 1364TIP3   OH225506   2.599   0.348  14.300 -0.2950  0.6270  0.4208
 1364TIP3    H125507   2.685   0.330  14.338 -0.4315 -0.3031  0.3110
 1364TIP3    H225508   2.603   0.440  14.272  1.4692 -0.0066 -1.6541
 1365TIP3   OH225509   3.782   3.805  10.806  0.3036 -0.0237  0.7323
 1365TIP3    H125510   3.755   3.885  10.760 -0.8182 -0.5126  0.5137
 1365TIP3    H225511   3.750   3.734  10.751  3.0902 -0.7018 -0.1618
 1366TIP3   OH225512   5.096   0.469  13.248 -0.8693  0.3420 -0.2205
 1366TIP3    H125513   5.104   0.539  13.183  1.0728 -2.7267 -3.6446
 1366TIP3    H225514   5.003   0.448  13.250 -1.1365  1.3647 -0.9652
 1367TIP3   OH225515   4.500   4.037  16.523  0.0765 -0.4708 -0.3105
 1367TIP3    H125516   4.478   3.968  16.585  0.5048 -0.7739 -0.4949
 1367TIP3    H225517   4.557   4.097  16.571 -0.4740 -0.1138 -0.0796
 1368TIP3   OH225518   6.438   1.994   2.975 -0.3738  0.0547 -0.3170
 1368TIP3    H125519   6.399   1.938   3.042 -0.4464  0.5150  0.0283
 1368TIP3    H225520   6.434   1.942   2.895 -0.2134 -0.5264  0.0515
 1369TIP3   OH225521   1.227   2.989  15.135 -0.8497  0.4035 -0.1220
 1369TIP3    H125522   1.302   2.932  15.123 -1.0584  0.0172  0.3922
 1369TIP3    H225523   1.253   3.072  15.095 -0.5952 -0.0852 -0.9901
 1370TIP3   OH225524   0.369   2.004  16.918 -0.1766  0.1688 -0.1852
 1370TIP3    H125525   0.408   1.952  16.988  1.1290 -0.1814 -1.1360
 1370TIP3    H225526   0.357   2.091  16.956 -1.1477 -0.4577  1.0129
 1371TIP3   OH225527   0.222   6.373  11.390 -0.0794 -0.4793 -0.5570
 1371TIP3    H125528   0.136   6.336  11.410 -0.5819  1.5271  1.4370
 1371TIP3    H225529   0.212   6.408  11.302 -1.9346  1.1908  0.2223
 1372TIP3   OH225530   3.976   4.823   4.758  0.7947  0.1627 -0.3798
 1372TIP3    H125531   4.003   4.900   4.808  0.9235  1.1526 -1.9124
 1372TIP3    H225532   4.041   4.756   4.781  1.5134  0.9454 -0.0842
 1373TIP3   OH225533   1.914   4.440  11.722 -0.7833 -0.2097 -0.2698
 1373TIP3    H125534   1.849   4.509  11.711 -1.5561 -0.8747 -0.0020
 1373TIP3    H225535   1.901   4.381  11.648  0.7481  0.5926 -1.2227
 1374TIP3   OH225536   3.847   6.534  13.757  0.0107 -0.0096  0.3184
 1374TIP3    H125537   3.819   6.624  13.742  0.8303  0.2178  0.0778
 1374TIP3    H225538   3.926   6.525  13.703 -0.3054 -1.0036  0.0134
 1375TIP3   OH225539   0.019   2.328  11.252 -0.3506 -0.5129 -0.4171
 1375TIP3    H125540  -0.043   2.262  11.283 -0.8316 -0.2586 -0.8220
 1375TIP3    H225541  -0.021   2.412  11.276 -0.2977 -0.3378 -0.9213
 1376TIP3   OH225542   0.002   0.973  16.875 -0.1331 -0.0439  0.1955
 1376TIP3    H125543   0.070   0.989  16.810  0.6800  0.3462  1.1159
 1376TIP3    H225544   0.030   1.022  16.952 -1.2641 -0.1938  0.7281
 1377TIP3   OH225545   4.287   5.220   2.167  0.3764  0.6067 -0.7007
 1377TIP3    H125546   4.246   5.177   2.243  0.3684  1.3706 -0.2650
 1377TIP3    H225547   4.368   5.171   2.153  0.1315  0.1389 -0.5193
 1378TIP3   OH225548   3.804   5.346   4.416 -0.2452 -0.4105 -0.1480
 1378TIP3    H125549   3.838   5.435   4.429 -1.1692 -0.3261  2.2843
 1378TIP3    H225550   3.709   5.355   4.429 -0.4109 -1.6909 -0.3278
 1379TIP3   OH225551   5.561   0.958  13.146  0.1687  0.5604  0.3143
 1379TIP3    H125552   5.553   1.021  13.218 -1.0961  1.4832 -0.5824
 1379TIP3    H225553   5.616   1.002  13.081 -0.8303  0.8296 -0.3741
 1380TIP3   OH225554   3.064   4.018   2.596  0.1396  0.0378  0.4068
 1380TIP3    H125555   3.099   4.065   2.672  1.2016  0.0228 -0.0637
 1380TIP3    H225556   2.988   3.970   2.631  1.2706 -0.8702  1.7246
 1381TIP3   OH225557   3.417   6.770  11.174  0.2208  0.1795 -0.4337
 1381TIP3    H125558   3.461   6.722  11.244 -1.6440  1.2656  1.6322
 1381TIP3    H225559   3.485   6.788  11.110  2.8764  1.8528  2.5714
 1382TIP3   OH225560   4.317   2.316  12.460  0.3767  0.5408 -0.2710
 1382TIP3    H125561   4.340   2.306  12.368 -1.7751  2.0827 -1.0705
 1382TIP3    H225562   4.229   2.277  12.466 -0.1251  1.7553  0.7506
 1383TIP3   OH225563   4.128   5.691  13.929  0.3577 -0.0663 -0.5457
 1383TIP3    H125564   4.201   5.693  13.867  1.4137 -0.3244  0.6593
 1383TIP3    H225565   4.137   5.607  13.974 -1.4891 -0.7167 -1.2890
 1384TIP3   OH225566   5.961   0.995  13.003 -0.2825  0.2186  0.4117
 1384TIP3    H125567   6.056   0.987  12.991 -0.1839  0.8706  0.7597
 1384TIP3    H225568   5.946   0.979  13.096 -0.2921  1.9639  0.7481
 1385TIP3   OH225569   4.067   2.399  11.196 -0.0261  0.1168  0.2623
 1385TIP3    H125570   4.119   2.329  11.156 -1.1216 -0.4560 -0.2086
 1385TIP3    H225571   4.014   2.434  11.124 -0.3447  0.6461  0.7408
 1386TIP3   OH225572   0.845   1.598  13.262 -0.2693  0.1708  0.0303
 1386TIP3    H125573   0.927   1.567  13.300 -0.3816 -0.6059 -0.3514
 1386TIP3    H225574   0.811   1.523  13.214 -1.7343  0.1588  1.0370
 1387TIP3   OH225575   1.720   2.592   4.838  0.5020  0.0926 -0.3178
 1387TIP3    H125576   1.688   2.520   4.893 -0.9884 -0.0446 -1.3174
 1387TIP3    H225577   1.727   2.667   4.898 -0.2452 -0.2715  0.2322
 1388TIP3   OH225578   6.365   4.899   1.697  0.0511 -0.0603 -0.1194
 1388TIP3    H125579   6.420   4.824   1.721  0.8655  1.0579  1.7650
 1388TIP3    H225580   6.426   4.965   1.665 -0.7679 -0.5040 -2.8251
 1389TIP3   OH225581   1.537   1.169   2.407 -0.3541  0.2547 -0.0031
 1389TIP3    H125582   1.630   1.180   2.427 -0.3699  0.1537  0.1367
 1389TIP3    H225583   1.495   1.168   2.493 -0.4298 -0.1630 -0.0435
 1390TIP3   OH225584   5.431   4.258   2.466 -0.1734 -0.2905  0.6107
 1390TIP3    H125585   5.360   4.321   2.453  0.0377  0.2511  1.9266
 1390TIP3    H225586   5.508   4.311   2.485 -0.4645 -0.8714  4.0510
 1391TIP3   OH225587   5.941   3.676   3.359  0.3367 -0.0068  0.1169
 1391TIP3    H125588   5.929   3.607   3.424  1.4477 -0.1354  0.2131
 1391TIP3    H225589   5.978   3.631   3.283  0.7417  0.4187  0.0545
 1392TIP3   OH225590   0.087   0.872  15.751 -0.3036  0.1185 -0.3005
 1392TIP3    H125591   0.075   0.875  15.846  0.8084 -0.3519 -0.1361
 1392TIP3    H225592   0.075   0.963  15.722  3.0043  1.0160  0.7749
 1393TIP3   OH225593   6.712   1.325   0.979  0.3109 -0.2377 -0.4300
 1393TIP3    H125594   6.618   1.310   0.970 -0.1129  0.9591  1.4131
 1393TIP3    H225595   6.726   1.414   0.945  0.1125  0.9520  2.3219
 1394TIP3   OH225596   6.130   0.843  16.151 -0.4173 -0.0808 -0.1980
 1394TIP3    H125597   6.175   0.874  16.229  1.8689  0.1958 -1.5268
 1394TIP3    H225598   6.039   0.832  16.178  0.2413  0.2358  2.4030
 1395TIP3   OH225599   1.662   2.247   3.968 -0.3749 -0.3723 -0.2097
 1395TIP3    H125600   1.651   2.153   3.976  1.1180 -0.5012  0.6061
 1395TIP3    H225601   1.745   2.258   3.922 -3.0000  0.5248 -5.5144
 1396TIP3   OH225602   5.114   5.164  12.123 -0.6190 -0.3644 -0.5695
 1396TIP3    H125603   5.074   5.187  12.039  0.6861 -1.1210 -1.4282
 1396TIP3    H225604   5.182   5.100  12.101 -0.3918 -0.7430  1.0930
 1397TIP3   OH225605   2.948   4.700   1.856  0.5180 -0.4617  0.4523
 1397TIP3    H125606   2.886   4.628   1.855  1.6549 -1.5396 -2.0866
 1397TIP3    H225607   2.921   4.756   1.783  1.4491  0.0248  0.4572
 1398TIP3   OH225608   3.418   0.702  16.996 -0.2141  0.1021 -0.6308
 1398TIP3    H125609   3.340   0.754  17.015 -1.0794 -0.6093 -2.1050
 1398TIP3    H225610   3.403   0.618  17.040 -1.7055 -1.1346 -3.3381
 1399TIP3   OH225611   1.444   4.293   5.243  0.2333 -0.4426 -0.1240
 1399TIP3    H125612   1.370   4.315   5.186  0.7267  0.4278 -0.4505
 1399TIP3    H225613   1.405   4.239   5.313 -0.6860 -0.0892 -0.3440
 1400TIP3   OH225614   2.734   3.057  16.425 -0.0008 -0.3434 -0.3567
 1400TIP3    H125615   2.741   3.152  16.416  1.4478 -0.3567  0.2472
 1400TIP3    H225616   2.640   3.040  16.430 -0.3285  0.9396 -1.4974
 1401TIP3   OH225617   3.324   6.407  12.331  0.3205 -0.7215  0.9153
 1401TIP3    H125618   3.317   6.339  12.264  1.5228 -0.7108  0.7555
 1401TIP3    H225619   3.415   6.436  12.326 -0.5228  2.0937 -0.1724
 1402TIP3   OH225620   4.059   2.532  13.778  0.2096  0.0170 -0.1160
 1402TIP3    H125621   4.053   2.599  13.846  0.5102  0.1662 -0.2326
 1402TIP3    H225622   4.123   2.469  13.811  1.2835  0.7279 -0.7848
 1403TIP3   OH225623   4.346   3.306  13.983  0.8410 -0.2543 -0.0901
 1403TIP3    H125624   4.294   3.322  13.904  3.1924  1.6552 -1.3729
 1403TIP3    H225625   4.302   3.356  14.052  1.0336  1.5313 -1.1985
 1404TIP3   OH225626   0.188   3.645  11.750 -0.4118  0.3477  0.2972
 1404TIP3    H125627   0.132   3.603  11.816  2.0679 -0.5158  2.0116
 1404TIP3    H225628   0.227   3.719  11.796  2.4860 -1.0953  0.4242
 1405TIP3   OH225629   1.897   1.834   5.231 -0.3150  0.1275 -0.2236
 1405TIP3    H125630   1.850   1.915   5.248  0.5079  0.3396  1.2782
 1405TIP3    H225631   1.917   1.800   5.319  0.1701 -1.2199 -0.8265
 1406TIP3   OH225632   4.024   0.997   1.919 -0.0626  0.5998  0.3772
 1406TIP3    H125633   3.933   1.021   1.936 -0.0281  1.6233 -0.7311
 1406TIP3    H225634   4.068   1.009   2.003 -0.5820  2.0083  0.4708
 1407TIP3   OH225635   2.038   2.451   2.126  0.0841  0.5344  0.1498
 1407TIP3    H125636   2.021   2.419   2.214 -2.1686 -0.2044 -0.4790
 1407TIP3    H225637   2.041   2.546   2.135 -0.8861  0.5088  0.9242
 1408TIP3   OH225638   2.205   0.577  12.427 -0.6394  0.8522 -0.8165
 1408TIP3    H125639   2.240   0.555  12.514  2.9415 -1.9056 -2.6722
 1408TIP3    H225640   2.148   0.503  12.405  0.2301  0.3974 -1.6144
 1409TIP3   OH225641   2.592   4.730  15.719  0.1669 -0.2467 -0.1024
 1409TIP3    H125642   2.587   4.786  15.641 -0.2619  0.8030  0.6550
 1409TIP3    H225643   2.643   4.780  15.782 -0.3645 -0.6270  0.6514
 1410TIP3   OH225644   3.936   2.251   0.536  0.1874  0.0144 -0.0127
 1410TIP3    H125645   3.888   2.203   0.468 -0.2712  2.0830 -1.2635
 1410TIP3    H225646   4.011   2.289   0.490  1.1539 -0.4041  1.1801
 1411TIP3   OH225647   5.600   1.392  12.219 -0.0726 -0.1076  0.4002
 1411TIP3    H125648   5.572   1.301  12.210  0.4463 -0.9000  4.6026
 1411TIP3    H225649   5.695   1.388  12.209  0.0846 -0.3291  1.7313
 1412TIP3   OH225650   2.874   2.648   3.050  0.4999 -0.4031  0.2558
 1412TIP3    H125651   2.876   2.608   3.136  0.3183 -0.2089  0.3533
 1412TIP3    H225652   2.858   2.576   2.990 -0.7588 -0.3625  0.5161
 1413TIP3   OH225653   6.462   1.277  16.160 -0.2317 -0.2346  0.2377
 1413TIP3    H125654   6.531   1.280  16.227 -0.7784  1.2924  0.7686
 1413TIP3    H225655   6.408   1.354  16.177 -0.6668 -0.0598 -1.6936
 1414TIP3   OH225656   3.668   6.206  13.209 -0.3544  0.0718 -0.0688
 1414TIP3    H125657   3.601   6.173  13.148 -0.7761  0.3265  0.2453
 1414TIP3    H225658   3.620   6.221  13.290  0.4288 -1.3300  0.6789
 1415TIP3   OH225659   2.643   4.156   4.429  0.1128 -0.4362 -0.2262
 1415TIP3    H125660   2.609   4.088   4.370 -0.3847  0.0382 -0.4847
 1415TIP3    H225661   2.568   4.212   4.449  0.8286  0.9334 -1.2307
 1416TIP3   OH225662   3.361   1.012   6.438 -0.4479  0.3055 -0.2410
 1416TIP3    H125663   3.427   1.072   6.473 -0.0512  0.2197 -0.8254
 1416TIP3    H225664   3.312   1.065   6.375 -0.7502  0.2884 -0.0207
 1417TIP3   OH225665   4.380   3.593  12.500 -0.6245 -0.5270 -0.0015
 1417TIP3    H125666   4.401   3.684  12.523 -1.0749 -1.0356  2.7062
 1417TIP3    H225667   4.325   3.562  12.571 -0.3879 -2.9895 -0.7933
 1418TIP3   OH225668   5.849   3.592  14.614  0.7675  0.9644 -0.0165
 1418TIP3    H125669   5.797   3.531  14.667  0.5244  0.5219 -0.7452
 1418TIP3    H225670   5.929   3.544  14.595 -0.1700  0.1262 -2.1121
 1419TIP3   OH225671   4.513   5.035   1.868 -0.7173 -0.3476 -0.2738
 1419TIP3    H125672   4.432   5.074   1.900 -0.0132 -0.0534  1.1921
 1419TIP3    H225673   4.579   5.105   1.876 -0.0038 -1.0286 -0.0780
 1420TIP3   OH225674   4.580   3.144  14.049  0.0744 -0.1001  0.0436
 1420TIP3    H125675   4.509   3.206  14.063 -0.3107 -0.2946 -1.0104
 1420TIP3    H225676   4.569   3.079  14.119 -0.9940 -0.3062 -0.2933
 1421TIP3   OH225677   1.363   0.501   2.407 -0.1342  0.4924  0.6660
 1421TIP3    H125678   1.453   0.500   2.376 -1.0907  0.2579 -2.4756
 1421TIP3    H225679   1.349   0.592   2.435  0.3134  1.3130 -1.5535
 1422TIP3   OH225680   3.146   3.046  15.983 -0.5201 -0.2747 -0.1467
 1422TIP3    H125681   3.089   3.024  15.909 -0.7405  1.5051 -0.5493
 1422TIP3    H225682   3.086   3.074  16.052 -0.2393 -0.5007  0.1916
 1423TIP3   OH225683   5.753   0.415  12.460 -0.0473  0.0290 -0.4734
 1423TIP3    H125684   5.811   0.339  12.468 -1.3087 -0.9176 -0.0567
 1423TIP3    H225685   5.718   0.408  12.372  0.0326  0.2800 -0.5243
 1424TIP3   OH225686   1.429   3.704  11.274  0.4836  0.0478  0.1948
 1424TIP3    H125687   1.520   3.713  11.246  0.1923 -0.1352 -0.8587
 1424TIP3    H225688   1.393   3.792  11.269  0.0534 -0.1781 -1.4512
 1425TIP3   OH225689   1.492   2.409   4.911  0.4327 -0.5820 -1.0246
 1425TIP3    H125690   1.528   2.405   4.999 -1.1846  3.1267  0.0026
 1425TIP3    H225691   1.415   2.352   4.914  0.5938 -0.7636 -0.1564
 1426TIP3   OH225692   4.815   1.114  15.257 -0.3164  0.3951 -0.3586
 1426TIP3    H125693   4.814   1.134  15.351 -0.6612  0.4572 -0.3742
 1426TIP3    H225694   4.891   1.056  15.246  0.0980  0.8876 -0.1474
 1427TIP3   OH225695   1.070   2.583  13.971 -0.0962 -0.1686  0.3430
 1427TIP3    H125696   1.159   2.552  13.954  0.2671 -0.3461  2.4140
 1427TIP3    H225697   1.079   2.677  13.982 -0.0407 -0.2644  1.1848
 1428TIP3   OH225698   1.280   0.418   0.238  0.9362 -0.1154  0.1454
 1428TIP3    H125699   1.274   0.385   0.148  0.5414 -0.6977  0.3750
 1428TIP3    H225700   1.228   0.355   0.290  1.7388 -0.1941  0.8803
 1429TIP3   OH225701   4.460   6.554  15.736 -0.0919 -0.0586 -0.5160
 1429TIP3    H125702   4.376   6.567  15.781  0.0539 -2.3375  0.5587
 1429TIP3    H225703   4.522   6.539  15.807  0.7493 -0.7476 -1.3757
 1430TIP3   OH225704   1.509   0.744   3.102 -0.0237 -0.0166 -0.2458
 1430TIP3    H125705   1.451   0.681   3.060  0.6075  0.5320 -2.0190
 1430TIP3    H225706   1.451   0.813   3.135 -0.3952  0.9965 -2.8119
 1431TIP3   OH225707   2.570   3.738  13.687  0.3939  0.1348  0.0886
 1431TIP3    H125708   2.616   3.654  13.694  1.1830  0.6043  0.7131
 1431TIP3    H225709   2.628   3.801  13.731  0.5305  1.3087 -1.6799
 1432TIP3   OH225710   2.592   1.324   6.198 -0.5684 -0.1450  0.1067
 1432TIP3    H125711   2.590   1.322   6.293 -1.4217  1.6176  0.1584
 1432TIP3    H225712   2.524   1.262   6.171  0.3966 -1.4534  0.5896
 1433TIP3   OH225713   2.903   0.824   0.638 -0.0473  0.4363  0.0647
 1433TIP3    H125714   2.832   0.763   0.656 -0.5122  0.3978 -1.7177
 1433TIP3    H225715   2.882   0.901   0.691 -1.6892  0.5956 -0.7704
 1434TIP3   OH225716   1.771   4.475   5.643  0.3771  0.0906 -0.3330
 1434TIP3    H125717   1.823   4.487   5.723 -0.0443 -1.7349  0.2598
 1434TIP3    H225718   1.791   4.386   5.614 -1.2054 -0.0896 -0.9852
 1435TIP3   OH225719   0.536   0.663   4.379 -0.4848 -0.7202  0.2344
 1435TIP3    H125720   0.448   0.628   4.366 -0.7792 -0.9023  2.4530
 1435TIP3    H225721   0.579   0.599   4.435  0.6223  0.0337  0.2657
 1436TIP3   OH225722   5.063   5.182  13.410  0.0138 -0.3868 -0.5346
 1436TIP3    H125723   5.105   5.254  13.457 -0.4356  0.0507 -0.7927
 1436TIP3    H225724   5.090   5.104  13.458  1.8107 -0.2205 -1.1767
 1437TIP3   OH225725   1.621   5.674   2.872 -0.2354  0.6882 -0.0490
 1437TIP3    H125726   1.657   5.712   2.952  0.0903 -0.3842  0.3263
 1437TIP3    H225727   1.688   5.689   2.806  1.1014 -1.4958  0.6900
 1438TIP3   OH225728   5.226   3.204  11.330  0.0127 -0.5469 -0.7671
 1438TIP3    H125729   5.181   3.287  11.314 -1.3800 -1.2453 -0.6044
 1438TIP3    H225730   5.304   3.207  11.273 -0.5365  0.4536 -1.4888
 1439TIP3   OH225731   2.200   0.436  16.375  0.6417 -0.3902  0.1877
 1439TIP3    H125732   2.195   0.373  16.446  2.2400  0.0518  0.7240
 1439TIP3    H225733   2.128   0.497  16.392 -0.6970 -1.8255 -0.1463
 1440TIP3   OH225734   3.413   5.914   5.740 -0.0542  0.5430 -0.6736
 1440TIP3    H125735   3.381   5.896   5.828  0.7464 -1.4663 -0.7118
 1440TIP3    H225736   3.336   5.907   5.684  0.0781 -3.3468 -0.6703
 1441TIP3   OH225737   3.285   2.417  13.650  0.3022 -0.4859 -0.8133
 1441TIP3    H125738   3.373   2.391  13.626  1.6988  1.5503  1.6215
 1441TIP3    H225739   3.251   2.463  13.573  0.2067 -3.5399 -2.7646
 1442TIP3   OH225740   5.060   3.803  16.046  0.2085 -0.1863 -0.6487
 1442TIP3    H125741   5.059   3.898  16.034 -1.2593  0.2425  2.0450
 1442TIP3    H225742   5.040   3.768  15.959  1.1385  1.9017 -1.7997
 1443TIP3   OH225743   4.838   6.634   4.680  0.3073  0.7569  0.6355
 1443TIP3    H125744   4.897   6.560   4.692  1.4940  1.4524 -0.5278
 1443TIP3    H225745   4.761   6.598   4.636 -0.1063 -0.1453  2.0553
 1444TIP3   OH225746   1.626   6.246  16.325  0.4148  0.0979  0.0865
 1444TIP3    H125747   1.669   6.163  16.347  1.7031  0.1822 -1.8874
 1444TIP3    H225748   1.684   6.287  16.261 -0.2925  2.4562  0.8398
 1445TIP3   OH225749   0.079   5.916   4.725 -0.0638  0.4226  1.0607
 1445TIP3    H125750   0.166   5.918   4.686 -0.3731  0.7254  0.3641
 1445TIP3    H225751   0.065   5.825   4.750  0.2362  0.2710  0.6762
 1446TIP3   OH225752   5.464   5.040   1.637  0.6057 -1.1875 -0.8137
 1446TIP3    H125753   5.536   5.070   1.581  1.9880 -2.4039  0.2234
 1446TIP3    H225754   5.444   4.952   1.606 -0.4117 -0.8985 -1.0281
 1447TIP3   OH225755   2.704   2.538   2.713 -0.1701  0.0139  0.2383
 1447TIP3    H125756   2.645   2.576   2.778 -1.5879 -1.8640  0.1299
 1447TIP3    H225757   2.734   2.612   2.661  0.6308  1.5144  2.6912
 1448TIP3   OH225758   0.514   1.078   6.170  0.1732 -0.6391  0.2176
 1448TIP3    H125759   0.539   1.170   6.158 -0.1641 -0.5162  0.4407
 1448TIP3    H225760   0.442   1.065   6.108 -0.8027 -0.3229  1.2473
 1449TIP3   OH225761   6.325   0.909   4.359 -0.6167 -0.2776  0.4775
 1449TIP3    H125762   6.342   0.927   4.451 -0.6412 -0.7964  0.5852
 1449TIP3    H225763   6.264   0.835   4.359 -1.1004  0.1187  0.0533
 1450TIP3   OH225764   1.560   1.946   0.226  0.5841  0.2072 -0.5740
 1450TIP3    H125765   1.559   1.880   0.295 -1.3207 -0.1713 -0.9053
 1450TIP3    H225766   1.586   1.899   0.147  0.3690  0.1070 -0.5848
 1451TIP3   OH225767   0.490   4.653   0.000 -0.0867 -0.2649 -0.7960
 1451TIP3    H125768   0.407   4.632  -0.041 -0.7883 -0.3628  0.6027
 1451TIP3    H225769   0.475   4.738   0.042 -0.0764 -1.0550  0.9119
 1452TIP3   OH225770   5.760   5.196  17.126 -0.5084  0.4765  0.8968
 1452TIP3    H125771   5.818   5.142  17.181  0.2436  1.1438  0.7783
 1452TIP3    H225772   5.688   5.137  17.102  0.0331 -0.3246  1.1896
 1453TIP3   OH225773   0.887   4.596  12.243 -0.1059 -0.2731  0.3827
 1453TIP3    H125774   0.965   4.553  12.276  1.3793  2.1497  0.3116
 1453TIP3    H225775   0.851   4.641  12.320 -0.6575 -0.2831  0.1338
 1454TIP3   OH225776   0.259   5.181  16.589  0.3227  0.0054 -0.3989
 1454TIP3    H125777   0.265   5.103  16.534  1.2577  0.3450 -0.8140
 1454TIP3    H225778   0.312   5.161  16.666 -0.7379 -0.3545  0.2515
 1455TIP3   OH225779   2.550   1.580   2.403  0.1463  0.0181 -0.0126
 1455TIP3    H125780   2.482   1.591   2.469  0.0333 -0.3758 -0.0626
 1455TIP3    H225781   2.523   1.639   2.332 -0.0664 -0.0272  0.0284
 1456TIP3   OH225782   2.872   1.403   0.388  0.1455 -0.2818 -0.2512
 1456TIP3    H125783   2.949   1.379   0.338  1.4256  0.4388  1.2688
 1456TIP3    H225784   2.827   1.320   0.405  1.1393 -0.8502 -0.3223
 1457TIP3   OH225785   1.617   1.405  13.224 -0.1487  0.0479 -0.1325
 1457TIP3    H125786   1.640   1.498  13.219 -2.6820  0.7560 -0.4629
 1457TIP3    H225787   1.535   1.405  13.273  1.1679 -2.3359  2.2965
 1458TIP3   OH225788   4.867   1.751  16.905  0.0619 -0.0648 -0.2315
 1458TIP3    H125789   4.864   1.704  16.988  1.5873 -0.0884 -0.1586
 1458TIP3    H225790   4.905   1.689  16.843  0.8906  0.6167 -0.4310
 1459TIP3   OH225791   2.161   2.326  15.301  0.3805 -0.0631 -0.4384
 1459TIP3    H125792   2.166   2.248  15.245 -0.1060  0.9557 -1.9724
 1459TIP3    H225793   2.129   2.293  15.385  2.1241 -1.8063 -0.3765
 1460TIP3   OH225794   3.847   4.389   2.573 -0.5609 -0.0102 -0.4078
 1460TIP3    H125795   3.797   4.379   2.654 -0.3833 -2.4267 -0.5219
 1460TIP3    H225796   3.936   4.408   2.602  0.2999 -4.1082  0.2862
 1461TIP3   OH225797   1.405   5.796  15.757  0.3034 -0.5624 -0.5205
 1461TIP3    H125798   1.478   5.759  15.807  0.6486  0.6499 -0.1020
 1461TIP3    H225799   1.446   5.831  15.677 -0.1759 -2.0536 -1.4645
 1462TIP3   OH225800   0.193   0.612   5.891 -0.0102 -0.2797 -0.0545
 1462TIP3    H125801   0.144   0.693   5.878  0.6478  0.0534 -0.5115
 1462TIP3    H225802   0.221   0.615   5.983 -0.0947 -0.0579 -0.0359
 1463TIP3   OH225803   6.696   2.868   4.554 -0.6054  0.5007 -0.3765
 1463TIP3    H125804   6.619   2.817   4.527  1.0298 -1.1529 -2.2547
 1463TIP3    H225805   6.770   2.809   4.539  1.0676  2.0106  1.4057
 1464TIP3   OH225806   6.269   4.534  17.129  0.4269  0.5405 -0.3359
 1464TIP3    H125807   6.348   4.486  17.105 -1.6569 -3.7879  0.3283
 1464TIP3    H225808   6.221   4.544  17.047  0.2819  0.1812 -0.2993
 1465TIP3   OH225809   2.776   5.312   5.204 -0.4419  0.4846 -0.1876
 1465TIP3    H125810   2.791   5.294   5.297  1.3896  1.8085 -0.1676
 1465TIP3    H225811   2.864   5.323   5.168 -0.9209 -2.7335 -2.7327
 1466TIP3   OH225812   3.219   2.506  14.421 -0.2120 -0.2509 -0.0365
 1466TIP3    H125813   3.195   2.536  14.508  1.4374  0.6668  0.1278
 1466TIP3    H225814   3.307   2.539  14.407 -0.5020 -0.2392 -2.1340
 1467TIP3   OH225815   1.582   1.039  14.564  0.1294 -0.0071  0.3200
 1467TIP3    H125816   1.526   0.963  14.552 -1.6940  1.2768  0.3726
 1467TIP3    H225817   1.653   1.027  14.501 -0.6026 -1.2950 -0.2959
 1468TIP3   OH225818   5.690   0.403  14.838 -0.2245  0.1796 -0.6284
 1468TIP3    H125819   5.723   0.377  14.752  0.4694  2.0651 -0.9613
 1468TIP3    H225820   5.684   0.320  14.887 -0.0282 -0.8438 -2.2590
 1469TIP3   OH225821   1.453   0.765   5.050  0.2372  0.0111 -0.3354
 1469TIP3    H125822   1.432   0.714   5.128 -1.0871 -0.8256 -1.2149
 1469TIP3    H225823   1.543   0.795   5.065  0.1868 -0.5519  1.2728
 1470TIP3   OH225824   0.530   0.978   6.737  0.9526  0.1159 -0.1195
 1470TIP3    H125825   0.513   1.068   6.709 -2.1988 -0.8612 -1.8341
 1470TIP3    H225826   0.474   0.965   6.813 -0.5161 -1.0211 -1.3339
 1471TIP3   OH225827   4.979   5.421   4.402 -0.3073 -0.2852 -0.2782
 1471TIP3    H125828   5.017   5.474   4.472  1.2997  0.9860 -1.9989
 1471TIP3    H225829   5.006   5.332   4.421 -1.6691 -0.3179  1.7987
 1472TIP3   OH225830   1.820   0.032   5.927  0.0335  0.1484  0.2125
 1472TIP3    H125831   1.825   0.104   5.864 -2.3147  0.9757  0.8849
 1472TIP3    H225832   1.815   0.075   6.012  1.3823 -0.9150  0.8729
 1473TIP3   OH225833   6.744   5.344   2.214  0.1407 -0.0027  0.2617
 1473TIP3    H125834   6.813   5.397   2.253  0.0068  0.3827 -0.0219
 1473TIP3    H225835   6.673   5.345   2.279  0.9831 -1.7037  1.2646
 1474TIP3   OH225836   4.538   3.346   6.453  0.4456  0.7613 -0.1167
 1474TIP3    H125837   4.471   3.412   6.468  0.4775  0.4388  1.6109
 1474TIP3    H225838   4.621   3.394   6.456  0.4713  0.6710  1.1862
 1475TIP3   OH225839   1.363   2.330  12.450 -0.0402 -0.3245  0.9212
 1475TIP3    H125840   1.357   2.251  12.505  0.2924 -1.3222 -0.4014
 1475TIP3    H225841   1.273   2.356  12.435 -0.1422 -0.2340  1.6825
 1476TIP3   OH225842   5.973   2.866  15.066 -0.4036  0.1414 -0.1041
 1476TIP3    H125843   6.003   2.851  15.155  0.1491 -0.1090 -0.3285
 1476TIP3    H225844   5.896   2.810  15.057  0.1409 -0.6235 -0.1054
 1477TIP3   OH225845   0.603   0.635   1.854 -0.3567 -0.0687  0.0449
 1477TIP3    H125846   0.538   0.656   1.921  1.5417 -0.2655  2.0568
 1477TIP3    H225847   0.619   0.718   1.809  0.2027  0.6911  1.5899
 1478TIP3   OH225848   6.355   5.640  12.889 -0.0791 -0.6906  0.0380
 1478TIP3    H125849   6.346   5.586  12.810  2.1891 -1.4798  0.2359
 1478TIP3    H225850   6.423   5.596  12.940  0.7689  1.5375  0.9456
 1479TIP3   OH225851   6.578   4.938   6.372 -0.4227  0.1898  0.0696
 1479TIP3    H125852   6.606   4.933   6.463 -3.2986  0.4309  1.0862
 1479TIP3    H225853   6.539   5.025   6.364 -1.8497 -0.4860 -0.8167
 1480TIP3   OH225854   2.885   6.400   0.216  0.4567 -0.2088 -0.4655
 1480TIP3    H125855   2.825   6.346   0.163  0.2700 -1.0989  0.6171
 1480TIP3    H225856   2.966   6.348   0.220 -0.2670 -1.2776  1.9869
 1481TIP3   OH225857   4.242   0.636   1.304 -0.3758  0.2227 -0.1106
 1481TIP3    H125858   4.207   0.680   1.381  0.5573  0.4531  0.1862
 1481TIP3    H225859   4.268   0.549   1.336  2.1829  1.1032  0.4154
 1482TIP3   OH225860   3.529   5.339   6.507 -0.5868  0.1449 -0.3082
 1482TIP3    H125861   3.456   5.386   6.548 -0.0275  0.1411  0.7356
 1482TIP3    H225862   3.520   5.356   6.414 -2.2518 -0.3097 -0.2634
 1483TIP3   OH225863   2.244   5.253  13.551 -0.3015  0.0864  0.3612
 1483TIP3    H125864   2.320   5.279  13.603 -0.8667  0.7370  0.8779
 1483TIP3    H225865   2.281   5.224  13.467  0.6146 -0.9228  1.0875
 1484TIP3   OH225866   3.236   3.978  12.902 -0.4460  0.5346  0.2396
 1484TIP3    H125867   3.260   4.039  12.972 -0.5764 -0.0025  0.7600
 1484TIP3    H225868   3.308   3.916  12.899 -0.9858 -0.1270  0.6985
 1485TIP3   OH225869   3.910   1.628   2.049  0.2543  0.1471 -0.0226
 1485TIP3    H125870   3.832   1.653   2.098 -1.7972 -1.7363 -2.0793
 1485TIP3    H225871   3.898   1.535   2.029  2.0457  0.2563 -2.0935
 1486TIP3   OH225872   4.974   0.014   3.119  0.0836  0.0659 -0.5263
 1486TIP3    H125873   4.956   0.102   3.084  1.8445  1.1877  1.2047
 1486TIP3    H225874   5.016  -0.033   3.047 -1.6013  0.3239 -1.7354
 1487TIP3   OH225875   3.080   1.275  10.853  0.3560 -0.6180 -0.3710
 1487TIP3    H125876   3.018   1.284  10.781  1.3359 -0.1854 -1.1927
 1487TIP3    H225877   3.034   1.221  10.917 -1.5673  1.2147 -0.1021
 1488TIP3   OH225878   1.242   0.314   2.259 -0.5713  0.0428  0.0400
 1488TIP3    H125879   1.295   0.354   2.328  2.0528 -0.8841 -1.3018
 1488TIP3    H225880   1.246   0.377   2.187 -1.4345 -0.0021 -0.0581
 1489TIP3   OH225881   2.734   5.810   3.074  0.3624 -0.2583 -0.2108
 1489TIP3    H125882   2.651   5.784   3.114  0.8863 -2.1461 -0.2598
 1489TIP3    H225883   2.742   5.754   2.997  1.1573  0.7008 -0.8556
 1490TIP3   OH225884   5.488   0.994   1.835  0.7857 -0.2039  0.3386
 1490TIP3    H125885   5.570   1.043   1.846  1.2305 -0.8121 -0.1799
 1490TIP3    H225886   5.476   0.988   1.740  0.7641 -1.1247  0.3857
 1491TIP3   OH225887   0.621   2.910  14.174 -0.5470 -0.0080  0.2361
 1491TIP3    H125888   0.567   2.987  14.190 -0.4940  0.5230 -1.7962
 1491TIP3    H225889   0.559   2.840  14.153 -0.5271  0.2538 -0.7584
 1492TIP3   OH225890   2.969   3.187   5.236  0.3371  0.3409 -0.4496
 1492TIP3    H125891   3.051   3.139   5.227 -0.2300 -0.7125 -0.1391
 1492TIP3    H225892   2.901   3.124   5.213 -0.3688  1.4307 -1.5409
 1493TIP3   OH225893   0.365   3.935  15.673 -0.4020  0.0856  0.0886
 1493TIP3    H125894   0.331   3.927  15.762  0.8235 -2.1491  0.4363
 1493TIP3    H225895   0.303   3.885  15.620 -0.0822 -0.2063 -0.0062
 1494TIP3   OH225896   1.516   2.016   5.931 -0.2458  0.0494 -0.0218
 1494TIP3    H125897   1.508   2.059   6.015  1.2241 -0.3662  0.3681
 1494TIP3    H225898   1.551   1.929   5.952  3.2042  0.9855 -1.1935
 1495TIP3   OH225899   0.642   2.430   2.685 -0.0859 -0.1574  0.5906
 1495TIP3    H125900   0.717   2.453   2.740  1.2098  1.2054 -1.6032
 1495TIP3    H225901   0.638   2.499   2.619 -0.3162 -2.6227 -2.2194
 1496TIP3   OH225902   4.456   3.520  14.603  0.2405 -0.0122  0.2656
 1496TIP3    H125903   4.384   3.577  14.577 -0.3673 -0.8156  0.1442
 1496TIP3    H225904   4.474   3.467  14.525  0.9676  0.1789  0.2948
 1497TIP3   OH225905   6.178   2.298  14.752  0.3292  0.1214  0.4974
 1497TIP3    H125906   6.087   2.315  14.779 -0.0682  0.4800 -0.9989
 1497TIP3    H225907   6.211   2.238  14.819 -1.3663 -0.9096  0.4788
 1498TIP3   OH225908   2.737   5.455  12.457  0.3192 -0.6203  0.3357
 1498TIP3    H125909   2.785   5.382  12.419  2.0488 -0.2493  1.6890
 1498TIP3    H225910   2.804   5.519  12.479 -1.1015  1.1385 -0.2518
 1499TIP3   OH225911   6.765   2.623   0.089  0.5922 -0.3385  0.5996
 1499TIP3    H125912   6.706   2.686   0.130 -0.6253 -2.7172  2.8018
 1499TIP3    H225913   6.709   2.547   0.071  2.0558 -0.9686 -1.6688
 1500TIP3   OH225914   1.043   1.095  14.086  0.0764  0.0514 -0.6520
 1500TIP3    H125915   1.016   1.117  14.175 -0.6023 -2.4206 -0.1718
 1500TIP3    H225916   0.962   1.095  14.036  0.2199 -0.2327 -0.8811
 1501TIP3   OH225917   3.885   1.572   1.252 -0.0786  0.0717  0.1160
 1501TIP3    H125918   3.967   1.528   1.230  0.2129  0.6734 -0.0140
 1501TIP3    H225919   3.841   1.585   1.168  0.7719  1.8489 -0.1063
 1502TIP3   OH225920   1.014   2.022   1.377  0.3590  0.2039 -0.0535
 1502TIP3    H125921   1.034   2.029   1.471  0.3765 -1.6340  0.1177
 1502TIP3    H225922   1.017   2.112   1.345 -1.0046  1.0605  1.9873
 1503TIP3   OH225923   5.115   1.035  12.754  0.0472  0.0902  0.8003
 1503TIP3    H125924   5.135   0.981  12.830  0.1362  1.1015  1.5249
 1503TIP3    H225925   5.045   0.989  12.708  1.7548 -1.8748  0.0167
 1504TIP3   OH225926   3.479   4.524   5.440 -0.0942 -0.0446  0.0985
 1504TIP3    H125927   3.466   4.579   5.518 -0.0607  0.1529 -0.0357
 1504TIP3    H225928   3.573   4.510   5.436  0.2290  2.1798 -1.4259
 1505TIP3   OH225929   5.199   2.045  16.797 -0.1079  0.2036  0.1478
 1505TIP3    H125930   5.280   2.039  16.849  0.0978  1.3332 -0.0102
 1505TIP3    H225931   5.217   1.994  16.718 -1.0589 -3.1037  1.8857
 1506TIP3   OH225932   1.263   5.373   5.493  0.1464 -0.1135 -0.3017
 1506TIP3    H125933   1.327   5.416   5.436  0.7957 -0.8001 -0.1059
 1506TIP3    H225934   1.242   5.438   5.560 -0.2434  0.5229 -1.0225
 1507TIP3   OH225935   6.579   4.240   3.701  0.0502  0.0748 -0.0423
 1507TIP3    H125936   6.527   4.314   3.669 -1.3524 -0.4663  0.8744
 1507TIP3    H225937   6.656   4.281   3.741 -1.4579  1.2432  1.9297
 1508TIP3   OH225938   4.640   0.330   2.351  0.9338  0.3868  0.2446
 1508TIP3    H125939   4.586   0.269   2.402  0.5601 -0.2402 -0.8636
 1508TIP3    H225940   4.678   0.388   2.416 -3.0967  2.5613  0.9692
 1509TIP3   OH225941   2.914   0.214   1.522  0.3967  0.1034 -0.7674
 1509TIP3    H125942   2.956   0.226   1.437  0.2080  0.4470 -0.8110
 1509TIP3    H225943   2.986   0.188   1.580  0.4673 -0.4836 -1.1076
 1510TIP3   OH225944   4.972   1.828   3.378 -0.8094  0.5551  0.2741
 1510TIP3    H125945   4.927   1.775   3.443  0.3370 -0.3341  0.3744
 1510TIP3    H225946   5.007   1.766   3.315 -0.0058  1.2265  0.0292
 1511TIP3   OH225947   3.436   1.921  11.257  0.2326  0.2654  0.8003
 1511TIP3    H125948   3.470   1.984  11.193  0.1941  1.9364  2.3473
 1511TIP3    H225949   3.513   1.891  11.305  0.1171 -0.0788  0.7779
 1512TIP3   OH225950   5.703   4.935  15.725  0.1867 -0.1392 -0.2176
 1512TIP3    H125951   5.641   4.896  15.786 -0.7270  1.0302 -0.3520
 1512TIP3    H225952   5.788   4.898  15.749 -0.6183 -2.2349 -0.4071
 1513TIP3   OH225953   4.745   5.495   4.935 -0.0104  0.3554  0.4102
 1513TIP3    H125954   4.828   5.502   4.888 -1.3149  1.9013 -1.8631
 1513TIP3    H225955   4.725   5.401   4.933  1.6395 -0.0467  1.0105
 1514TIP3   OH225956   0.096   2.399   2.953 -0.7274  1.4243 -0.0473
 1514TIP3    H125957   0.159   2.372   2.886 -0.5685  1.2857  0.1578
 1514TIP3    H225958   0.121   2.349   3.031 -1.6095  0.7308 -0.1955
 1515TIP3   OH225959   3.464   4.986  14.212 -0.3211 -0.3682 -0.1484
 1515TIP3    H125960   3.476   5.080  14.208  3.7426 -0.5341  2.6161
 1515TIP3    H225961   3.385   4.974  14.264 -0.6852  1.4968 -0.2067
 1516TIP3   OH225962   5.431   0.536  15.175 -0.4241  0.4005  0.6292
 1516TIP3    H125963   5.519   0.551  15.141 -0.7467  0.0134 -0.4141
 1516TIP3    H225964   5.445   0.480  15.252  0.2523  0.5531  0.6276
 1517TIP3   OH225965   1.930   2.579  11.687 -0.0783 -0.3283 -0.0818
 1517TIP3    H125966   1.848   2.600  11.641  0.0740 -0.5376 -0.4480
 1517TIP3    H225967   1.995   2.636  11.648 -0.2948  0.7724  1.0949
 1518TIP3   OH225968   1.123   3.999  15.441 -0.3828 -0.2049  0.6619
 1518TIP3    H125969   1.050   4.061  15.431 -0.5038  0.0969  2.7738
 1518TIP3    H225970   1.119   3.973  15.533  2.4987  0.2375  1.0023
 1519TIP3   OH225971   4.489   2.547   6.179 -0.1960 -0.3965  0.7824
 1519TIP3    H125972   4.493   2.633   6.222 -3.2835 -0.0431  0.5650
 1519TIP3    H225973   4.441   2.562   6.098 -1.6638 -2.4408  1.1801
 1520TIP3   OH225974   2.035   6.347  16.611  0.0284 -0.0306 -0.0097
 1520TIP3    H125975   2.085   6.337  16.691  1.2182  0.6877 -0.6365
 1520TIP3    H225976   1.994   6.261  16.597  2.4620 -1.2092 -0.3605
 1521TIP3   OH225977   3.929   1.867   5.061  0.4042  0.2274  0.5912
 1521TIP3    H125978   3.937   1.797   5.126  0.6540 -0.8838 -0.5987
 1521TIP3    H225979   3.951   1.947   5.109  0.2257 -0.5073  1.9540
 1522TIP3   OH225980   4.665   5.560   1.931 -0.2173 -0.4951  0.7922
 1522TIP3    H125981   4.663   5.650   1.962  2.0036 -0.3306  0.5918
 1522TIP3    H225982   4.651   5.507   2.009 -1.5811  0.0047  0.9034
 1523TIP3   OH225983   6.202   0.132  16.348 -0.1313  0.6676  0.2066
 1523TIP3    H125984   6.175   0.041  16.335  0.1063  0.5439  0.5774
 1523TIP3    H225985   6.186   0.174  16.263  1.7350 -0.1946 -0.6301
 1524TIP3   OH225986   1.701   5.671  16.829  0.4054  0.4589  0.0182
 1524TIP3    H125987   1.623   5.649  16.779  0.4884  0.5926 -0.1699
 1524TIP3    H225988   1.738   5.587  16.856 -1.5503  0.3436  2.8544
 1525TIP3   OH225989   2.754   1.222   4.706  0.3561 -0.4234  0.4849
 1525TIP3    H125990   2.792   1.206   4.792  0.2708  1.1893  0.8426
 1525TIP3    H225991   2.821   1.190   4.644  0.8808 -0.5857  1.1264
 1526TIP3   OH225992   0.945   6.166   1.574  0.0991  0.0521 -0.1392
 1526TIP3    H125993   1.039   6.159   1.587 -0.1197 -0.3798  1.3300
 1526TIP3    H225994   0.929   6.113   1.495  1.1879  1.0119 -1.0525
 1527TIP3   OH225995   4.866   5.776   2.996  0.1026  0.4401 -0.5608
 1527TIP3    H125996   4.936   5.746   3.054  1.3951  1.0308 -1.7299
 1527TIP3    H225997   4.834   5.856   3.037  1.0897  0.9211 -0.6855
 1528TIP3   OH225998   4.127   3.155   2.367 -0.1334 -0.4504 -0.0440
 1528TIP3    H125999   4.150   3.182   2.455 -0.3504 -0.1917 -0.0628
 1528TIP3    H226000   4.210   3.130   2.326  0.4434  2.2868 -0.7409
 1529TIP3   OH226001   2.616   6.106  14.181 -0.3637  0.2874  0.6082
 1529TIP3    H126002   2.596   6.199  14.169  1.6971  0.6690 -0.3070
 1529TIP3    H226003   2.711   6.100  14.168 -0.6766 -2.2281 -1.3848
 1530TIP3   OH226004   0.989   2.275   0.726 -0.1070 -0.2670 -0.4694
 1530TIP3    H126005   0.980   2.332   0.650  2.7080  0.4276 -0.3759
 1530TIP3    H226006   0.976   2.186   0.691 -0.9133  0.1648 -1.3090
 1531TIP3   OH226007   3.864   1.925  14.519 -0.3110  0.1509  0.3252
 1531TIP3    H126008   3.800   1.929  14.448  0.7363 -1.6052 -0.7952
 1531TIP3    H226009   3.849   2.005  14.569 -0.1337  2.2583 -2.7006
 1532TIP3   OH226010   6.130   3.232   4.863 -0.4718 -0.1916 -0.6114
 1532TIP3    H126011   6.081   3.151   4.877 -2.5647  0.9996 -0.6627
 1532TIP3    H226012   6.069   3.290   4.818  1.3309  1.0706 -1.5756
 1533TIP3   OH226013   2.386   0.008   5.317  0.5669  0.4067  0.2968
 1533TIP3    H126014   2.422   0.065   5.385 -3.5028  1.4888  1.7976
 1533TIP3    H226015   2.379  -0.078   5.358  1.7656  0.0570 -0.1805
 1534TIP3   OH226016   6.316   1.502   3.051 -0.1134 -0.7224  0.3126
 1534TIP3    H126017   6.324   1.553   3.132 -0.0696  0.0416 -0.1579
 1534TIP3    H226018   6.239   1.539   3.006  2.2505  1.8526 -2.0126
 1535TIP3   OH226019   2.750   1.998  10.995 -0.2971  0.1504 -0.0859
 1535TIP3    H126020   2.741   2.021  11.087 -1.0913  2.6096 -0.7051
 1535TIP3    H226021   2.661   1.981  10.966  0.1826 -4.8923  0.4218
 1536TIP3   OH226022   1.934   6.604   4.216 -0.2345  0.3224  0.1829
 1536TIP3    H126023   1.933   6.514   4.182  0.0832  0.2925  0.2478
 1536TIP3    H226024   1.876   6.653   4.158  0.6436  0.3674 -0.6793
 1537TIP3   OH226025   1.786   2.029  10.400 -0.0587  0.1530  0.8563
 1537TIP3    H126026   1.694   2.053  10.412 -0.3344 -0.9866  1.0927
 1537TIP3    H226027   1.787   1.976  10.321  0.0676 -1.5111  1.9363
 1538TIP3   OH226028   4.772   3.410   0.151 -0.2084  0.2666 -0.3332
 1538TIP3    H126029   4.694   3.449   0.191  0.7314  1.2555  0.6013
 1538TIP3    H226030   4.840   3.477   0.160  1.3618 -1.4155  0.9375
 1539TIP3   OH226031   1.531   3.853  12.755  0.1816  0.5561 -0.0725
 1539TIP3    H126032   1.493   3.794  12.820  0.3862 -0.8961 -1.2285
 1539TIP3    H226033   1.540   3.800  12.676  0.8302  2.0085 -1.0222
 1540TIP3   OH226034   3.069   0.735  14.414  0.3819 -0.0165  0.6448
 1540TIP3    H126035   3.062   0.674  14.340 -0.5337 -1.9163  2.2207
 1540TIP3    H226036   2.997   0.711  14.472  0.8204  1.7173  1.9744
 1541TIP3   OH226037   0.964   0.259   1.327 -0.5619 -0.0171  0.4196
 1541TIP3    H126038   0.932   0.243   1.415  0.1072  1.0910  0.8860
 1541TIP3    H226039   0.933   0.348   1.306 -0.3381 -0.1005 -0.2870
 1542TIP3   OH226040   4.873   2.481  13.039  0.2197  0.0771 -0.0678
 1542TIP3    H126041   4.816   2.419  12.994  0.0665  0.7957 -0.8927
 1542TIP3    H226042   4.924   2.428  13.100  1.0160 -1.0599 -1.6531
 1543TIP3   OH226043   3.320   0.150  14.989  0.5921 -1.0974  0.3111
 1543TIP3    H126044   3.401   0.187  15.025 -0.0639 -0.7379  1.4965
 1543TIP3    H226045   3.256   0.221  14.997  0.5354 -0.8071 -2.1704
 1544TIP3   OH226046   4.348   4.249  15.999  0.4918  0.2480 -0.4202
 1544TIP3    H126047   4.355   4.342  16.023  1.6402  0.2668 -0.7933
 1544TIP3    H226048   4.257   4.239  15.970 -0.3058  0.7460  1.6950
 1545TIP3   OH226049   4.526   1.820   5.367 -0.0235 -0.4715 -0.6182
 1545TIP3    H126050   4.583   1.894   5.386 -0.3127 -0.0192 -1.4612
 1545TIP3    H226051   4.545   1.798   5.276  0.5106 -1.8484 -0.2073
 1546TIP3   OH226052   2.770   2.425   3.696 -0.3058  0.2595 -0.5308
 1546TIP3    H126053   2.770   2.484   3.621 -2.1405  0.0933 -0.6985
 1546TIP3    H226054   2.827   2.353   3.669  0.5484  1.0829 -1.0068
 1547TIP3   OH226055   6.606   2.060  16.898 -0.4428  0.2698  0.1236
 1547TIP3    H126056   6.575   2.086  16.984 -2.9101  1.2704 -0.9999
 1547TIP3    H226057   6.614   1.965  16.904  0.7151  0.4223  1.8051
 1548TIP3   OH226058   0.825   2.502   0.960 -0.0634 -0.0074  0.3306
 1548TIP3    H126059   0.810   2.552   1.041  0.9303  0.8447  0.0143
 1548TIP3    H226060   0.880   2.559   0.907 -1.1080 -0.3584 -1.1707
 1549TIP3   OH226061   6.152   3.815  15.337  0.1104  0.2183  0.1508
 1549TIP3    H126062   6.084   3.752  15.312  0.1546  0.1437  0.2154
 1549TIP3    H226063   6.229   3.788  15.287  0.2134  0.0368  0.4024
 1550TIP3   OH226064   3.083   2.533   4.126 -0.4881 -0.1775  0.1156
 1550TIP3    H126065   3.010   2.540   4.064  0.5280  0.0865 -1.1079
 1550TIP3    H226066   3.050   2.479   4.197 -2.1018  0.5436 -0.0577
 1551TIP3   OH226067   3.321   0.736  14.522 -1.0018 -0.5088  0.1789
 1551TIP3    H126068   3.322   0.669  14.590  0.6409 -2.5468 -1.7522
 1551TIP3    H226069   3.238   0.721  14.475 -0.0597 -2.1374 -1.0588
 1552TIP3   OH226070   0.727   3.871   0.099  0.2937 -0.4069  0.8688
 1552TIP3    H126071   0.724   3.788   0.050 -0.0436 -1.3089  2.3670
 1552TIP3    H226072   0.792   3.923   0.052 -0.3744 -1.0153 -0.8415
 1553TIP3   OH226073   2.304   5.534  13.876  0.0760  0.3680 -0.0517
 1553TIP3    H126074   2.258   5.476  13.936 -0.3505  0.1912 -0.5380
 1553TIP3    H226075   2.348   5.598  13.932 -0.7732  0.5443  0.4196
 1554TIP3   OH226076   0.265   0.317  15.741 -0.1542  0.5853 -0.5088
 1554TIP3    H126077   0.260   0.407  15.775 -0.8973  1.0132 -1.6889
 1554TIP3    H226078   0.353   0.311  15.704 -1.2104  2.0987 -3.6289
 1555TIP3   OH226079   1.484   2.842   0.567 -0.0854 -0.0786 -0.0366
 1555TIP3    H126080   1.537   2.833   0.487  1.1242  0.5547  0.6551
 1555TIP3    H226081   1.394   2.847   0.536  0.2439 -1.2234 -1.2647
 1556TIP3   OH226082   6.537   6.462   3.656 -0.3880 -0.2251  0.5495
 1556TIP3    H126083   6.605   6.526   3.675  0.3521 -0.3005 -1.5884
 1556TIP3    H226084   6.546   6.396   3.724  1.4248 -0.0223  0.5444
 1557TIP3   OH226085   3.326   1.124  11.583  0.3742  0.1260 -0.1787
 1557TIP3    H126086   3.279   1.189  11.636 -1.7851 -2.5592  1.4717
 1557TIP3    H226087   3.260   1.092  11.521  0.8071 -1.7548  0.2832
 1558TIP3   OH226088   1.955   5.677   5.419 -0.4366 -0.3871  0.4412
 1558TIP3    H126089   1.980   5.740   5.486 -0.6254  1.4429 -1.1216
 1558TIP3    H226090   1.919   5.602   5.468 -0.4412  0.8033  2.3495
 1559TIP3   OH226091   5.999   0.632   5.003 -0.1555 -0.6213 -0.2096
 1559TIP3    H126092   5.943   0.554   5.008 -0.7429 -0.1352  1.3881
 1559TIP3    H226093   5.942   0.699   4.966  0.0643 -0.6972 -0.6919
 1560TIP3   OH226094   2.504   5.605   5.406 -0.2093 -0.3540  0.0195
 1560TIP3    H126095   2.539   5.674   5.463  0.6559  0.2448 -1.1846
 1560TIP3    H226096   2.418   5.637   5.381  0.0089  0.0912 -0.1764
 1561TIP3   OH226097   5.003   2.745   1.672 -0.7428 -0.3729 -0.0122
 1561TIP3    H126098   4.997   2.700   1.588 -0.2878 -2.2424  0.9013
 1561TIP3    H226099   4.932   2.708   1.725 -1.4941  1.3131  0.2184
 1562TIP3   OH226100   1.697   6.455  16.488 -0.4079  0.4382 -0.5503
 1562TIP3    H126101   1.684   6.477  16.396  2.1817 -1.6315 -1.5564
 1562TIP3    H226102   1.693   6.359  16.491 -0.0523  0.4298  1.4211
 1563TIP3   OH226103   3.469   3.983   5.719 -0.1302 -0.6527 -0.5259
 1563TIP3    H126104   3.426   3.902   5.746  0.7517 -0.7900  0.5242
 1563TIP3    H226105   3.478   4.034   5.799 -0.9714  0.6545 -1.2207
 1564TIP3   OH226106   6.702   6.689   4.292 -0.1561 -0.7131  0.1408
 1564TIP3    H126107   6.725   6.710   4.382 -0.1172  0.3707 -0.1091
 1564TIP3    H226108   6.784   6.699   4.243 -0.3276 -0.6044 -0.1279
 1565TIP3   OH226109   3.983   0.023  17.184  0.2386  0.0978  0.2277
 1565TIP3    H126110   4.012   0.050  17.271 -2.3534  0.2656  1.1585
 1565TIP3    H226111   4.036   0.074  17.123 -0.0329  2.4061  1.8008
 1566TIP3   OH226112   1.729   2.420  13.152 -0.5782 -0.3209  0.2105
 1566TIP3    H126113   1.771   2.338  13.126 -3.0439 -1.8634  0.7390
 1566TIP3    H226114   1.726   2.472  13.071 -0.5644 -1.4883 -0.5652
 1567TIP3   OH226115   5.113   4.443   0.851 -0.0543 -0.5604 -0.1207
 1567TIP3    H126116   5.105   4.408   0.762  0.7454 -1.5619  0.1807
 1567TIP3    H226117   5.107   4.538   0.840 -0.1281 -0.6772 -1.2227
 1568TIP3   OH226118   3.281   2.249   3.761 -0.0370 -0.6232  0.2837
 1568TIP3    H126119   3.254   2.324   3.814  0.2517 -0.5566  0.3326
 1568TIP3    H226120   3.352   2.282   3.706  0.8374 -1.1396  1.0716
 1569TIP3   OH226121   2.157   0.256   1.852 -0.3120  0.5601  0.0632
 1569TIP3    H126122   2.131   0.320   1.786  0.3931  1.3075  0.4910
 1569TIP3    H226123   2.102   0.179   1.834 -1.6451  1.5011 -0.0622
 1570TIP3   OH226124   2.064   4.105   3.274  0.5025  1.4328  0.0555
 1570TIP3    H126125   2.147   4.148   3.297  1.1691 -0.1763  0.8070
 1570TIP3    H226126   2.054   4.037   3.340  0.1172 -0.3879 -1.7956
 1571TIP3   OH226127   3.549   4.247  12.984 -0.3894 -0.6131  0.2930
 1571TIP3    H126128   3.538   4.280  13.073  0.0607 -2.8935  1.2738
 1571TIP3    H226129   3.637   4.210  12.983  0.2153  0.7535 -1.6294
 1572TIP3   OH226130   4.293   2.731  12.967  0.4579 -0.3269  0.0173
 1572TIP3    H126131   4.235   2.759  12.896  1.1352  1.1126  0.0009
 1572TIP3    H226132   4.292   2.804  13.029 -0.2167 -1.6113  1.5709
 1573TIP3   OH226133   6.606   4.025   4.161  0.0173  0.1844  0.1460
 1573TIP3    H126134   6.577   4.076   4.085  0.5002 -2.9150 -2.3084
 1573TIP3    H226135   6.541   4.045   4.229 -0.4285  3.1070 -0.9752
 1574TIP3   OH226136   2.555   4.147  16.541  0.0516 -0.1699  0.0938
 1574TIP3    H126137   2.571   4.073  16.482  1.4679  0.0463  0.1659
 1574TIP3    H226138   2.638   4.196  16.540 -0.6786  1.1070  0.4756
 1575TIP3   OH226139   4.385   5.757  16.220 -0.2092 -0.0205 -0.3678
 1575TIP3    H126140   4.373   5.673  16.264  1.0035 -1.3972 -2.4944
 1575TIP3    H226141   4.478   5.760  16.197 -0.2599  1.8225 -0.5373
 1576TIP3   OH226142   6.772   5.714  13.399  0.3341  0.1091 -0.0099
 1576TIP3    H126143   6.814   5.791  13.436 -0.6876  0.8402 -0.3088
 1576TIP3    H226144   6.805   5.640  13.450  2.3147  0.5673 -0.5384
 1577TIP3   OH226145   0.342   2.597   2.257 -0.3571  0.1523 -0.2339
 1577TIP3    H126146   0.274   2.609   2.191  0.2240 -0.1503 -0.8921
 1577TIP3    H226147   0.378   2.685   2.270 -1.8516  0.6074  1.2192
 1578TIP3   OH226148   1.978   6.762  16.352  0.1449 -0.0059 -0.0129
 1578TIP3    H126149   2.048   6.827  16.344  0.1959 -0.0965 -0.3403
 1578TIP3    H226150   2.023   6.679  16.361  0.1170  0.1985  2.6547
 1579TIP3   OH226151   3.914   2.565   3.720  0.5164 -0.3285 -0.2002
 1579TIP3    H126152   3.949   2.614   3.645  0.6786 -0.9301 -0.5302
 1579TIP3    H226153   3.972   2.587   3.793  0.6508 -0.1177 -0.3702
 1580TIP3   OH226154   1.580   3.153  12.803 -1.1562  0.1467  0.2125
 1580TIP3    H126155   1.565   3.247  12.790 -0.3950  0.5332  1.9020
 1580TIP3    H226156   1.643   3.130  12.734 -0.9340  0.9995  0.1154
 1581TIP3   OH226157   4.546   4.857   3.796  0.1551  0.5039 -0.2387
 1581TIP3    H126158   4.512   4.814   3.718  0.8108 -1.3731  0.4516
 1581TIP3    H226159   4.615   4.798   3.828  0.0615  1.3272  1.6189
 1582TIP3   OH226160   1.390   3.953  11.143  0.3409  0.1178  0.0312
 1582TIP3    H126161   1.442   3.964  11.063 -2.1928  0.5963 -1.6611
 1582TIP3    H226162   1.386   4.040  11.181 -1.8539  0.8261 -1.6459
 1583TIP3   OH226163   6.591   1.187  15.143  0.3636 -0.5288  0.5354
 1583TIP3    H126164   6.605   1.151  15.055 -0.5176  1.4974 -0.4832
 1583TIP3    H226165   6.556   1.113  15.193 -0.9954 -1.2443 -1.3534
 1584TIP3   OH226166   6.154   6.271   5.060  0.1775 -0.1783 -0.1326
 1584TIP3    H126167   6.080   6.325   5.086  1.8288  1.4475  1.5343
 1584TIP3    H226168   6.117   6.206   5.000 -2.4657  0.8314  0.2767
 1585TIP3   OH226169   2.269   1.186   4.470 -0.5020 -0.4245 -0.3896
 1585TIP3    H126170   2.249   1.228   4.386 -0.1501 -0.5916 -0.5605
 1585TIP3    H226171   2.238   1.096   4.461  0.5852 -0.7776 -0.7744
 1586TIP3   OH226172   3.522   0.543  10.638 -0.6265  0.2803  0.4761
 1586TIP3    H126173   3.617   0.546  10.652 -0.1567 -0.4351 -2.0748
 1586TIP3    H226174   3.505   0.613  10.576 -0.9683 -2.2334 -2.5230
 1587TIP3   OH226175   3.483   3.815  14.242  0.4888  0.1919 -0.6219
 1587TIP3    H126176   3.514   3.784  14.327  2.4117  1.4154 -0.8148
 1587TIP3    H226177   3.558   3.862  14.205 -0.8505  1.1345 -2.2681
 1588TIP3   OH226178   1.403   6.739  13.113 -0.2643  0.0780  0.0594
 1588TIP3    H126179   1.330   6.688  13.079  0.9000 -1.3523 -0.4081
 1588TIP3    H226180   1.414   6.709  13.203 -0.7400  0.8981  0.4113
 1589TIP3   OH226181   0.064   5.849   2.178 -0.3320 -0.2876 -0.1354
 1589TIP3    H126182   0.057   5.793   2.101 -2.6831  0.0335 -0.2229
 1589TIP3    H226183   0.032   5.934   2.149  1.4985  0.6728  0.4777
 1590TIP3   OH226184   3.200   2.505   2.253  0.0660  0.1510 -0.0340
 1590TIP3    H126185   3.279   2.497   2.200  1.1074  2.2734  1.0421
 1590TIP3    H226186   3.180   2.599   2.251 -2.4357 -0.3179 -0.2321
 1591TIP3   OH226187   5.275   3.836   3.836  0.1419 -0.9225 -0.4319
 1591TIP3    H126188   5.311   3.911   3.788 -0.4873 -1.3242 -1.5624
 1591TIP3    H226189   5.346   3.772   3.838  0.4431 -0.5883 -0.0782
 1592TIP3   OH226190   6.724   5.611   4.009  0.0640  0.4835  0.1548
 1592TIP3    H126191   6.725   5.636   3.917 -0.0808  1.1477  0.3316
 1592TIP3    H226192   6.798   5.551   4.019 -2.7135 -3.7184 -1.5113
 1593TIP3   OH226193   3.712   0.795  15.274 -0.4253  0.1267  0.8922
 1593TIP3    H126194   3.708   0.740  15.196 -0.9807  0.8685  0.3798
 1593TIP3    H226195   3.804   0.794  15.300  0.2911  1.8909 -1.2698
 1594TIP3   OH226196   5.455   4.568   3.499 -0.2888  0.3158  0.2145
 1594TIP3    H126197   5.476   4.594   3.589 -0.4853 -1.2594  0.7308
 1594TIP3    H226198   5.468   4.473   3.497 -0.0590  0.3461 -1.4905
 1595TIP3   OH226199   1.255   1.465  13.657 -0.5818  0.3254  0.2149
 1595TIP3    H126200   1.256   1.418  13.740 -0.7957 -0.7316 -0.3728
 1595TIP3    H226201   1.294   1.550  13.678 -0.4541  0.0053  1.3506
 1596TIP3   OH226202   1.994   0.428   0.882 -0.3188  0.2686 -0.0068
 1596TIP3    H126203   1.987   0.382   0.966  1.7412  0.4401  0.3052
 1596TIP3    H226204   1.925   0.389   0.828  0.7798 -2.6174  0.5097
 1597TIP3   OH226205   1.428   5.714   3.657  0.1917  0.0802  0.6218
 1597TIP3    H126206   1.504   5.737   3.603 -0.3018  2.2300  0.7878
 1597TIP3    H226207   1.450   5.746   3.745  0.0125 -1.3258  1.2086
 1598TIP3   OH226208   3.427   4.114  13.790  0.0231 -0.6017  0.7158
 1598TIP3    H126209   3.512   4.105  13.833  1.6272  2.2355 -1.4685
 1598TIP3    H226210   3.388   4.192  13.830  0.2801  0.3994 -0.8840
 1599TIP3   OH226211   6.724   6.681  15.044 -0.2021 -0.5602  0.1755
 1599TIP3    H126212   6.772   6.715  14.968 -0.8526 -1.6810 -0.7582
 1599TIP3    H226213   6.672   6.756  15.074 -0.3946 -0.2735 -0.8469
 1600TIP3   OH226214   4.453   6.299  11.506  0.1141  0.2084  0.4704
 1600TIP3    H126215   4.543   6.325  11.523  0.5515  1.9531 -3.4555
 1600TIP3    H226216   4.458   6.206  11.485  0.5702 -0.2438  2.4003
 1601TIP3   OH226217   3.945   0.649   3.611 -0.2121  0.2376 -0.7662
 1601TIP3    H126218   3.906   0.644   3.698  0.3619  1.0998 -0.4467
 1601TIP3    H226219   3.890   0.712   3.564  0.2556  0.7670 -0.6058
 1602TIP3   OH226220   5.490   5.474  12.037  0.3758  0.2164 -0.3770
 1602TIP3    H126221   5.427   5.470  11.965  0.3262  0.3306 -0.3410
 1602TIP3    H226222   5.542   5.552  12.018 -0.2466  0.7915  0.2107
 1603TIP3   OH226223   5.971   2.880  16.597  0.6448  0.4308 -0.3627
 1603TIP3    H126224   6.003   2.909  16.511  1.8683 -2.3971 -0.9831
 1603TIP3    H226225   5.937   2.792  16.581  1.1696 -0.2850  2.1033
 1604TIP3   OH226226   5.256   3.414   1.801  0.0534  0.0731 -0.2128
 1604TIP3    H126227   5.332   3.453   1.757  0.3235  0.6185  0.7058
 1604TIP3    H226228   5.203   3.378   1.730  1.3225 -0.6031 -0.8476
 1605TIP3   OH226229   0.548   6.397   6.238  0.0217 -0.0870 -0.1061
 1605TIP3    H126230   0.596   6.477   6.218  0.7029 -0.0938  1.3531
 1605TIP3    H226231   0.579   6.372   6.325 -2.0650 -0.5276  0.5563
 1606TIP3   OH226232   6.097   2.770   3.048 -0.3146 -0.0199 -0.0910
 1606TIP3    H126233   6.134   2.768   3.137 -0.5774 -1.2389  0.0126
 1606TIP3    H226234   6.003   2.778   3.061 -0.4112 -0.8446 -0.2270
 1607TIP3   OH226235   0.252   2.622   2.717  0.8625  0.3218  0.5349
 1607TIP3    H126236   0.224   2.613   2.808 -0.8033  0.1407  0.0424
 1607TIP3    H226237   0.343   2.651   2.723  1.1148 -0.6522  2.2450
 1608TIP3   OH226238   0.817   1.125  13.925  0.0117  0.0436  0.4344
 1608TIP3    H126239   0.724   1.146  13.922  0.2266  1.1873  0.9611
 1608TIP3    H226240   0.860   1.205  13.895  0.9454  0.9000  3.6582
 1609TIP3   OH226241   6.066   1.357  16.460 -0.3279 -0.7775 -0.2431
 1609TIP3    H126242   6.058   1.386  16.370  1.8361  0.3679 -0.1275
 1609TIP3    H226243   6.159   1.336  16.471 -1.0480 -4.0722  0.8288
 1610TIP3   OH226244   3.113   4.556   2.354  0.3605 -0.2531  0.2455
 1610TIP3    H126245   3.116   4.559   2.258 -1.3024  0.3181  0.1685
 1610TIP3    H226246   3.204   4.569   2.382  0.5365  2.5419 -1.2322
 1611TIP3   OH226247   6.719   6.324  12.747  0.0592 -0.4594 -0.1827
 1611TIP3    H126248   6.727   6.343  12.840 -0.3860 -3.0312  0.4428
 1611TIP3    H226249   6.809   6.315  12.716  0.2929  2.0758 -0.4729
 1612TIP3   OH226250   6.672   5.693  15.934 -0.2942 -0.7489 -0.5846
 1612TIP3    H126251   6.637   5.610  15.967  1.0149 -1.1744 -0.2079
 1612TIP3    H226252   6.764   5.676  15.918  1.1204  1.6299  3.3999
 1613TIP3   OH226253   1.282   5.814   0.174  0.0736  0.0245  0.1815
 1613TIP3    H126254   1.371   5.794   0.202 -0.4846 -0.8945  1.3485
 1613TIP3    H226255   1.250   5.733   0.135 -0.9398 -0.2799  1.6003
 1614TIP3   OH226256   5.670   1.961  10.715 -0.0882 -0.2777  0.1053
 1614TIP3    H126257   5.582   1.988  10.741  0.8940  1.2366  2.1091
 1614TIP3    H226258   5.666   1.865  10.714 -1.3073 -0.3162  2.0654
 1615TIP3   OH226259   5.681   3.129  15.303 -0.4052 -0.0102 -0.1476
 1615TIP3    H126260   5.604   3.074  15.317 -1.2957  0.8369 -1.5102
 1615TIP3    H226261   5.662   3.210  15.350 -0.2804  0.1521 -0.3767
 1616TIP3   OH226262   2.665   2.490  13.591  0.1767  0.1992  0.6426
 1616TIP3    H126263   2.667   2.394  13.594  0.5615  0.2301  2.7275
 1616TIP3    H226264   2.624   2.516  13.673  0.1084  1.8431  0.1310
 1617TIP3   OH226265   1.402   2.472  12.108  0.4312  0.2873  0.4305
 1617TIP3    H126266   1.426   2.509  12.193  1.6693  0.5361 -0.0022
 1617TIP3    H226267   1.340   2.535  12.071 -0.4497 -0.0357  1.3097
 1618TIP3   OH226268   1.295   1.605  13.973 -0.0688 -0.4688 -0.7512
 1618TIP3    H126269   1.263   1.520  14.006 -0.6604  0.0776  0.1409
 1618TIP3    H226270   1.329   1.649  14.050 -1.4133  0.8205 -0.8405
 1619TIP3   OH226271   5.206   3.094  14.314 -0.3828  0.2493  0.1848
 1619TIP3    H126272   5.224   3.187  14.306 -0.4133  0.3393  1.0284
 1619TIP3    H226273   5.269   3.052  14.255 -1.0087  0.8439 -0.9331
 1620TIP3   OH226274   4.525   0.763  15.387 -0.8336  0.4353 -0.5835
 1620TIP3    H126275   4.593   0.747  15.322 -1.6639 -1.3143 -1.0661
 1620TIP3    H226276   4.543   0.700  15.457 -1.5281  0.4601 -0.3752
 1621TIP3   OH226277   0.396   3.026   1.502  0.2274  0.5849  0.2556
 1621TIP3    H126278   0.371   3.115   1.477 -0.3156  0.7586  1.3587
 1621TIP3    H226279   0.474   3.036   1.555  1.4238  0.2090 -1.3589
 1622TIP3   OH226280   2.900   4.645   1.015 -0.0637 -0.1856 -0.1656
 1622TIP3    H126281   2.877   4.660   1.107 -0.1614 -2.4779  0.2344
 1622TIP3    H226282   2.987   4.605   1.019  0.5191  0.9233 -1.1814
 1623TIP3   OH226283   6.499   1.960   1.566  0.5279  0.4832 -0.1759
 1623TIP3    H126284   6.566   2.028   1.576  2.3268 -1.0256 -1.4440
 1623TIP3    H226285   6.542   1.890   1.519 -0.8480 -2.1923  2.2354
 1624TIP3   OH226286   0.545   1.585   0.574 -0.6245 -0.4304  0.4311
 1624TIP3    H126287   0.559   1.565   0.666  1.1597  1.1679  0.5806
 1624TIP3    H226288   0.632   1.607   0.541 -1.5949  1.6896 -0.9489
 1625TIP3   OH226289   5.782   3.779   4.942  1.2812 -0.5226  0.0722
 1625TIP3    H126290   5.849   3.844   4.959 -0.4055  1.4385 -0.3232
 1625TIP3    H226291   5.728   3.779   5.021  1.2943 -1.5061  0.0933
 1626TIP3   OH226292   4.939   2.426  12.698 -0.4435  0.1313 -0.5123
 1626TIP3    H126293   4.844   2.437  12.708 -0.1118  2.4879  1.0169
 1626TIP3    H226294   4.954   2.440  12.604 -1.4390  2.2076 -0.4393
 1627TIP3   OH226295   3.430   2.603  15.598 -0.4146  0.0409  0.2642
 1627TIP3    H126296   3.351   2.608  15.546  0.0160 -1.7498 -0.6220
 1627TIP3    H226297   3.418   2.669  15.667 -1.6025  1.4643 -1.2394
 1628TIP3   OH226298   5.244   0.902  10.753  0.0725 -0.3846 -0.4254
 1628TIP3    H126299   5.309   0.972  10.744  1.4465 -1.5363  0.1588
 1628TIP3    H226300   5.282   0.828  10.706 -0.8189 -1.0944 -0.0583
 1629TIP3   OH226301   5.561   1.386   5.027  0.0867 -0.3328  0.4001
 1629TIP3    H126302   5.647   1.351   5.006 -0.2664 -0.6537 -0.5909
 1629TIP3    H226303   5.523   1.408   4.942  0.4607  2.9299  0.9533
 1630TIP3   OH226304   0.314   3.720  16.190  0.5142  0.5383 -0.1810
 1630TIP3    H126305   0.363   3.650  16.233  0.1716  1.0977  1.1792
 1630TIP3    H226306   0.235   3.730  16.244 -0.2599  0.8248 -1.3336
 1631TIP3   OH226307   1.265   1.324   3.442 -0.3718 -0.2684  0.0714
 1631TIP3    H126308   1.176   1.288   3.435 -1.1668  1.1885  2.0197
 1631TIP3    H226309   1.278   1.370   3.359 -1.9357  0.4966  0.2009
 1632TIP3   OH226310   1.938   0.023   1.742 -0.4889  0.5999 -0.0166
 1632TIP3    H126311   1.982   0.029   1.657  1.9247 -1.5955  0.9544
 1632TIP3    H226312   1.904  -0.066   1.746 -0.9604  0.8122  1.1759
 1633TIP3   OH226313   3.739   0.679  15.037 -0.2319  0.2156  0.4277
 1633TIP3    H126314   3.817   0.714  14.994  1.3890  0.3551  3.2656
 1633TIP3    H226315   3.691   0.635  14.966  1.0205  2.3646 -1.9390
 1634TIP3   OH226316   3.684   4.292  11.707  0.1229 -0.2354  0.2998
 1634TIP3    H126317   3.701   4.219  11.648 -1.6068 -0.5011  0.0691
 1634TIP3    H226318   3.748   4.282  11.777  0.6736 -1.2817 -0.3298
 1635TIP3   OH226319   1.460   6.128  17.199 -0.2043 -0.2120  0.0374
 1635TIP3    H126320   1.488   6.218  17.217 -0.0599 -0.2141 -0.1695
 1635TIP3    H226321   1.398   6.137  17.126 -0.0864 -0.2923 -0.0737
 1636TIP3   OH226322   3.711   5.936  13.125  0.7073 -0.1283 -0.4866
 1636TIP3    H126323   3.690   6.001  13.192  2.6000 -1.0980  1.1145
 1636TIP3    H226324   3.768   5.982  13.064  0.6467  0.1817 -0.3131
 1637TIP3   OH226325   3.274   0.771   6.320  0.5486 -0.1135 -0.1664
 1637TIP3    H126326   3.320   0.853   6.339  0.1962  0.1293 -0.3590
 1637TIP3    H226327   3.273   0.725   6.404 -0.7766  0.8496  0.3938
 1638TIP3   OH226328   4.191   6.523   2.334  0.0656 -0.1267  0.2876
 1638TIP3    H126329   4.256   6.556   2.272  1.2262 -2.1262  0.3810
 1638TIP3    H226330   4.182   6.594   2.398  2.0197  0.2859  0.1735
 1639TIP3   OH226331   2.116   0.575  11.523  0.0463 -0.5054 -0.4055
 1639TIP3    H126332   2.200   0.543  11.556  0.3795 -2.0432 -2.4884
 1639TIP3    H226333   2.138   0.655  11.475 -0.3933  1.5457  2.6097
 1640TIP3   OH226334   0.811   5.030  16.569  0.0245 -0.1550 -0.1563
 1640TIP3    H126335   0.740   5.063  16.514 -0.5106  1.0498  1.2176
 1640TIP3    H226336   0.798   5.071  16.654  2.7939  0.6822 -0.0411
 1641TIP3   OH226337   1.348   0.795   0.019 -0.5578 -0.8777  0.4031
 1641TIP3    H126338   1.342   0.781   0.113  1.8459 -1.0206  0.5996
 1641TIP3    H226339   1.357   0.706  -0.018 -1.0598 -0.7970  0.0769
 1642TIP3   OH226340   0.056   2.860  17.084 -0.0021 -0.0182 -0.0677
 1642TIP3    H126341   0.049   2.856  17.180  0.3932  1.0755  0.0211
 1642TIP3    H226342   0.144   2.825  17.066  0.0742  0.1345  0.0024
 1643TIP3   OH226343   5.825   3.863   6.472 -0.0136 -0.4294  0.1306
 1643TIP3    H126344   5.747   3.823   6.434  1.1828 -1.9735 -0.7821
 1643TIP3    H226345   5.798   3.953   6.492 -1.9578 -0.8737 -0.3325
 1644TIP3   OH226346   5.841   6.234   2.571 -0.0379  0.3426  0.4718
 1644TIP3    H126347   5.916   6.181   2.545  0.1466  1.1106 -0.6261
 1644TIP3    H226348   5.867   6.273   2.655  1.8885  2.6091 -1.0652
 1645TIP3   OH226349   5.785   5.746   0.975  0.2803 -0.1506  0.4267
 1645TIP3    H126350   5.761   5.683   0.907 -0.3045 -1.2443  1.6114
 1645TIP3    H226351   5.772   5.831   0.934 -2.6489 -0.7123 -0.0447
 1646TIP3   OH226352   1.702   0.970   4.222 -0.5112  0.7574 -0.1975
 1646TIP3    H126353   1.750   0.891   4.245 -1.8532 -0.2127 -0.6088
 1646TIP3    H226354   1.761   1.017   4.162 -0.1530 -0.4954 -0.8539
 1647TIP3   OH226355   3.162   5.904   5.614  0.5116 -0.3368 -0.2750
 1647TIP3    H126356   3.093   5.862   5.665  0.5890  0.5627  0.6154
 1647TIP3    H226357   3.117   5.942   5.539  0.0115  0.2898  0.3251
 1648TIP3   OH226358   3.578   4.821   1.583 -0.2133 -0.2557  0.0537
 1648TIP3    H126359   3.568   4.749   1.645 -0.4236 -1.1122 -0.9453
 1648TIP3    H226360   3.613   4.780   1.504  2.0878  1.1314  0.2513
 1649TIP3   OH226361   1.068   0.096  17.051  0.7630  0.2291  0.1700
 1649TIP3    H126362   1.043   0.050  17.131  1.7643 -1.2247 -0.3188
 1649TIP3    H226363   1.006   0.170  17.046 -1.6965 -1.6924  0.3707
 1650TIP3   OH226364   4.592   4.184  11.433 -0.5441  0.0728 -0.0960
 1650TIP3    H126365   4.498   4.183  11.416 -0.5095 -1.1423 -0.2759
 1650TIP3    H226366   4.632   4.153  11.352 -0.0317 -0.2107  0.2589
 1651TIP3   OH226367   1.205   1.540  15.389  0.1372 -0.3054  0.5925
 1651TIP3    H126368   1.215   1.472  15.457  2.5395  2.2872  3.1110
 1651TIP3    H226369   1.111   1.545  15.374 -0.3058 -2.4685  2.1091
 1652TIP3   OH226370   0.008   3.207   5.775  0.0457 -0.1102 -0.0759
 1652TIP3    H126371  -0.018   3.143   5.708 -0.1931 -1.0248  0.8679
 1652TIP3    H226372  -0.066   3.267   5.779 -0.8665 -1.2459  0.8031
 1653TIP3   OH226373   6.221   2.461   0.570 -0.0697 -0.0207  0.3208
 1653TIP3    H126374   6.266   2.496   0.493 -1.6735  0.3757 -0.4812
 1653TIP3    H226375   6.152   2.406   0.535  0.3202 -1.3544  1.5408
 1654TIP3   OH226376   6.749   0.647  15.642  0.1638 -0.4369  0.1495
 1654TIP3    H126377   6.827   0.687  15.679  0.2131 -0.0524 -0.3566
 1654TIP3    H226378   6.692   0.631  15.717 -0.3659  1.6843  0.2704
 1655TIP3   OH226379   3.813   0.400  12.874 -0.2630  0.2853 -0.7040
 1655TIP3    H126380   3.873   0.325  12.868 -0.2136  0.2308  0.3450
 1655TIP3    H226381   3.813   0.436  12.785 -0.8911 -1.3974 -1.4331
 1656TIP3   OH226382   0.777   4.503   2.430  0.1935  0.1106 -0.1173
 1656TIP3    H126383   0.831   4.581   2.418  1.0022 -0.3173  0.6622
 1656TIP3    H226384   0.688   4.537   2.443 -0.1527  0.7646 -3.3200
 1657TIP3   OH226385   5.513   2.432  12.903  0.5600  0.0323 -0.0067
 1657TIP3    H126386   5.473   2.501  12.956 -1.1690 -1.1118  0.2658
 1657TIP3    H226387   5.535   2.474  12.821  1.3524  1.3534  0.8459
 1658TIP3   OH226388   2.432   4.256   6.602  0.1440  0.2452  0.2526
 1658TIP3    H126389   2.514   4.253   6.651  1.1698  0.0280 -1.3891
 1658TIP3    H226390   2.403   4.165   6.599  0.4161  0.1654 -0.0578
 1659TIP3   OH226391   1.183   6.596  11.387  0.7254 -0.1481  0.0756
 1659TIP3    H126392   1.251   6.544  11.344  0.8559  0.9333 -1.1152
 1659TIP3    H226393   1.110   6.596  11.324 -0.2524 -0.9715  1.1634
 1660TIP3   OH226394   0.306   5.901   2.540  0.4691 -0.0215  0.2901
 1660TIP3    H126395   0.297   5.827   2.601 -0.1029  0.2587  0.5501
 1660TIP3    H226396   0.341   5.972   2.594 -1.6846  0.7668  0.7348
 1661TIP3   OH226397   4.706   3.031  12.456 -0.3383  0.5518 -0.1071
 1661TIP3    H126398   4.672   3.037  12.545  1.4234 -1.3689  0.7946
 1661TIP3    H226399   4.633   2.997  12.404 -0.6847 -0.7310  1.1589
 1662TIP3   OH226400   0.286   2.119  11.274 -0.0054  0.4003  0.2222
 1662TIP3    H126401   0.313   2.208  11.248 -1.0591  0.7693  0.3477
 1662TIP3    H226402   0.251   2.081  11.193  0.7539 -0.0360  0.0875
 1663TIP3   OH226403   5.276   1.223   0.127  0.0805 -0.1350  0.1622
 1663TIP3    H126404   5.349   1.166   0.101 -0.2826 -0.8683  0.7096
 1663TIP3    H226405   5.249   1.188   0.212 -0.5794  0.4545  0.1946
 1664TIP3   OH226406   5.204   0.185  12.234  0.4043 -0.2510 -0.3801
 1664TIP3    H126407   5.285   0.139  12.254  0.6198 -0.5281 -1.7738
 1664TIP3    H226408   5.150   0.119  12.190 -0.6909 -0.1421  0.7322
 1665TIP3   OH226409   3.505   1.125  13.042 -0.1604 -0.5421  0.1122
 1665TIP3    H126410   3.463   1.130  13.128 -1.3867 -0.8126 -0.4515
 1665TIP3    H226411   3.549   1.040  13.041  0.3453 -0.2963  0.6720
 1666TIP3   OH226412   5.437   4.892   5.789 -0.1113 -0.3930  0.2703
 1666TIP3    H126413   5.431   4.862   5.880 -2.9840 -0.1995  0.2592
 1666TIP3    H226414   5.501   4.963   5.791  0.0781 -0.5598  2.0840
 1667TIP3   OH226415   5.830   1.955   0.282  0.2307  0.3565 -0.4597
 1667TIP3    H126416   5.747   1.952   0.234 -0.5206  0.5405  0.7903
 1667TIP3    H226417   5.885   2.013   0.230  0.3747 -1.4938 -2.4978
 1668TIP3   OH226418   2.199   6.627   6.303 -0.0719 -0.1221 -0.1842
 1668TIP3    H126419   2.244   6.709   6.324 -1.4816  0.9667 -1.1226
 1668TIP3    H226420   2.166   6.595   6.387 -0.6961  1.0540  0.0450
 1669TIP3   OH226421   2.719   5.706  16.503  0.4881 -0.8501  0.4218
 1669TIP3    H126422   2.642   5.715  16.559 -1.6293  0.5842 -2.4178
 1669TIP3    H226423   2.714   5.615  16.471 -2.4854  0.1818 -2.6697
 1670TIP3   OH226424   1.801   3.814  12.474 -0.1002  0.1595 -0.1929
 1670TIP3    H126425   1.873   3.875  12.487 -0.7820  0.3717  4.4380
 1670TIP3    H226426   1.730   3.867  12.439  0.9718  0.6064 -1.8254
 1671TIP3   OH226427   4.465   2.973   5.797 -0.1985 -0.3533 -0.2078
 1671TIP3    H126428   4.538   2.937   5.848  0.0995 -1.9601 -1.6745
 1671TIP3    H226429   4.407   3.012   5.863  2.2676  1.6634  0.9514
 1672TIP3   OH226430   5.377   3.589  11.614  0.5453  0.8042 -0.0651
 1672TIP3    H126431   5.351   3.513  11.666 -0.9236  0.1328 -1.6710
 1672TIP3    H226432   5.351   3.664  11.666 -0.3426  0.1614  0.4393
 1673TIP3   OH226433   5.529   5.689   0.033  0.2231  0.0809  0.1361
 1673TIP3    H126434   5.490   5.645  -0.043  0.4043  0.1588 -0.0019
 1673TIP3    H226435   5.597   5.629   0.063  0.8845  0.5461 -0.4306
 1674TIP3   OH226436   2.588   0.298   4.617  0.7689 -0.2409  0.0663
 1674TIP3    H126437   2.644   0.330   4.545 -0.7730  0.6653 -0.7992
 1674TIP3    H226438   2.590   0.369   4.681 -2.8429  2.0383 -1.9585
 1675TIP3   OH226439   4.842   3.449   1.805  0.5225  0.6583 -0.1497
 1675TIP3    H126440   4.914   3.402   1.764  0.3149 -1.0125  1.3007
 1675TIP3    H226441   4.883   3.499   1.876  0.2044 -0.9606  1.2259
 1676TIP3   OH226442   0.813   5.155  13.577  0.5383 -0.2771  0.2133
 1676TIP3    H126443   0.762   5.134  13.656 -0.8271 -0.4952 -0.6837
 1676TIP3    H226444   0.825   5.249  13.581 -0.1478 -0.1872  0.3379
 1677TIP3   OH226445   3.509   1.089   3.197 -0.0423  0.2106  0.0732
 1677TIP3    H126446   3.581   1.147   3.221  0.3931 -0.3904  0.2419
 1677TIP3    H226447   3.543   1.038   3.124  0.5153 -1.5783  1.4880
 1678TIP3   OH226448   0.868   6.265  12.907  0.6869  0.2061  0.8667
 1678TIP3    H126449   0.794   6.224  12.952 -0.0059  1.5964  1.0367
 1678TIP3    H226450   0.927   6.291  12.977  0.6262  0.4302  0.8364
 1679TIP3   OH226451   0.932   3.997   5.700  0.3632 -0.1401  0.1607
 1679TIP3    H126452   0.881   3.990   5.780 -1.1386 -1.2435 -0.8285
 1679TIP3    H226453   0.904   3.922   5.647  1.3621  0.5009 -1.3550
 1680TIP3   OH226454   3.380   6.186   3.498  0.3406  0.4739  0.3254
 1680TIP3    H126455   3.359   6.238   3.421  0.7120  1.5465  0.9149
 1680TIP3    H226456   3.301   6.190   3.552 -1.2274 -3.0650 -1.3674
 1681TIP3   OH226457   0.177   1.853  11.324  0.3608 -0.2639 -0.0397
 1681TIP3    H126458   0.224   1.936  11.313 -1.0370  0.4462 -1.0518
 1681TIP3    H226459   0.202   1.801  11.247 -1.3639  0.6010 -1.2609
 1682TIP3   OH226460   1.324   0.419   6.167 -0.1745  0.4119 -0.2821
 1682TIP3    H126461   1.340   0.395   6.258  2.1427  1.3798 -0.3627
 1682TIP3    H226462   1.309   0.336   6.122  2.1529 -0.4835  0.4173
 1683TIP3   OH226463   5.550   3.087  12.154  0.5488  1.0340 -0.2890
 1683TIP3    H126464   5.586   3.167  12.116 -1.5190  1.0077 -2.5286
 1683TIP3    H226465   5.467   3.073  12.108  0.3331 -1.8554  0.7454
 1684TIP3   OH226466   1.928   2.504   1.297  0.0504 -0.0471  0.3296
 1684TIP3    H126467   1.858   2.568   1.311 -1.1477 -1.4231  0.8841
 1684TIP3    H226468   1.950   2.472   1.385  1.0331  0.0000  0.1165
 1685TIP3   OH226469   4.108   1.241   5.927  0.4242  0.1117  0.0341
 1685TIP3    H126470   4.030   1.296   5.933  0.2900 -0.2148  1.8641
 1685TIP3    H226471   4.156   1.260   6.007  2.7104  0.9649 -1.4475
 1686TIP3   OH226472   2.206   0.685  16.130  0.3121 -0.2008 -0.0646
 1686TIP3    H126473   2.285   0.632  16.120  1.7238  2.0025 -1.3860
 1686TIP3    H226474   2.235   0.761  16.182 -1.0775  0.3845 -0.1167
 1687TIP3   OH226475   5.088   2.996  13.751 -0.2886 -0.1720  0.0279
 1687TIP3    H126476   5.179   3.027  13.751 -0.1764 -0.0683  3.7248
 1687TIP3    H226477   5.093   2.908  13.788 -1.7449  0.1878  1.1617
 1688TIP3   OH226478   2.143   2.136   2.632  0.1363 -0.0594 -0.4789
 1688TIP3    H126479   2.078   2.204   2.652 -0.1944 -0.4640 -0.1412
 1688TIP3    H226480   2.220   2.184   2.602 -0.0404  0.4727 -0.1015
 1689TIP3   OH226481   0.130   2.526  13.876  0.3459 -0.0381  0.2923
 1689TIP3    H126482   0.199   2.544  13.813 -1.0433  1.7969 -0.7872
 1689TIP3    H226483   0.156   2.574  13.955  0.6501  0.0552  0.1345
 1690TIP3   OH226484   6.694   4.998   3.035 -0.1245 -0.0013 -0.1633
 1690TIP3    H126485   6.771   4.999   2.978  0.1121  2.9423  0.0729
 1690TIP3    H226486   6.700   5.079   3.085 -3.3347  0.2823 -0.0554
 1691TIP3   OH226487   0.848   2.975   3.008 -0.0072 -0.2521 -0.3284
 1691TIP3    H126488   0.826   2.950   3.098 -0.9475 -1.5153 -0.8741
 1691TIP3    H226489   0.836   3.070   3.006 -0.4613 -0.2705  0.7654
 1692TIP3   OH226490   6.506   0.176  12.546 -0.1197 -0.3352  0.7413
 1692TIP3    H126491   6.455   0.202  12.623 -1.9040  0.5468 -0.6518
 1692TIP3    H226492   6.558   0.253  12.524  0.5488 -0.6577  1.1634
 1693TIP3   OH226493   1.432   3.629  13.483 -0.2595  0.5685  0.8172
 1693TIP3    H126494   1.359   3.686  13.508  0.7979  1.6716  1.5195
 1693TIP3    H226495   1.442   3.570  13.558 -1.8938 -1.1990 -0.2529
 1694TIP3   OH226496   6.483   2.883  14.974  0.3722 -0.2272  0.2453
 1694TIP3    H126497   6.432   2.867  15.053  1.1425 -1.2898  0.5502
 1694TIP3    H226498   6.528   2.801  14.957  0.2740  0.0050 -1.2788
 1695TIP3   OH226499   3.965   0.629  13.110  0.3937 -0.3413 -0.3457
 1695TIP3    H126500   3.979   0.713  13.154  0.1661  0.5505 -1.9122
 1695TIP3    H226501   3.875   0.605  13.132 -0.5491  1.2752 -2.1592
 1696TIP3   OH226502   5.675   4.669   0.252 -0.2204  0.3340 -0.0412
 1696TIP3    H126503   5.597   4.627   0.288  0.1776 -1.5881 -1.2810
 1696TIP3    H226504   5.659   4.674   0.158  1.1536 -0.1335 -0.3204
 1697TIP3   OH226505   2.059   5.558   5.198 -0.3531 -0.1229  0.0823
 1697TIP3    H126506   2.098   5.481   5.238 -2.0303 -0.5735  0.9763
 1697TIP3    H226507   2.002   5.594   5.266 -1.3980  0.5262 -1.0876
 1698TIP3   OH226508   2.300   6.637  13.712  0.1211  0.4872 -0.4952
 1698TIP3    H126509   2.277   6.666  13.801  0.6303 -0.7414  0.0668
 1698TIP3    H226510   2.345   6.712  13.673 -0.7440  1.2961  0.0179
 1699TIP3   OH226511   1.516   3.217   2.860 -0.5786  0.1162 -0.3948
 1699TIP3    H126512   1.561   3.270   2.794 -1.8214  0.1397 -1.2679
 1699TIP3    H226513   1.562   3.133   2.859  0.0255  0.4425 -0.5897
 1700TIP3   OH226514   3.836   6.387   4.526 -0.2974 -0.0917  0.5373
 1700TIP3    H126515   3.842   6.292   4.536 -0.6446 -0.0071  1.5827
 1700TIP3    H226516   3.790   6.417   4.604 -0.8992  0.8562 -0.1612
 1701TIP3   OH226517   1.199   4.633   3.238  0.5982  0.7756  0.4895
 1701TIP3    H126518   1.238   4.546   3.229  0.5551  0.9752 -3.5530
 1701TIP3    H226519   1.117   4.618   3.285  1.4311 -1.0521  1.4666
 1702TIP3   OH226520   6.136   0.610  10.946  0.7482  0.0275 -0.7119
 1702TIP3    H126521   6.188   0.660  10.884  0.3407  1.2746 -0.0767
 1702TIP3    H226522   6.053   0.594  10.900  1.0452 -0.4693 -1.0829
 1703TIP3   OH226523   5.547   5.388  15.087 -0.3566  0.0326  0.1912
 1703TIP3    H126524   5.579   5.324  15.024  1.2394 -1.4937  2.4160
 1703TIP3    H226525   5.469   5.348  15.125  0.1441 -0.2288  0.9667
 1704TIP3   OH226526   2.884   4.964  13.245 -0.1237  0.1462  0.0427
 1704TIP3    H126527   2.863   4.975  13.338  0.3560 -1.4106  0.3549
 1704TIP3    H226528   2.920   4.876  13.239  1.5322  0.8804 -1.3312
 1705TIP3   OH226529   6.193   6.635  14.173 -0.0996  0.5287 -0.2411
 1705TIP3    H126530   6.268   6.649  14.116 -0.3375 -0.4264 -0.8004
 1705TIP3    H226531   6.226   6.575  14.240 -0.4377 -0.1200 -0.6520
 1706TIP3   OH226532   4.781   6.511   3.677  0.4646  0.1391  0.3182
 1706TIP3    H126533   4.813   6.522   3.587 -0.9552 -0.6080 -0.3140
 1706TIP3    H226534   4.698   6.463   3.667 -0.1803  0.8489  1.9630
 1707TIP3   OH226535   5.964   6.476   1.434 -0.0830 -0.1115  0.0182
 1707TIP3    H126536   5.959   6.570   1.452  1.2411  0.2838 -1.4183
 1707TIP3    H226537   5.874   6.445   1.443 -0.6294  1.3883  0.0432
 1708TIP3   OH226538   2.086   4.732  11.468 -0.0844  0.1732 -0.7348
 1708TIP3    H126539   2.046   4.758  11.551  1.1912  0.8905 -0.3087
 1708TIP3    H226540   2.061   4.801  11.406  0.5428  0.6632 -0.4494
 1709TIP3   OH226541   5.456   1.168  16.595 -0.2713  0.0242 -0.2234
 1709TIP3    H126542   5.360   1.161  16.595 -0.2491 -0.3006 -0.0325
 1709TIP3    H226543   5.478   1.199  16.682 -0.3049  1.6665 -0.7756
 1710TIP3   OH226544   2.682   4.663   3.716 -0.1214  0.5724  0.2145
 1710TIP3    H126545   2.742   4.706   3.777  3.0720  0.0275 -2.2451
 1710TIP3    H226546   2.706   4.570   3.721 -1.4881  0.1916 -0.1215
 1711TIP3   OH226547   3.670   2.174   4.927  0.3969 -0.4536 -0.4438
 1711TIP3    H126548   3.635   2.123   4.853 -0.3057 -0.0097 -0.4222
 1711TIP3    H226549   3.634   2.131   5.005  0.2145 -0.2331 -0.4064
 1712TIP3   OH226550   1.932   4.971   5.043  0.6594 -0.0156 -0.2730
 1712TIP3    H126551   1.848   4.926   5.050  0.6377  0.2093  1.1551
 1712TIP3    H226552   1.990   4.907   5.000 -0.3463  0.0261 -1.7770
 1713TIP3   OH226553   5.589   2.632  11.723 -0.1785 -0.1644  0.0814
 1713TIP3    H126554   5.677   2.594  11.723 -0.6686 -1.6887  3.7673
 1713TIP3    H226555   5.585   2.683  11.642  2.2609 -4.0387 -2.8469
 1714TIP3   OH226556   5.525   6.784  11.512 -0.2957 -0.1651 -0.0494
 1714TIP3    H126557   5.437   6.767  11.546 -0.0842  1.1235  1.2273
 1714TIP3    H226558   5.517   6.770  11.418 -1.9570  0.2827 -0.0114
 1715TIP3   OH226559   0.461   6.510   2.232 -0.2154 -0.0874 -0.4440
 1715TIP3    H126560   0.437   6.456   2.158  0.0686 -1.2981  0.3158
 1715TIP3    H226561   0.383   6.563   2.250 -1.6764 -2.4713  0.7087
 1716TIP3   OH226562   5.566   4.922   4.979 -0.2280  0.6441  0.4011
 1716TIP3    H126563   5.492   4.920   5.040  0.8389 -0.7316  1.7445
 1716TIP3    H226564   5.619   4.996   5.007  0.0742  0.2290  0.9593
 1717TIP3   OH226565   1.427   0.317   1.023 -0.4561  0.1700 -0.3275
 1717TIP3    H126566   1.492   0.372   0.980 -0.4476  0.2219 -0.2493
 1717TIP3    H226567   1.408   0.247   0.960  0.7062 -0.6422  0.1761
 1718TIP3   OH226568   4.303   1.833  16.979  0.0249  0.1254  0.0976
 1718TIP3    H126569   4.309   1.832  16.883 -1.8689  0.0367 -0.0642
 1718TIP3    H226570   4.380   1.881  17.007 -0.2814  1.7039 -1.5656
 1719TIP3   OH226571   4.018   0.394   3.889 -0.0516 -0.1930 -0.6424
 1719TIP3    H126572   4.059   0.318   3.847  0.9141 -0.0460  0.0097
 1719TIP3    H226573   4.059   0.398   3.976  0.1002  1.2322 -0.7650
 1720TIP3   OH226574   3.802   4.283  10.852  0.2503  0.6282 -0.2476
 1720TIP3    H126575   3.731   4.339  10.881  0.6446 -0.0624  2.2405
 1720TIP3    H226576   3.881   4.333  10.867  0.4325  0.7445 -1.4393
 1721TIP3   OH226577   6.418   4.574  13.754  0.2562 -0.0291 -0.4829
 1721TIP3    H126578   6.323   4.588  13.762  0.2848  0.3633 -0.8251
 1721TIP3    H226579   6.452   4.656  13.718  0.5286 -0.6442 -1.6913
 1722TIP3   OH226580   1.047   2.253  10.972  0.1807  0.1626  0.2925
 1722TIP3    H126581   1.077   2.264  10.882 -1.2338  1.8199 -0.0291
 1722TIP3    H226582   1.005   2.167  10.973  0.5557 -0.0409 -0.5063
 1723TIP3   OH226583   2.193   5.129  13.132  0.3747 -0.0853  0.0705
 1723TIP3    H126584   2.229   5.100  13.048  0.0538 -0.4950  0.0697
 1723TIP3    H226585   2.118   5.182  13.108 -0.7177 -1.5465  0.1055
 1724TIP3   OH226586   2.892   5.079   3.402 -0.2226  0.0433 -0.4724
 1724TIP3    H126587   2.964   5.105   3.344  1.6369  1.5737  2.3117
 1724TIP3    H226588   2.899   4.984   3.409  1.1451  0.1132 -0.7572
 1725TIP3   OH226589   4.098   0.531  11.923 -0.1529  0.6272  0.1845
 1725TIP3    H126590   4.089   0.624  11.940  0.9219  0.4564  1.9227
 1725TIP3    H226591   4.175   0.524  11.867 -0.1671  0.7692  0.1472
 1726TIP3   OH226592   3.657   4.830   3.096 -0.1655 -0.4165  0.1161
 1726TIP3    H126593   3.665   4.754   3.153 -1.1997  0.6794  1.7854
 1726TIP3    H226594   3.594   4.803   3.029  1.9798 -2.1414 -1.3759
 1727TIP3   OH226595   1.182   3.513  12.202 -0.1894 -0.0057 -0.3183
 1727TIP3    H126596   1.162   3.556  12.285 -1.5097  0.0591 -0.6481
 1727TIP3    H226597   1.100   3.518  12.152  0.5434 -0.1700 -1.5698
 1728TIP3   OH226598   0.459   6.780  12.819 -0.6603 -0.3991 -0.2299
 1728TIP3    H126599   0.408   6.808  12.743  0.6222 -1.2578 -1.4624
 1728TIP3    H226600   0.538   6.834  12.816 -0.2825 -0.9234  0.0730
 1729TIP3   OH226601   3.473   2.451  15.251 -0.0517 -0.1381  0.0310
 1729TIP3    H126602   3.518   2.367  15.263 -0.1664 -0.1458  0.4402
 1729TIP3    H226603   3.396   2.445  15.308  0.3323  0.5236  0.6385
 1730TIP3   OH226604   3.099   1.890  14.552  0.4230 -0.1835 -0.6234
 1730TIP3    H126605   3.163   1.819  14.546  1.2082  0.5322 -0.8692
 1730TIP3    H226606   3.129   1.956  14.489  0.3987  0.8958  0.4476
 1731TIP3   OH226607   0.373   4.023  12.613 -0.1572 -0.3759 -0.0818
 1731TIP3    H126608   0.332   3.941  12.641 -1.2583 -0.0030 -0.5439
 1731TIP3    H226609   0.412   4.059  12.693 -0.9590 -0.6330  0.4340
 1732TIP3   OH226610   2.136   3.854  12.537 -0.1210  0.1867  0.5428
 1732TIP3    H126611   2.172   3.784  12.482 -0.4257 -1.7551  2.7125
 1732TIP3    H226612   2.186   3.932  12.511  0.4840 -0.8639 -1.6783
 1733TIP3   OH226613   4.884   2.647  16.748 -0.5393 -0.5005  0.0398
 1733TIP3    H126614   4.915   2.655  16.657 -0.8966 -1.1979 -0.1493
 1733TIP3    H226615   4.842   2.731  16.766  1.6833  0.6017  0.4178
 1734TIP3   OH226616   2.645   6.068   4.431  0.1989  0.1891  0.3166
 1734TIP3    H126617   2.627   5.974   4.437 -0.5702  0.3656  1.0586
 1734TIP3    H226618   2.558   6.109   4.430  0.5204  0.8746 -0.3911
 1735TIP3   OH226619   2.427   3.266   3.660  0.2496 -0.0658  0.2594
 1735TIP3    H126620   2.482   3.307   3.726 -0.4084 -0.0584  0.8148
 1735TIP3    H226621   2.462   3.177   3.652 -0.0966 -0.2989  1.1496
 1736TIP3   OH226622   0.301   0.110   4.782 -0.1661  0.2669 -0.0583
 1736TIP3    H126623   0.360   0.148   4.717  0.7670  0.6161  0.9645
 1736TIP3    H226624   0.353   0.043   4.826 -0.9087 -0.2328  0.0773
 1737TIP3   OH226625   5.281   3.160  11.769 -0.3022 -0.5335 -0.0588
 1737TIP3    H126626   5.301   3.080  11.817 -0.5273 -0.4760  0.1360
 1737TIP3    H226627   5.364   3.206  11.762 -0.0937 -0.9730 -0.5298
 1738TIP3   OH226628   4.859   0.637  14.587  0.2537  0.2758 -0.8802
 1738TIP3    H126629   4.872   0.722  14.546 -0.9574  1.1319  0.4193
 1738TIP3    H226630   4.936   0.586  14.562  0.3799  1.2953 -2.7520
 1739TIP3   OH226631   4.234   5.809  13.072  0.2687  0.0184 -0.0330
 1739TIP3    H126632   4.158   5.777  13.120  2.2056  0.4857  3.6543
 1739TIP3    H226633   4.249   5.897  13.106  3.6808 -0.8507  1.0703
 1740TIP3   OH226634   5.009   5.807  11.998 -0.2499  0.1412 -0.4664
 1740TIP3    H126635   4.979   5.861  11.925 -1.2095  1.3095  0.7476
 1740TIP3    H226636   5.104   5.799  11.984 -0.2012  1.5181 -1.0939
 1741TIP3   OH226637   0.588   3.436   0.168 -0.2506 -0.0254 -0.1638
 1741TIP3    H126638   0.547   3.463   0.251  0.7202 -0.2478  0.4103
 1741TIP3    H226639   0.615   3.346   0.183 -0.2892 -0.1501 -0.8191
 1742TIP3   OH226640   1.559   1.819   1.230  0.3795  0.1478  0.2276
 1742TIP3    H126641   1.487   1.776   1.277  0.4548  0.5293  0.6999
 1742TIP3    H226642   1.638   1.792   1.277  0.6872 -1.2680 -1.0286
 1743TIP3   OH226643   1.895   3.666  16.791 -0.5228 -0.0734  0.1981
 1743TIP3    H126644   1.846   3.622  16.721 -0.0004 -1.2978  0.5726
 1743TIP3    H226645   1.950   3.730  16.746  0.6783 -1.6438 -0.6810
 1744TIP3   OH226646   3.324   1.238   2.290 -0.1812  0.0051 -0.3737
 1744TIP3    H126647   3.300   1.258   2.381  1.2871  0.2627 -0.0264
 1744TIP3    H226648   3.243   1.203   2.252 -0.5476 -1.1072  1.3206
 1745TIP3   OH226649   3.705   2.899  12.742  0.0893 -0.3090  0.5030
 1745TIP3    H126650   3.780   2.896  12.682 -1.1137 -0.2673 -1.0621
 1745TIP3    H226651   3.679   2.807  12.752 -1.5095 -0.1527 -1.4780
 1746TIP3   OH226652   2.110   3.540   3.780  0.5375 -0.8821  0.4927
 1746TIP3    H126653   2.157   3.562   3.860 -0.7094 -1.9102  1.5305
 1746TIP3    H226654   2.064   3.459   3.800 -0.3749 -0.7798 -1.0360
 1747TIP3   OH226655   1.684   3.693  14.754 -0.0668  0.5313  0.0182
 1747TIP3    H126656   1.688   3.705  14.659 -2.2790 -1.8274 -0.5040
 1747TIP3    H226657   1.662   3.780  14.788 -0.5030  1.1793 -1.7860
 1748TIP3   OH226658   4.290   6.754  14.366  0.3225  0.0587  0.1867
 1748TIP3    H126659   4.261   6.684  14.425 -1.3378  1.1689  0.7571
 1748TIP3    H226660   4.238   6.740  14.286  0.3839  0.3223  0.1008
 1749TIP3   OH226661   2.243   3.203  17.230 -0.3888 -0.0565  0.2670
 1749TIP3    H126662   2.256   3.119  17.273  0.0381 -0.4497 -0.6259
 1749TIP3    H226663   2.318   3.214  17.173 -1.7939 -0.3990 -1.7617
 1750TIP3   OH226664   3.311   3.325   1.497 -0.1624 -0.5380  0.6569
 1750TIP3    H126665   3.247   3.325   1.426 -0.1932 -0.5050  0.6850
 1750TIP3    H226666   3.390   3.287   1.458  0.3639  1.0280  0.1226
 1751TIP3   OH226667   4.433   1.355   1.543  0.2210  0.0375  0.3978
 1751TIP3    H126668   4.382   1.274   1.545  1.6451 -0.9210 -0.3038
 1751TIP3    H226669   4.429   1.383   1.451 -1.5262  1.6394  0.9102
 1752TIP3   OH226670   4.518   3.501   5.363  0.0228 -0.2925  0.1537
 1752TIP3    H126671   4.598   3.545   5.393  0.1808 -0.0930 -0.5356
 1752TIP3    H226672   4.513   3.523   5.270 -1.0309 -0.0138  0.2721
 1753TIP3   OH226673   3.818   5.417   3.566  0.1111  0.5780  0.3632
 1753TIP3    H126674   3.768   5.337   3.581  0.5894  0.0933 -0.5285
 1753TIP3    H226675   3.863   5.433   3.649  2.5961 -1.9356 -0.3470
 1754TIP3   OH226676   0.158   4.146   1.492 -0.0578  0.0389  0.4677
 1754TIP3    H126677   0.094   4.207   1.454  0.6577  0.4194 -0.1551
 1754TIP3    H226678   0.209   4.199   1.553  2.0647  0.7128 -1.7105
 1755TIP3   OH226679   6.643   1.132  13.110 -0.0243 -0.1987 -0.4440
 1755TIP3    H126680   6.692   1.210  13.137 -1.9682  1.2433 -0.8084
 1755TIP3    H226681   6.635   1.140  13.015 -1.6739  0.1265 -0.3145
 1756TIP3   OH226682   1.319   1.504  10.857 -0.0003 -0.2794 -0.2931
 1756TIP3    H126683   1.243   1.503  10.798 -1.6680 -0.8863  1.7618
 1756TIP3    H226684   1.393   1.524  10.799 -1.8880  2.0317 -2.1731
 1757TIP3   OH226685   5.730   5.844   1.376  0.4664 -0.2763 -0.6391
 1757TIP3    H126686   5.797   5.912   1.362  0.1121  0.1356 -0.3302
 1757TIP3    H226687   5.727   5.832   1.471 -0.6030  0.4278 -0.5637
 1758TIP3   OH226688   6.657   6.410   1.959  0.0368  0.2217  0.1624
 1758TIP3    H126689   6.650   6.399   1.864  1.1386 -0.2645  0.1207
 1758TIP3    H226690   6.615   6.495   1.977  1.1499  1.0552 -0.9661
 1759TIP3   OH226691   3.745   2.832   0.395 -0.2207  0.1809 -0.1865
 1759TIP3    H126692   3.651   2.815   0.405 -0.0120 -0.7411  0.2835
 1759TIP3    H226693   3.751   2.927   0.386 -1.0073  0.5674  2.4940
 1760TIP3   OH226694   3.783   1.183  16.891 -0.2819 -0.2768 -0.3645
 1760TIP3    H126695   3.800   1.209  16.981  0.3819 -0.7276 -0.3530
 1760TIP3    H226696   3.688   1.186  16.883 -0.3144  0.3651  0.1663
 1761TIP3   OH226697   5.092   3.506  13.809  0.3157  0.1620 -0.1964
 1761TIP3    H126698   5.159   3.500  13.878  0.9786  1.1935 -0.7152
 1761TIP3    H226699   5.009   3.511  13.857  0.6375 -0.6153  0.4748
 1762TIP3   OH226700   2.614   3.356   3.251 -0.4361 -0.2048  0.7264
 1762TIP3    H126701   2.685   3.405   3.291 -0.4526  2.5637 -2.2419
 1762TIP3    H226702   2.534   3.388   3.293 -0.2659  0.5715  0.4618
 1763TIP3   OH226703   1.270   1.585   4.098  0.3959  0.6834  0.5059
 1763TIP3    H126704   1.316   1.545   4.024  0.1117  0.2607  0.5533
 1763TIP3    H226705   1.184   1.543   4.098  0.1299  1.2191  0.6258
 1764TIP3   OH226706   0.895   3.635  14.882 -0.0505 -0.1917  0.0461
 1764TIP3    H126707   0.870   3.696  14.951  1.1591  0.4907 -0.0768
 1764TIP3    H226708   0.977   3.672  14.846  0.6659 -1.8328 -0.1050
 1765TIP3   OH226709   4.534   0.547   2.733  0.1429 -0.3815  0.1135
 1765TIP3    H126710   4.529   0.621   2.673 -0.8594  0.3482  1.0543
 1765TIP3    H226711   4.547   0.471   2.676  3.3057  0.6600 -0.7589
 1766TIP3   OH226712   5.844   5.498  16.553  0.4639 -0.2024  0.4655
 1766TIP3    H126713   5.933   5.505  16.587  0.5754 -0.0076  0.1327
 1766TIP3    H226714   5.846   5.544  16.469 -0.0903  0.3244  0.7298
 1767TIP3   OH226715   6.065   5.002   0.393 -0.6899 -0.9671 -0.3091
 1767TIP3    H126716   6.107   4.980   0.310 -1.3485 -1.0095 -0.6445
 1767TIP3    H226717   5.971   4.990   0.376 -0.9867  0.7877 -0.1027
 1768TIP3   OH226718   0.906   1.395  12.059 -1.0335  0.7743 -0.0040
 1768TIP3    H126719   0.995   1.413  12.030 -1.0201 -1.5979 -1.7648
 1768TIP3    H226720   0.913   1.391  12.154  0.6000  1.2866 -0.0628
 1769TIP3   OH226721   5.025   0.557   1.928 -0.5292 -0.0663  0.6044
 1769TIP3    H126722   5.060   0.636   1.969  1.2007 -0.3682 -0.1892
 1769TIP3    H226723   5.014   0.581   1.836  0.8859 -0.9831  0.1671
 1770TIP3   OH226724   5.154   5.147  11.221 -0.0819 -0.3936 -0.8921
 1770TIP3    H126725   5.226   5.138  11.158 -0.5305  0.3850 -1.5183
 1770TIP3    H226726   5.084   5.093  11.185 -0.2843 -0.0717 -0.9798
 1771TIP3   OH226727   1.917   4.418  11.406  0.0545 -0.5996 -0.3606
 1771TIP3    H126728   1.998   4.417  11.355  0.8508 -0.4769  0.8463
 1771TIP3    H226729   1.889   4.510  11.405  1.0825 -0.2308  0.8968
 1772TIP3   OH226730   1.514   1.500   1.579 -0.4143 -0.7310  0.6442
 1772TIP3    H126731   1.596   1.490   1.626 -0.0099  1.7178  0.5568
 1772TIP3    H226732   1.446   1.485   1.645  0.1336  0.6990  1.5629
 1773TIP3   OH226733   1.239   4.514  15.309 -0.5307  0.3256 -0.2210
 1773TIP3    H126734   1.295   4.528  15.233  0.6386 -1.4035  0.2456
 1773TIP3    H226735   1.214   4.421  15.303 -0.0519  0.0203  1.6862
 1774TIP3   OH226736   5.476   6.552  15.737  0.1643  0.0422  0.1085
 1774TIP3    H126737   5.548   6.489  15.738 -0.7488 -1.0364 -0.4175
 1774TIP3    H226738   5.509   6.625  15.684  1.2417  0.0465  0.7411
 1775TIP3   OH226739   2.468   3.137   3.124  0.6318  0.0830 -0.1662
 1775TIP3    H126740   2.423   3.124   3.207  0.2033 -0.5981 -0.5011
 1775TIP3    H226741   2.545   3.190   3.147  1.6409 -1.8012  1.0035
 1776TIP3   OH226742   4.149   1.200  15.953 -0.5923 -0.1846 -0.5403
 1776TIP3    H126743   4.170   1.293  15.948  1.5829 -0.4731  1.5963
 1776TIP3    H226744   4.201   1.160  15.884  0.7230 -0.1129  0.3893
 1777TIP3   OH226745   4.828   1.782   1.846  0.6440 -0.3205  0.4540
 1777TIP3    H126746   4.806   1.768   1.939  0.2374  0.7675  0.5333
 1777TIP3    H226747   4.760   1.842   1.815 -1.0913 -3.0000 -1.3712
 1778TIP3   OH226748   2.919   2.276  14.451 -0.2846 -0.6405 -0.2927
 1778TIP3    H126749   2.850   2.332  14.485 -0.3694 -1.3956  0.8283
 1778TIP3    H226750   2.999   2.329  14.457 -0.5784 -0.1693 -0.5228
 1779TIP3   OH226751   4.136   5.957   0.312  0.1006  0.5085  0.2200
 1779TIP3    H126752   4.196   5.940   0.240 -1.8993 -0.2618 -1.3662
 1779TIP3    H226753   4.146   5.881   0.370 -0.5676 -0.5469 -0.9691
 1780TIP3   OH226754   1.369   5.396   6.181 -0.1473  0.0970  0.1510
 1780TIP3    H126755   1.381   5.489   6.165 -0.6748 -0.0647 -1.3111
 1780TIP3    H226756   1.312   5.393   6.259  0.2376  0.9734  0.4807
 1781TIP3   OH226757   3.284   1.764   5.763 -0.4704  0.0116  0.0649
 1781TIP3    H126758   3.356   1.781   5.702 -0.7781 -0.3106 -0.3982
 1781TIP3    H226759   3.214   1.728   5.708 -1.7974  2.2796  0.0929
 1782TIP3   OH226760   3.091   4.360   4.416  0.0425  0.2662 -0.2273
 1782TIP3    H126761   3.124   4.394   4.499  1.1074 -0.6136 -0.2673
 1782TIP3    H226762   3.093   4.265   4.427 -1.3763  0.1710 -0.6780
 1783TIP3   OH226763   3.037   4.603  12.247  0.0910 -0.2078  0.3308
 1783TIP3    H126764   2.957   4.619  12.298 -0.2278  0.0316 -0.2387
 1783TIP3    H226765   3.020   4.643  12.162  0.6542 -0.5314  0.0577
 1784TIP3   OH226766   3.150   5.909  12.025  0.3350 -0.4227  0.1307
 1784TIP3    H126767   3.221   5.849  12.002  1.3045  1.8890 -3.8989
 1784TIP3    H226768   3.071   5.865  11.995  0.4415 -1.4468  1.2602
 1785TIP3   OH226769   6.330   6.027  12.140 -0.1657  0.4730  0.2806
 1785TIP3    H126770   6.342   6.041  12.234 -0.9137 -1.1075  0.6353
 1785TIP3    H226771   6.412   6.057  12.101  0.0570  1.3819  1.4067
 1786TIP3   OH226772   5.097   5.943  15.576 -0.3637 -0.2891 -0.0479
 1786TIP3    H126773   5.173   5.918  15.523  0.3103 -0.4731  0.9574
 1786TIP3    H226774   5.128   5.933  15.666 -1.2636  0.6339  0.3787
 1787TIP3   OH226775   3.064   3.140  16.647 -0.3784  0.2285  0.8979
 1787TIP3    H126776   3.059   3.059  16.697  0.3158  0.0772  0.7369
 1787TIP3    H226777   3.140   3.185  16.682  1.1662 -0.6488 -1.0934
 1788TIP3   OH226778   5.573   0.154   3.901  0.2548 -0.0009 -0.0853
 1788TIP3    H126779   5.649   0.107   3.866  0.3505  0.7497 -0.9377
 1788TIP3    H226780   5.505   0.143   3.834  0.1263  0.6554 -0.0715
 1789TIP3   OH226781   6.775   4.581   2.479 -0.2995 -0.1314  0.0531
 1789TIP3    H126782   6.771   4.498   2.431 -2.9779 -0.4149  0.6037
 1789TIP3    H226783   6.737   4.645   2.419 -0.5556  0.1800  0.5384
 1790TIP3   OH226784   6.634   5.097   1.759 -0.3281  0.2112 -0.0785
 1790TIP3    H126785   6.626   5.091   1.855 -1.4966 -0.5884 -0.2174
 1790TIP3    H226786   6.649   5.007   1.730 -0.1620  0.4258 -0.6722
 1791TIP3   OH226787   0.270   1.980   2.369 -0.0929 -0.2912 -0.5727
 1791TIP3    H126788   0.232   2.066   2.354 -0.1743 -0.3873 -0.9323
 1791TIP3    H226789   0.247   1.958   2.460 -1.5701 -0.6897 -1.0171
 1792TIP3   OH226790   4.403   2.964  12.623 -0.1651  0.0943  0.0253
 1792TIP3    H126791   4.456   3.007  12.690  0.1442 -0.8907  0.4358
 1792TIP3    H226792   4.456   2.970  12.544 -0.8869  1.9883 -0.3616
 1793TIP3   OH226793   3.527   4.197   5.562  0.0081  0.5024 -0.8682
 1793TIP3    H126794   3.460   4.202   5.493 -0.7691 -0.0027 -0.1603
 1793TIP3    H226795   3.506   4.118   5.610  0.4701  0.9242  0.0458
 1794TIP3   OH226796   2.302   2.844  12.988  0.5905 -0.3368 -0.2528
 1794TIP3    H126797   2.327   2.751  12.989 -0.4125 -0.6678 -1.7673
 1794TIP3    H226798   2.231   2.850  13.051  0.5792 -0.6352 -0.2332
 1795TIP3   OH226799   2.992   2.103  13.679 -0.1091  0.1683 -0.1899
 1795TIP3    H126800   3.035   2.044  13.618  0.5570 -2.1011  2.2860
 1795TIP3    H226801   3.064   2.142  13.730 -0.6964  1.0448  0.0037
 1796TIP3   OH226802   6.585   3.236   5.454  0.7144  0.1681 -0.0889
 1796TIP3    H126803   6.571   3.160   5.511 -0.2041  0.8937  0.7051
 1796TIP3    H226804   6.564   3.205   5.366  1.9146 -0.9138 -0.0123
 1797TIP3   OH226805   0.639   5.982   3.212 -0.2881  0.6511  0.0428
 1797TIP3    H126806   0.658   6.008   3.122 -0.8786 -1.8430 -0.8969
 1797TIP3    H226807   0.568   6.040   3.239 -2.0752 -0.3388 -2.1703
 1798TIP3   OH226808   0.778   6.072  14.409  0.6960  0.5199  0.2746
 1798TIP3    H126809   0.734   6.035  14.332 -0.1224 -0.0049  0.9726
 1798TIP3    H226810   0.825   6.149  14.376  1.8925 -0.7426 -1.0884
 1799TIP3   OH226811   2.370   1.983  15.969  0.2990 -0.1116  0.1476
 1799TIP3    H126812   2.312   1.975  16.045  0.9351  1.7693  0.9023
 1799TIP3    H226813   2.451   1.940  15.997  0.3154  0.0270  0.3234
 1800TIP3   OH226814   5.614   5.616  13.357  0.4250  0.0341 -0.1571
 1800TIP3    H126815   5.680   5.657  13.301  0.0054 -0.0039 -0.6804
 1800TIP3    H226816   5.549   5.685  13.372  0.1915 -0.1600 -0.2776
 1801TIP3   OH226817   5.484   4.662   1.067 -0.3316 -0.3145 -0.0502
 1801TIP3    H126818   5.507   4.610   1.144 -0.3504 -1.0907 -0.5667
 1801TIP3    H226819   5.502   4.605   0.992  0.8208  0.8466 -0.6987
 1802TIP3   OH226820   0.616   3.622   3.475  0.0768  0.4116  0.6096
 1802TIP3    H126821   0.686   3.586   3.529  0.0388  0.3988  0.6504
 1802TIP3    H226822   0.626   3.580   3.390  1.4568  1.9705 -0.0544
 1803TIP3   OH226823   0.541   6.098  15.899 -0.3462  0.8217  0.0166
 1803TIP3    H126824   0.606   6.104  15.969 -0.0136  0.1736 -0.2265
 1803TIP3    H226825   0.552   6.180  15.850 -0.7376  1.3838  0.8396
 1804TIP3   OH226826   5.117   0.928  11.527  0.2812  0.2726 -0.4641
 1804TIP3    H126827   5.084   0.891  11.609  0.5516  0.5543 -0.2274
 1804TIP3    H226828   5.109   0.856  11.464 -0.1764  0.1391 -0.2575
 1805TIP3   OH226829   0.655   1.079  14.980  0.3942  0.2904  0.4083
 1805TIP3    H126830   0.592   1.057  15.049  0.5580  1.5068  0.9678
 1805TIP3    H226831   0.621   1.036  14.902 -0.3783 -0.2274  1.0087
 1806TIP3   OH226832   6.370   4.266  15.671 -0.5664 -0.1771  0.2558
 1806TIP3    H126833   6.439   4.203  15.648 -0.3206 -0.3133  1.3384
 1806TIP3    H226834   6.357   4.317  15.591  0.4064 -0.5062 -0.1265
 1807TIP3   OH226835   5.470   0.653  13.488  0.1681  0.0767  0.1402
 1807TIP3    H126836   5.423   0.615  13.414 -0.1301  0.4936  0.1064
 1807TIP3    H226837   5.562   0.636  13.470 -0.0199 -1.8522  0.8160
 1808TIP3   OH226838   5.796   5.653   3.757  0.8354 -0.1919  0.2648
 1808TIP3    H126839   5.794   5.736   3.710 -1.9688 -0.3198 -0.0175
 1808TIP3    H226840   5.782   5.677   3.849 -0.8781 -0.3359  0.0777
 1809TIP3   OH226841   4.627   5.712  16.348 -0.0222  0.2353 -0.2050
 1809TIP3    H126842   4.638   5.678  16.437  1.5023 -0.5287 -0.6545
 1809TIP3    H226843   4.650   5.805  16.355 -0.9220  0.4257  0.3800
 1810TIP3   OH226844   0.851   2.378  14.615  0.5560  0.0925 -0.2041
 1810TIP3    H126845   0.942   2.357  14.633  0.0667 -1.3896  0.7442
 1810TIP3    H226846   0.805   2.295  14.624 -1.1072  1.0660  0.8149
 1811TIP3   OH226847   5.732   0.115  13.452  0.2240  0.7192  0.2038
 1811TIP3    H126848   5.780   0.076  13.380  0.4487  0.8832  0.2638
 1811TIP3    H226849   5.750   0.059  13.527  1.3881  1.4944  0.5383
 1812TIP3   OH226850   4.419   4.062  10.812  0.3306 -0.2280  0.1225
 1812TIP3    H126851   4.437   3.986  10.866 -3.1486 -1.3178  0.0036
 1812TIP3    H226852   4.367   4.120  10.868  0.9423  0.9800 -0.5204
 1813TIP3   OH226853   0.217   1.671  16.367  0.0783  0.1796  0.0057
 1813TIP3    H126854   0.176   1.755  16.347  0.7661  0.4855 -0.1409
 1813TIP3    H226855   0.147   1.607  16.352 -0.9301  0.8302  1.6888
 1814TIP3   OH226856   3.356   1.456  17.138 -0.4857  0.0796  0.3708
 1814TIP3    H126857   3.357   1.436  17.232  1.0413 -1.6309  0.0383
 1814TIP3    H226858   3.334   1.549  17.134  0.6018  0.4911  2.4761
 1815TIP3   OH226859   3.805   5.753   4.556 -0.4930 -0.5274 -0.6289
 1815TIP3    H126860   3.728   5.741   4.611 -0.5977 -1.2440 -0.9224
 1815TIP3    H226861   3.877   5.716   4.607 -0.5810 -1.1411 -0.9353
 1816TIP3   OH226862   4.321   5.542   4.275  0.1062  0.2290 -0.1466
 1816TIP3    H126863   4.396   5.531   4.217 -1.6345 -0.5164 -2.3749
 1816TIP3    H226864   4.299   5.635   4.269 -1.2136 -0.1661 -2.2828
 1817TIP3   OH226865   6.531   3.063   4.709 -0.2745  0.4750  0.2154
 1817TIP3    H126866   6.579   3.139   4.740  0.8611  0.6825 -1.8828
 1817TIP3    H226867   6.598   3.005   4.674 -1.4420  0.3746 -1.9995
 1818TIP3   OH226868   6.516   4.675   5.718  0.1701 -0.3073 -0.3687
 1818TIP3    H126869   6.435   4.637   5.684 -0.0665 -1.0394  0.9350
 1818TIP3    H226870   6.498   4.768   5.724  1.0969  0.3538 -4.5720
 1819TIP3   OH226871   0.601   6.621   4.364 -0.0379  0.0249 -0.4140
 1819TIP3    H126872   0.648   6.560   4.422 -0.2332 -0.2596 -0.5510
 1819TIP3    H226873   0.514   6.628   4.403 -0.1860 -0.2090 -0.7025
 1820TIP3   OH226874   6.196   1.241   0.392 -0.0337 -0.1777  0.3404
 1820TIP3    H126875   6.132   1.174   0.418  2.6865 -2.3818  1.9638
 1820TIP3    H226876   6.209   1.293   0.471  0.8161 -0.3549  0.3268
 1821TIP3   OH226877   5.605   1.840  16.685  0.7758 -0.1115 -0.2433
 1821TIP3    H126878   5.630   1.750  16.664  0.8612 -0.1601  0.0711
 1821TIP3    H226879   5.673   1.871  16.744  0.9162  0.2640 -0.5958
 1822TIP3   OH226880   4.937   1.314   4.796  0.0768  0.4023 -0.2735
 1822TIP3    H126881   5.030   1.289   4.797 -0.1860 -0.7045 -0.8760
 1822TIP3    H226882   4.899   1.259   4.726 -0.7908  1.7194 -0.8727
 1823TIP3   OH226883   3.596   6.124  12.863  0.2364  0.2705  0.8831
 1823TIP3    H126884   3.541   6.197  12.834 -0.7735 -1.3647 -1.5949
 1823TIP3    H226885   3.535   6.051  12.875  1.4986 -0.7908  1.1189
 1824TIP3   OH226886   3.334   1.106   4.164  0.7723 -0.0361  0.4818
 1824TIP3    H126887   3.255   1.144   4.203 -0.0333 -0.5045 -0.6395
 1824TIP3    H226888   3.301   1.041   4.103  1.8911  1.5355 -1.9569
 1825TIP3   OH226889   4.214   6.552  12.541  0.5981  0.2377 -0.2661
 1825TIP3    H126890   4.235   6.602  12.620 -0.9533 -0.0970  0.4087
 1825TIP3    H226891   4.244   6.463  12.560  1.7351  0.5069 -0.7447
 1826TIP3   OH226892   5.236   3.060  12.656 -0.1973 -0.1139 -0.1826
 1826TIP3    H126893   5.273   3.141  12.620 -1.0174  0.1011 -0.5809
 1826TIP3    H226894   5.149   3.086  12.687 -0.4880 -0.8584 -0.3644
 1827TIP3   OH226895   3.723   3.203   1.163  0.1488 -0.2199 -0.0558
 1827TIP3    H126896   3.778   3.125   1.168  0.0087 -0.2589  1.3117
 1827TIP3    H226897   3.720   3.236   1.253 -1.4230  0.2201 -0.2394
 1828TIP3   OH226898   4.941   3.896  10.781 -0.7577 -0.1613 -0.1900
 1828TIP3    H126899   4.957   3.844  10.702 -1.6642  1.2554 -1.3594
 1828TIP3    H226900   4.848   3.882  10.800 -0.6175 -0.2420  0.4277
 1829TIP3   OH226901   5.646   2.881  16.029 -0.4338  0.4166 -0.8737
 1829TIP3    H126902   5.584   2.954  16.027  0.6557  1.3766 -0.7586
 1829TIP3    H226903   5.630   2.836  16.112 -0.2659  1.3023 -0.3552
 1830TIP3   OH226904   2.635   2.636   0.759 -0.5670  0.2359  0.1327
 1830TIP3    H126905   2.704   2.701   0.740 -2.7725  1.9848 -2.6923
 1830TIP3    H226906   2.624   2.641   0.854  0.6654  2.6489  0.2477
 1831TIP3   OH226907   5.092   0.386   0.962  0.1902  0.0591 -0.1409
 1831TIP3    H126908   5.019   0.428   0.916 -0.3719  0.3423  0.9706
 1831TIP3    H226909   5.163   0.383   0.897 -0.7367 -0.0320 -1.1743
 1832TIP3   OH226910   2.636   1.727  13.873  0.2815 -0.1821 -0.4544
 1832TIP3    H126911   2.692   1.792  13.916 -0.1853 -0.4266  0.5701
 1832TIP3    H226912   2.655   1.736  13.780  2.0857 -0.3259 -0.1264
 1833TIP3   OH226913   2.754   4.460   0.807  1.3182  0.0980 -0.3823
 1833TIP3    H126914   2.838   4.416   0.801  2.5718  2.5065 -2.3480
 1833TIP3    H226915   2.767   4.528   0.874  0.3341 -0.6384  0.5860
 1834TIP3   OH226916   3.176   3.645  16.276  0.0109 -0.2196  0.1040
 1834TIP3    H126917   3.166   3.554  16.251  0.0504 -0.2138  0.0655
 1834TIP3    H226918   3.089   3.672  16.305 -0.0830 -0.1687 -0.2213
 1835TIP3   OH226919   4.341   1.754  15.822 -0.6702  0.0555 -0.2912
 1835TIP3    H126920   4.270   1.810  15.852 -1.6826  0.1904 -2.7518
 1835TIP3    H226921   4.323   1.740  15.729  1.8369 -0.9484 -0.6953
 1836TIP3   OH226922   0.568   2.197   1.871 -0.1249 -0.2843 -0.3468
 1836TIP3    H126923   0.590   2.118   1.822 -1.9320  0.1972 -2.0407
 1836TIP3    H226924   0.525   2.166   1.950  2.1631 -1.0536  0.6689
 1837TIP3   OH226925   5.949   4.615   2.381  0.5567 -0.9813 -1.5922
 1837TIP3    H126926   5.986   4.684   2.326 -1.0312 -0.4866 -2.0989
 1837TIP3    H226927   5.906   4.556   2.319 -0.7376 -0.7441 -0.9670
 1838TIP3   OH226928   2.196   4.402  15.794  0.3306 -0.2312 -0.1173
 1838TIP3    H126929   2.191   4.351  15.713  0.1488 -0.6655  0.1584
 1838TIP3    H226930   2.177   4.492  15.768  1.8076 -0.0946 -0.8121
 1839TIP3   OH226931   3.987   0.886  11.010 -0.4548 -0.0197 -0.0606
 1839TIP3    H126932   3.977   0.862  10.918 -1.8794 -0.2326  0.1277
 1839TIP3    H226933   3.898   0.886  11.044 -0.2467  2.5546  0.6961
 1840TIP3   OH226934   2.160   6.306  15.438  0.1626 -0.4524 -0.4513
 1840TIP3    H126935   2.228   6.278  15.377  0.4062  0.6680 -0.7106
 1840TIP3    H226936   2.208   6.354  15.506 -0.1243 -1.5157  0.5314
 1841TIP3   OH226937   4.033   1.748  11.828 -0.6730  0.1761 -0.4372
 1841TIP3    H126938   4.020   1.745  11.733 -1.4903  3.4338 -0.5448
 1841TIP3    H226939   4.105   1.809  11.840  0.4797 -1.3978  1.0554
 1842TIP3   OH226940   2.555   2.223  13.799 -0.4793 -0.0943 -0.2134
 1842TIP3    H126941   2.606   2.188  13.726  1.1867  2.6740 -0.4919
 1842TIP3    H226942   2.464   2.218  13.769 -0.0367 -1.2220 -1.4599
 1843TIP3   OH226943   3.094   1.592   0.101 -0.3701 -0.4585 -0.0022
 1843TIP3    H126944   3.064   1.624   0.186 -1.4674 -1.1713 -0.0956
 1843TIP3    H226945   3.136   1.667   0.060  0.3348 -0.1527  1.2380
 1844TIP3   OH226946   0.971   6.264  13.756 -0.1409 -0.2546 -0.6905
 1844TIP3    H126947   1.032   6.320  13.804 -1.6548 -1.1672  2.5610
 1844TIP3    H226948   0.895   6.320  13.738 -0.0993 -0.2588 -0.8821
 1845TIP3   OH226949   6.405   0.158  14.758 -0.1767  0.2605 -0.3454
 1845TIP3    H126950   6.328   0.208  14.786  0.7450  0.8145  1.3630
 1845TIP3    H226951   6.458   0.150  14.837  0.9464 -1.1957 -1.1916
 1846TIP3   OH226952   0.062   4.062  11.737  0.3131  0.3276 -0.0896
 1846TIP3    H126953   0.136   4.031  11.685  0.0810 -1.9155  0.7899
 1846TIP3    H226954  -0.007   4.082  11.673  0.9784  0.3939 -0.7889
 1847TIP3   OH226955   2.879   0.037  13.346  0.6211  0.2692  0.1657
 1847TIP3    H126956   2.953  -0.016  13.315  1.9299  1.0238  1.8706
 1847TIP3    H226957   2.804  -0.021  13.338  1.4086 -0.6193 -1.3745
 1848TIP3   OH226958   6.577   0.404   0.460  0.4887  0.0559 -0.0606
 1848TIP3    H126959   6.539   0.400   0.373  0.4083 -0.0919 -0.0185
 1848TIP3    H226960   6.620   0.319   0.471 -0.9209 -0.5981  0.6980
 1849TIP3   OH226961   1.948   1.404  13.805  0.1783  0.1101 -0.1069
 1849TIP3    H126962   1.879   1.343  13.832  1.3528 -0.7820  0.9835
 1849TIP3    H226963   1.919   1.489  13.838 -0.1494 -0.3479  0.8214
 1850TIP3   OH226964   2.129   6.322  13.155 -0.5483 -0.3646  0.1792
 1850TIP3    H126965   2.221   6.314  13.131 -0.3026  0.2512  0.8831
 1850TIP3    H226966   2.116   6.416  13.167 -1.3714 -0.4066 -0.3019
 1851TIP3   OH226967   0.723   4.816  14.840 -0.0116 -0.2482 -0.1954
 1851TIP3    H126968   0.680   4.865  14.771  0.2931 -3.2276 -2.7423
 1851TIP3    H226969   0.652   4.792  14.900 -0.0183  3.9039  1.8172
 1852TIP3   OH226970   0.944   3.461   3.332 -0.0993 -0.8755 -0.5531
 1852TIP3    H126971   0.931   3.368   3.352 -3.0104 -0.1778  1.4313
 1852TIP3    H226972   0.865   3.486   3.284  0.1477  0.8034 -0.1440
 1853TIP3   OH226973   4.879   1.310  13.737 -0.4540  0.1691  0.3713
 1853TIP3    H126974   4.923   1.387  13.771 -0.4513 -0.1852  1.1856
 1853TIP3    H226975   4.796   1.306  13.785 -0.3530 -0.4584  0.5110
 1854TIP3   OH226976   3.832   4.812  15.758  0.5847  0.2448  0.1973
 1854TIP3    H126977   3.832   4.901  15.722  0.6128  1.0573  2.0487
 1854TIP3    H226978   3.754   4.809  15.813 -0.8016 -1.7745 -1.7244
 1855TIP3   OH226979   6.196   0.358  15.595 -0.2838 -0.0331  0.6403
 1855TIP3    H126980   6.125   0.294  15.599 -1.8339  1.4984 -0.9144
 1855TIP3    H226981   6.170   0.427  15.655 -1.8447  2.0675 -2.2202
 1856TIP3   OH226982   0.085   5.587   1.700  0.2880  0.3673 -0.6605
 1856TIP3    H126983   0.008   5.624   1.743 -0.1180 -0.2466 -0.8524
 1856TIP3    H226984   0.051   5.540   1.624  0.8133 -0.1954 -0.5584
 1857TIP3   OH226985   2.028   0.853  11.780  0.4565 -0.0130  0.5725
 1857TIP3    H126986   2.113   0.813  11.761  0.2584  0.1145 -0.7308
 1857TIP3    H226987   1.964   0.789  11.749  0.0758 -0.0670  1.4642
 1858TIP3   OH226988   1.308   1.066   2.018 -0.0776  0.4104  0.5627
 1858TIP3    H126989   1.308   1.054   2.113 -0.0464  0.3618  0.5565
 1858TIP3    H226990   1.222   1.037   1.990  0.3684 -0.8619  0.4126
 1859TIP3   OH226991   6.613   4.238   2.952 -0.5307  0.2586  0.1318
 1859TIP3    H126992   6.563   4.292   2.890 -1.4896  0.2638  0.8944
 1859TIP3    H226993   6.704   4.249   2.924 -0.7484  1.8470 -0.0689
 1860TIP3   OH226994   1.183   5.919   4.632  0.2059 -0.1129 -0.0100
 1860TIP3    H126995   1.158   5.859   4.561 -1.4428  0.3353  0.1486
 1860TIP3    H226996   1.278   5.931   4.621  0.3351 -1.6646 -0.8640
 1861TIP3   OH226997   3.170   3.077   1.840 -0.2064  0.3517 -0.8572
 1861TIP3    H126998   3.148   3.170   1.829 -2.5205  0.0126  0.2675
 1861TIP3    H226999   3.199   3.071   1.932 -0.9227 -0.1767 -0.6655
 1862TIP3   OH227000   4.300   2.946  13.176 -0.0344 -0.2663  0.4748
 1862TIP3    H127001   4.228   3.004  13.201  0.4439  0.4793  0.1320
 1862TIP3    H227002   4.375   3.004  13.164  1.0702 -1.1908  2.4311
 1863TIP3   OH227003   1.868   4.980  16.691 -0.0157  0.1518  0.2848
 1863TIP3    H127004   1.822   5.060  16.665  0.7621  0.7299  0.6523
 1863TIP3    H227005   1.798   4.918  16.712 -0.6258  0.7330 -0.0105
 1864TIP3   OH227006   5.623   0.626  12.688 -0.4227 -0.2969  0.2395
 1864TIP3    H127007   5.601   0.718  12.700  0.7647 -0.1845  1.9647
 1864TIP3    H227008   5.598   0.584  12.771 -1.7025 -1.7012 -0.8104
 1865TIP3   OH227009   6.246   1.195   1.510 -0.0507  0.3304 -0.1958
 1865TIP3    H127010   6.157   1.220   1.485  0.1348  0.8841 -0.3169
 1865TIP3    H227011   6.302   1.251   1.456  0.3688 -0.0585 -0.1614
 1866TIP3   OH227012   5.726   0.486  14.331 -0.8361 -0.1010  0.2708
 1866TIP3    H127013   5.750   0.572  14.296  0.0102 -0.2008  0.5765
 1866TIP3    H227014   5.804   0.458  14.380 -1.3488 -0.7476  0.7244
 1867TIP3   OH227015   5.287   1.501  11.729  0.4060  0.1058  0.5996
 1867TIP3    H127016   5.318   1.424  11.682 -2.2704 -1.5543  1.3608
 1867TIP3    H227017   5.328   1.494  11.816 -1.1131 -1.4910  1.2479
 1868TIP3   OH227018   4.391   5.506   4.539  0.0451 -0.8627  0.2529
 1868TIP3    H127019   4.370   5.547   4.456  1.2449 -0.7497 -0.0117
 1868TIP3    H227020   4.442   5.572   4.587  1.3952 -1.7329  0.1007
 1869TIP3   OH227021   2.106   3.078   0.287 -0.5002  0.1226 -0.0012
 1869TIP3    H127022   2.021   3.096   0.328  0.5252  2.1491  1.4360
 1869TIP3    H227023   2.153   3.161   0.292  1.4476 -0.8408 -1.0962
 1870TIP3   OH227024   2.655   1.595  15.113 -0.4430  0.3458 -0.0329
 1870TIP3    H127025   2.632   1.620  15.024 -1.0716  1.7794  0.4918
 1870TIP3    H227026   2.685   1.676  15.154 -0.9328 -0.1018  1.2875
 1871TIP3   OH227027   2.819   0.441   1.048  0.0985 -0.4848  0.1059
 1871TIP3    H127028   2.779   0.522   1.081 -2.1001 -1.5687  0.3239
 1871TIP3    H227029   2.749   0.400   0.996  1.4765 -1.7942 -0.7932
 1872TIP3   OH227030   0.362   0.288   0.504  0.2058 -0.4542 -0.5716
 1872TIP3    H127031   0.316   0.222   0.556  0.1279 -0.3106 -0.4575
 1872TIP3    H227032   0.438   0.312   0.557 -0.3809  0.3827 -0.0883
 1873TIP3   OH227033   2.934   3.929   0.635  0.3400 -0.3300 -0.0533
 1873TIP3    H127034   2.911   3.964   0.549 -0.0082  1.7743  0.8453
 1873TIP3    H227035   3.001   3.989   0.668  1.8647 -2.1700  0.4249
 1874TIP3   OH227036   3.499   5.007   3.895  0.1024 -0.2632 -0.0788
 1874TIP3    H127037   3.529   5.095   3.870  2.9711 -1.1719 -0.1900
 1874TIP3    H227038   3.442   4.980   3.823  0.7099  0.7915 -1.0014
 1875TIP3   OH227039   1.022   2.021   0.260 -0.4420  0.1865  0.1692
 1875TIP3    H127040   0.976   1.946   0.223 -1.2703 -0.5653  2.5306
 1875TIP3    H227041   1.113   1.993   0.268 -0.5122 -0.1130 -0.0589
 1876TIP3   OH227042   5.793   5.015  14.702 -0.4212 -0.3492 -0.0724
 1876TIP3    H127043   5.786   4.919  14.700  0.3193 -0.4267  0.4829
 1876TIP3    H227044   5.712   5.046  14.662 -0.2722 -1.2182 -1.1040
 1877TIP3   OH227045   3.925   3.380   0.005 -0.1958 -0.1983 -0.3961
 1877TIP3    H127046   3.936   3.466  -0.037 -0.3779 -0.2039 -0.4524
 1877TIP3    H227047   4.008   3.366   0.051  0.1421 -0.3491 -1.0365
 1878TIP3   OH227048   6.332   2.749  16.221  0.0567  0.0996 -0.2559
 1878TIP3    H127049   6.354   2.793  16.140 -1.0248 -0.0170 -0.6327
 1878TIP3    H227050   6.287   2.669  16.193 -1.4288  0.6457  0.4387
 1879TIP3   OH227051   4.062   5.213  13.539 -0.1810  0.0876 -0.3488
 1879TIP3    H127052   4.136   5.274  13.535 -0.6534  0.7310  0.4993
 1879TIP3    H227053   3.984   5.268  13.536 -0.6183 -0.4252  0.7834
 1880TIP3   OH227054   2.465   0.924  12.285  0.0386  0.3845  0.8017
 1880TIP3    H127055   2.398   0.976  12.240 -0.7876 -0.8698  0.5460
 1880TIP3    H227056   2.417   0.850  12.322  1.1808 -0.1496  1.2445
 1881TIP3   OH227057   6.463   1.614  15.739 -0.0024 -0.2748 -0.1683
 1881TIP3    H127058   6.458   1.696  15.691 -2.1219  1.7711  3.1747
 1881TIP3    H227059   6.377   1.573  15.727 -0.4596  0.1242  1.5067
 1882TIP3   OH227060   0.656   3.616  12.108  0.4564  0.7720  0.2686
 1882TIP3    H127061   0.608   3.547  12.155 -0.9863  0.8796 -0.9759
 1882TIP3    H227062   0.598   3.692  12.113  0.9998  1.2315 -0.3449
 1883TIP3   OH227063   6.504   4.966  10.888  0.4100 -0.4748  0.0750
 1883TIP3    H127064   6.455   4.909  10.830  0.0481 -0.1335  0.0405
 1883TIP3    H227065   6.497   4.926  10.975 -0.2133 -0.2505  0.1304
 1884TIP3   OH227066   5.532   0.975   5.332  0.1889 -0.3542 -0.1692
 1884TIP3    H127067   5.488   0.905   5.380  2.7577  0.2851  3.4481
 1884TIP3    H227068   5.603   0.931   5.286  1.7237 -0.2835  1.9996
 1885TIP3   OH227069   0.895   2.876  14.244 -0.1629  0.6791 -0.2853
 1885TIP3    H127070   0.907   2.830  14.328 -0.4251 -0.7477 -1.0015
 1885TIP3    H227071   0.801   2.872  14.227  0.1824 -2.3355 -2.3535
 1886TIP3   OH227072   0.477   3.485   0.489  0.0489 -0.0809 -0.4383
 1886TIP3    H127073   0.457   3.555   0.427  0.6440 -1.6620 -2.5400
 1886TIP3    H227074   0.393   3.445   0.509  0.0425 -0.8443 -1.8881
 1887TIP3   OH227075   2.518   2.997  11.328 -0.0076 -0.0504  0.3421
 1887TIP3    H127076   2.481   2.911  11.351 -0.5854  0.1124  0.0435
 1887TIP3    H227077   2.607   2.978  11.300 -0.1542 -0.5637  0.2087
 1888TIP3   OH227078   5.653   0.512  11.632 -0.6385  0.3946 -0.0275
 1888TIP3    H127079   5.638   0.419  11.616 -0.4186  0.3451  0.0555
 1888TIP3    H227080   5.703   0.515  11.714 -0.1208  0.5543 -0.3408
 1889TIP3   OH227081   4.936   2.735  16.166 -0.5882  0.3408 -0.9445
 1889TIP3    H127082   4.951   2.821  16.203 -0.8331  0.1170 -0.3073
 1889TIP3    H227083   5.021   2.708  16.130 -0.4165  0.6739 -0.7828
 1890TIP3   OH227084   3.560   3.811  11.519  0.5145  0.5848  0.3988
 1890TIP3    H127085   3.550   3.764  11.602 -0.1037  0.3387  0.1933
 1890TIP3    H227086   3.636   3.770  11.477 -0.2951 -0.5653  0.0133
 1891TIP3   OH227087   3.991   3.217  15.716 -0.2624  0.4028  0.1407
 1891TIP3    H127088   4.011   3.295  15.664 -1.1799 -0.3250 -1.3694
 1891TIP3    H227089   3.949   3.250  15.795  0.5672  1.5060  0.1316
 1892TIP3   OH227090   4.808   2.625  11.484 -0.0132  0.4461  0.0278
 1892TIP3    H127091   4.845   2.537  11.493  0.1830  0.4864 -0.3815
 1892TIP3    H227092   4.754   2.620  11.405 -2.7475 -0.2746  1.7822
 1893TIP3   OH227093   3.733   3.709   4.303  0.0340 -0.0090 -0.6494
 1893TIP3    H127094   3.719   3.620   4.334 -0.8603 -0.0070 -1.0211
 1893TIP3    H227095   3.673   3.718   4.229 -0.0827  0.9951 -0.4420
 1894TIP3   OH227096   1.701   1.569   5.376 -0.0493 -0.0012 -0.4380
 1894TIP3    H127097   1.715   1.565   5.281 -0.4812  0.4547 -0.5259
 1894TIP3    H227098   1.789   1.574   5.413  0.0934  0.7680 -0.8713
 1895TIP3   OH227099   1.624   3.094   3.128  0.4686 -0.3576 -0.3891
 1895TIP3    H127100   1.651   3.182   3.156 -0.2349 -0.1932 -0.1861
 1895TIP3    H227101   1.701   3.057   3.086  1.0598  0.0118  0.3467
 1896TIP3   OH227102   1.046   3.985   0.802 -0.7864 -0.5037 -0.2817
 1896TIP3    H127103   1.086   3.905   0.836 -1.8959 -1.5006 -1.2167
 1896TIP3    H227104   1.108   4.055   0.825  1.1451 -1.8591 -1.0363
 1897TIP3   OH227105   3.790   4.559  15.708  0.3975  0.2125  0.3148
 1897TIP3    H127106   3.824   4.631  15.761 -0.8755 -0.3357  1.9571
 1897TIP3    H227107   3.703   4.590  15.680  0.7869  0.2269 -0.9452
 1898TIP3   OH227108   6.178   6.744  13.618  0.4170  0.1886  0.5035
 1898TIP3    H127109   6.161   6.708  13.531  0.6600  1.3232 -0.0316
 1898TIP3    H227110   6.202   6.835  13.603  1.5825  0.1245  1.6621
 1899TIP3   OH227111   1.468   2.746  14.658 -0.1254 -0.0737  0.1524
 1899TIP3    H127112   1.543   2.707  14.613  0.5763  0.4761  0.8289
 1899TIP3    H227113   1.418   2.671  14.691  1.1524 -0.4259  1.3557
 1900TIP3   OH227114   6.181   5.225  12.576 -0.5632  0.3817 -0.7416
 1900TIP3    H127115   6.189   5.203  12.484 -0.4882 -2.5868 -0.1261
 1900TIP3    H227116   6.243   5.167  12.621 -1.7707  0.5538  1.2986
 1901TIP3   OH227117   3.405   5.361   1.991 -0.3512  0.4444  0.3324
 1901TIP3    H127118   3.372   5.445   2.022 -0.3063  1.1840 -1.4634
 1901TIP3    H227119   3.499   5.376   1.977  0.0327 -0.4800  1.7099
 1902TIP3   OH227120   3.438   2.961  12.683  0.5077  0.3637 -1.3532
 1902TIP3    H127121   3.382   2.986  12.756  1.2825 -0.1271 -0.5699
 1902TIP3    H227122   3.525   2.951  12.722  0.9238  0.0469 -2.3316
 1903TIP3   OH227123   0.361   3.926   1.458 -0.6302  0.2402  0.0458
 1903TIP3    H127124   0.302   4.001   1.467 -1.4105 -0.1522 -1.6021
 1903TIP3    H227125   0.394   3.931   1.368  0.5178 -0.5301  0.3950
 1904TIP3   OH227126   2.660   6.719  14.035  0.1732  0.7825  0.0469
 1904TIP3    H127127   2.611   6.709  14.116  1.0457 -2.0876  0.3317
 1904TIP3    H227128   2.604   6.678  13.969  0.5069  0.9739 -0.3571
 1905TIP3   OH227129   1.566   4.989  12.387 -0.0517  0.3579  0.0115
 1905TIP3    H127130   1.640   4.954  12.438  0.0357 -0.1619 -0.4613
 1905TIP3    H227131   1.490   4.977  12.444  0.6382  4.4610  2.2285
 1906TIP3   OH227132   0.708   1.049   3.918  0.3510  0.4991  0.2763
 1906TIP3    H127133   0.784   1.095   3.954 -0.1998  1.6144  0.0819
 1906TIP3    H227134   0.743   0.969   3.879  1.4243  1.0280  0.1409
 1907TIP3   OH227135   5.375   2.177   4.966 -0.0809 -0.3759  0.0850
 1907TIP3    H127136   5.432   2.220   5.030 -2.5960 -1.0325  2.9511
 1907TIP3    H227137   5.410   2.089   4.957  1.1381  0.1472 -0.6803
 1908TIP3   OH227138   0.578   2.181  13.018  0.3336 -0.4520  0.0252
 1908TIP3    H127139   0.667   2.144  13.017  0.4090 -0.5765  3.1257
 1908TIP3    H227140   0.523   2.112  13.054 -0.4691  0.6265  0.9460
 1909TIP3   OH227141   2.330   2.681   4.746 -0.1473 -0.0250 -0.0295
 1909TIP3    H127142   2.389   2.659   4.819 -0.7695 -0.3049  0.4005
 1909TIP3    H227143   2.324   2.776   4.749 -1.9707 -0.1103  1.7865
 1910TIP3   OH227144   4.950   3.832   4.011  0.0693  0.1788  0.2771
 1910TIP3    H127145   4.996   3.813   3.929 -0.3714  1.5644 -0.3164
 1910TIP3    H227146   4.861   3.856   3.983 -1.0028 -2.1564  1.3641
 1911TIP3   OH227147   1.752   1.153  15.101 -0.3523  0.6621  0.0186
 1911TIP3    H127148   1.804   1.142  15.021  0.0119 -1.3798  0.4885
 1911TIP3    H227149   1.665   1.119  15.078 -0.1639 -0.2081  0.5545
 1912TIP3   OH227150   0.443   0.863   1.415  0.4647  0.7517 -0.3231
 1912TIP3    H127151   0.435   0.769   1.401  0.7629  0.9371 -1.9927
 1912TIP3    H227152   0.374   0.884   1.477 -0.0956 -0.4609 -0.5065
 1913TIP3   OH227153   2.980   2.341  15.918  0.0872 -0.3046 -0.8066
 1913TIP3    H127154   2.926   2.347  15.997  0.8464  1.7887 -0.3867
 1913TIP3    H227155   2.949   2.261  15.874  0.0272 -1.8525  1.8449
 1914TIP3   OH227156   5.271   5.384   4.204  0.1960 -0.0751 -0.4009
 1914TIP3    H127157   5.189   5.430   4.221  0.0541 -0.2063 -0.7084
 1914TIP3    H227158   5.329   5.410   4.275  0.1367  0.6119 -0.6005
 1915TIP3   OH227159   3.930   1.804   0.352  0.9650 -0.4330 -0.4464
 1915TIP3    H127160   3.903   1.795   0.260  1.0540  1.8945 -0.7529
 1915TIP3    H227161   3.970   1.891   0.357 -1.4008  0.6831  2.3401
 1916TIP3   OH227162   2.372   6.583   4.458  0.1442 -0.2986  0.0988
 1916TIP3    H127163   2.278   6.603   4.461 -0.4760 -2.8979  0.1004
 1916TIP3    H227164   2.410   6.642   4.523 -1.8851 -0.9474  2.0272
 1917TIP3   OH227165   3.034   5.170   1.595  0.1704  0.0949 -0.0620
 1917TIP3    H127166   2.939   5.175   1.602  0.1999 -0.7708  1.2980
 1917TIP3    H227167   3.061   5.259   1.573 -0.8616  0.6226  0.7349
 1918TIP3   OH227168   5.422   6.631   2.240  0.1746 -0.6700 -0.5223
 1918TIP3    H127169   5.450   6.711   2.195 -1.2155 -0.3005 -0.7911
 1918TIP3    H227170   5.463   6.636   2.326  2.0416 -0.8696 -1.3399
 1919TIP3   OH227171   6.643   6.326   3.863  0.1629 -0.2544 -0.7642
 1919TIP3    H127172   6.694   6.256   3.822  0.1444 -1.3209  0.9301
 1919TIP3    H227173   6.592   6.281   3.930 -0.6522  1.2544 -0.3535
 1920TIP3   OH227174   1.671   0.787   0.578 -0.4473  0.0976  0.0087
 1920TIP3    H127175   1.686   0.782   0.672 -0.1304 -0.0687 -0.0480
 1920TIP3    H227176   1.693   0.878   0.555 -0.1299  0.0294  0.0319
 1921TIP3   OH227177   5.030   1.383   3.904 -0.4040 -0.7610 -0.1374
 1921TIP3    H127178   4.957   1.403   3.962 -1.0038 -0.0274 -1.1070
 1921TIP3    H227179   5.032   1.455   3.841  1.6016 -0.3873  0.2721
 1922TIP3   OH227180   6.586   1.792  16.590  0.3641 -0.1108 -0.0804
 1922TIP3    H127181   6.592   1.857  16.520  0.1661  0.0987  0.0975
 1922TIP3    H227182   6.677   1.775  16.615  0.7299 -2.4441 -2.4575
 1923TIP3   OH227183   2.431   5.863   1.869 -0.1267  0.0419  0.4484
 1923TIP3    H127184   2.489   5.913   1.926 -1.8100  2.5590  0.1291
 1923TIP3    H227185   2.475   5.863   1.784 -0.4588  1.7952  0.2443
 1924TIP3   OH227186   3.108   4.676   1.485 -0.0708  0.7187 -0.1233
 1924TIP3    H127187   3.177   4.699   1.423 -0.0704  0.9457 -0.0409
 1924TIP3    H227188   3.153   4.629   1.556 -0.2915 -0.9804 -1.0519
 1925TIP3   OH227189   0.050   3.533  14.275  0.3603 -0.0200  0.0522
 1925TIP3    H127190   0.071   3.561  14.364 -1.0200  0.1074  0.3606
 1925TIP3    H227191  -0.033   3.576  14.255  1.1964  0.8818 -1.7498
 1926TIP3   OH227192   3.180   4.245  16.501 -0.2789 -0.1506  0.1906
 1926TIP3    H127193   3.275   4.257  16.510 -0.6158  1.7606  1.7186
 1926TIP3    H227194   3.171   4.155  16.469  2.0822  0.1006 -1.4787
 1927TIP3   OH227195   5.104   6.637   1.111 -0.2170 -0.0569  0.5736
 1927TIP3    H127196   5.147   6.584   1.043 -1.7644 -0.1109 -0.4049
 1927TIP3    H227197   5.019   6.595   1.124  0.8682 -1.5002  4.3117
 1928TIP3   OH227198   5.541   1.645  11.385  0.6617 -0.4188 -0.2622
 1928TIP3    H127199   5.522   1.636  11.291 -0.4342  0.6681 -0.1802
 1928TIP3    H227200   5.525   1.558  11.421 -0.7234 -0.4364 -0.8259
 1929TIP3   OH227201   6.210   5.676  11.496 -0.0899 -0.1103  1.2524
 1929TIP3    H127202   6.260   5.746  11.535  0.7594 -0.4558  0.8092
 1929TIP3    H227203   6.210   5.695  11.402  2.3566 -2.0089  0.7719
 1930TIP3   OH227204   4.656   0.047   4.539 -0.3942  0.1048  0.5827
 1930TIP3    H127205   4.718   0.083   4.601 -0.3863  1.8991 -0.3991
 1930TIP3    H227206   4.572   0.086   4.563 -0.5748  0.0222  0.1031
 1931TIP3   OH227207   3.624   4.959  14.624 -0.1867  0.0819  0.2970
 1931TIP3    H127208   3.574   5.024  14.673 -0.0959 -0.2079  0.7784
 1931TIP3    H227209   3.559   4.896  14.592 -0.5276  1.3683 -1.7438
 1932TIP3   OH227210   3.143   5.298  12.895  0.0113 -0.0067  0.3323
 1932TIP3    H127211   3.125   5.205  12.912  0.9736 -0.1340  0.7062
 1932TIP3    H227212   3.143   5.338  12.982  2.3887 -0.1867  0.4887
 1933TIP3   OH227213   3.427   0.051  16.805 -0.2216 -0.2424  0.6763
 1933TIP3    H127214   3.484  -0.024  16.820  0.9253  0.6415  0.9045
 1933TIP3    H227215   3.487   0.122  16.781 -1.4757 -0.2436 -3.2653
 1934TIP3   OH227216   0.711   6.495   2.343  0.0166 -0.9851 -0.0947
 1934TIP3    H127217   0.710   6.558   2.414  0.1528 -0.2127 -0.7607
 1934TIP3    H227218   0.625   6.505   2.301  0.1326 -1.0646 -0.3545
 1935TIP3   OH227219   6.004   0.425  14.121 -0.0229  0.2031  0.4686
 1935TIP3    H127220   6.072   0.491  14.107  0.1616 -0.2174 -0.7264
 1935TIP3    H227221   6.048   0.355  14.170 -0.1949  0.8961  1.6538
 1936TIP3   OH227222   4.784   1.582  15.228  0.2954 -0.0176  0.2469
 1936TIP3    H127223   4.815   1.624  15.147 -0.6297  1.2936  0.5491
 1936TIP3    H227224   4.862   1.537  15.262  1.3876  1.5894 -0.0186
 1937TIP3   OH227225   1.963   5.049   1.173 -0.0411 -0.4744  0.5600
 1937TIP3    H127226   2.052   5.082   1.158  0.8723 -2.9520  0.0537
 1937TIP3    H227227   1.931   5.025   1.086 -1.2777  0.4492  0.7296
 1938TIP3   OH227228   0.078   4.965  11.672 -0.2502 -0.0689  0.6098
 1938TIP3    H127229   0.164   5.003  11.688 -0.3983 -0.1082  1.5485
 1938TIP3    H227230   0.019   5.014  11.730 -0.8579 -0.0500 -0.0137
 1939TIP3   OH227231   0.083   3.093  16.222 -0.2098  0.2880  0.1630
 1939TIP3    H127232   0.031   3.066  16.146 -2.5312  1.9333  1.0616
 1939TIP3    H227233   0.070   3.187  16.228  3.1803  0.8848  0.3356
 1940TIP3   OH227234   1.111   1.599  14.703 -0.1149 -0.2530  0.3347
 1940TIP3    H127235   1.138   1.520  14.751  1.9394  0.1243 -0.1079
 1940TIP3    H227236   1.193   1.646  14.687 -1.0453  0.8839 -1.3284
 1941TIP3   OH227237   0.023   0.499  14.995 -0.3392  0.9783 -0.7240
 1941TIP3    H127238   0.056   0.538  14.914  0.5765  0.7257 -0.4835
 1941TIP3    H227239   0.064   0.552  15.065  1.3046 -0.6615 -0.3745
 1942TIP3   OH227240   1.004   1.362   4.515 -0.2185 -0.1077  0.1419
 1942TIP3    H127241   0.970   1.343   4.603 -0.8219  1.3257  0.2438
 1942TIP3    H227242   0.990   1.456   4.504 -1.6893 -0.5265 -2.1368
 1943TIP3   OH227243   6.595   4.548   5.948  0.1157 -0.0439  0.0642
 1943TIP3    H127244   6.578   4.609   5.877 -0.4626  0.9252  0.9979
 1943TIP3    H227245   6.521   4.560   6.008  0.4296 -1.0533  0.6794
 1944TIP3   OH227246   6.353   3.364   4.974  0.0470  0.5787  0.2401
 1944TIP3    H127247   6.294   3.295   4.944 -1.3192  0.8946  1.9874
 1944TIP3    H227248   6.380   3.409   4.894 -1.4461 -0.1010 -0.6997
 1945TIP3   OH227249   0.016   2.035  11.687 -0.2924 -0.4045 -0.0759
 1945TIP3    H127250  -0.029   2.049  11.770  0.3486  1.2299  0.0526
 1945TIP3    H227251   0.096   1.987  11.710  0.6446  1.3333  0.5514
 1946TIP3   OH227252   6.565   6.432   5.915 -0.4717  0.4823 -0.0515
 1946TIP3    H127253   6.480   6.389   5.919  0.0923 -0.5664  3.0858
 1946TIP3    H227254   6.610   6.390   5.842 -2.2079  0.3441 -1.1131
 1947TIP3   OH227255   6.686   3.308   4.708  0.1681  0.0760 -0.4063
 1947TIP3    H127256   6.740   3.237   4.743 -1.6882 -1.1441  0.1338
 1947TIP3    H227257   6.733   3.388   4.733  1.2413 -0.8944  0.8387
 1948TIP3   OH227258   4.811   0.471  15.076 -0.3037 -0.2722 -0.5064
 1948TIP3    H127259   4.795   0.467  14.981 -1.2804 -0.8870 -0.3306
 1948TIP3    H227260   4.790   0.382  15.107 -1.0321  0.2120  0.4381
 1949TIP3   OH227261   2.092   4.011  14.926 -0.6660 -0.4065 -0.3382
 1949TIP3    H127262   2.180   3.976  14.913 -0.1170  1.2653 -1.4433
 1949TIP3    H227263   2.104   4.081  14.990 -1.3489 -0.6910  0.1130
 1950TIP3   OH227264   2.614   1.721  11.129  0.5604 -0.7468  0.3162
 1950TIP3    H127265   2.545   1.664  11.095  0.5344 -0.9311  0.6707
 1950TIP3    H227266   2.591   1.808  11.096  1.0785 -1.0668 -0.9457
 1951TIP3   OH227267   6.121   4.498  15.245  0.0263 -0.2451  0.0574
 1951TIP3    H127268   6.176   4.422  15.266 -0.3383 -0.4134  0.4287
 1951TIP3    H227269   6.077   4.474  15.164 -0.4655 -0.6461  0.4329
 1952TIP3   OH227270   5.229   5.944  14.468 -0.3256 -0.1664  0.2777
 1952TIP3    H127271   5.195   6.032  14.452  0.5908  0.4068  1.3611
 1952TIP3    H227272   5.175   5.911  14.540 -0.6763 -0.5040 -0.1362
 1953TIP3   OH227273   4.681   5.450   2.933  0.0368  0.1462 -0.1027
 1953TIP3    H127274   4.722   5.537   2.938 -0.0570  0.1517  0.6516
 1953TIP3    H227275   4.605   5.463   2.876  0.9597  0.1774 -1.3485
 1954TIP3   OH227276   0.595   6.294  12.693 -0.5148 -0.3744  0.5386
 1954TIP3    H127277   0.591   6.267  12.785  1.9887  0.5123  0.9871
 1954TIP3    H227278   0.654   6.369  12.693 -1.0088  0.0850 -1.7299
 1955TIP3   OH227279   6.155   5.603   1.715  0.8889 -0.1233 -0.2653
 1955TIP3    H127280   6.140   5.673   1.779  2.1835 -0.1623  0.1083
 1955TIP3    H227281   6.131   5.641   1.631  0.5950  0.4288  0.0631
 1956TIP3   OH227282   3.167   5.327   3.982 -0.4982  0.4193 -0.4672
 1956TIP3    H127283   3.179   5.359   3.892 -1.8368 -0.3392 -0.9418
 1956TIP3    H227284   3.072   5.331   3.997 -0.2797  0.7271  0.9960
 1957TIP3   OH227285   2.755   4.251   4.133  0.3653  0.5021  0.3025
 1957TIP3    H127286   2.674   4.302   4.134 -0.0732 -0.1934  0.7365
 1957TIP3    H227287   2.817   4.306   4.085 -0.5385  0.7812 -0.5779
 1958TIP3   OH227288   4.858   2.150   2.529  0.1151 -0.3403 -0.1445
 1958TIP3    H127289   4.871   2.059   2.557 -2.1028 -0.7374 -0.2642
 1958TIP3    H227290   4.894   2.153   2.440 -0.0714 -1.1940 -0.2579
 1959TIP3   OH227291   3.131   4.184   1.742 -0.0952 -0.2685 -0.0765
 1959TIP3    H127292   3.057   4.135   1.708  0.3338  0.2259 -1.8556
 1959TIP3    H227293   3.107   4.206   1.832 -1.5163 -1.2324 -0.1957
 1960TIP3   OH227294   5.212   1.139  13.038  0.5244 -0.7098 -0.1381
 1960TIP3    H127295   5.236   1.107  12.951 -3.0625  1.1242 -2.0477
 1960TIP3    H227296   5.207   1.060  13.092  0.6193 -2.2435 -2.2385
 1961TIP3   OH227297   1.022   4.251  15.790 -0.3502  0.0427 -0.2775
 1961TIP3    H127298   1.050   4.275  15.879 -1.8456  1.2515 -0.1008
 1961TIP3    H227299   1.102   4.256  15.738  0.8124 -1.8277  1.1771
 1962TIP3   OH227300   3.543   5.439   4.390 -0.1566  0.6263 -0.7705
 1962TIP3    H127301   3.525   5.429   4.297  0.7996  3.9092 -1.4653
 1962TIP3    H227302   3.458   5.460   4.429 -0.4003  0.1842 -1.0565
 1963TIP3   OH227303   0.715   3.987   1.211  0.6386  0.1297  0.0116
 1963TIP3    H127304   0.799   3.978   1.167  0.9669  0.3524  0.5761
 1963TIP3    H227305   0.737   3.997   1.304  0.1299  2.1414 -0.0245
 1964TIP3   OH227306   3.055   3.676   0.806 -0.0462 -0.2076 -0.1587
 1964TIP3    H127307   3.037   3.765   0.775  0.7743  0.2925  0.7434
 1964TIP3    H227308   2.976   3.651   0.854 -0.5261 -0.2243 -0.9233
 1965TIP3   OH227309   5.324   0.507  16.261 -0.2778  0.6017 -0.3276
 1965TIP3    H127310   5.278   0.563  16.324 -0.6453 -0.1158  0.0617
 1965TIP3    H227311   5.349   0.429  16.312  0.5110  0.5474 -0.7756
 1966TIP3   OH227312   6.230   3.090   0.321 -0.2138  0.2896  0.2566
 1966TIP3    H127313   6.298   3.149   0.352 -1.0859  1.5070 -0.0922
 1966TIP3    H227314   6.156   3.105   0.380 -0.5354 -0.2528  0.0009
 1967TIP3   OH227315   2.982   6.054  12.506  0.1816 -0.4752 -0.0636
 1967TIP3    H127316   3.064   6.103  12.494  0.0336 -0.2103 -0.0112
 1967TIP3    H227317   2.947   6.044  12.418 -0.1094  0.0800 -0.0183
 1968TIP3   OH227318   0.572   0.087  13.880 -0.0459 -0.6457  0.1321
 1968TIP3    H127319   0.612   0.100  13.966  0.6384  1.3311 -0.4106
 1968TIP3    H227320   0.550   0.176  13.850  1.1313 -1.0819 -2.3584
 1969TIP3   OH227321   6.562   0.654  15.839 -0.0900  0.3395 -0.3337
 1969TIP3    H127322   6.560   0.746  15.865  2.6232  0.0889  1.1296
 1969TIP3    H227323   6.579   0.607  15.920  0.8142 -1.2260 -1.3929
 1970TIP3   OH227324   0.941   5.413  13.833  0.2305 -0.3245  0.3953
 1970TIP3    H127325   0.861   5.405  13.885  1.1740  0.8131  2.1313
 1970TIP3    H227326   0.910   5.424  13.743 -1.4869 -1.5439  0.7861
 1971TIP3   OH227327   2.831   2.151  16.944 -0.2913 -0.3737 -0.4702
 1971TIP3    H127328   2.816   2.058  16.929  0.1559 -0.4100 -0.7046
 1971TIP3    H227329   2.892   2.177  16.875 -0.6764  0.1719 -0.6151
 1972TIP3   OH227330   0.672   6.706  15.806 -0.1803 -0.5856  0.0370
 1972TIP3    H127331   0.658   6.620  15.845  0.3208 -0.4729  0.4808
 1972TIP3    H227332   0.754   6.737  15.846 -0.9523  0.5839  0.7572
 1973TIP3   OH227333   6.363   3.588  12.027 -0.3184  0.4126 -0.1800
 1973TIP3    H127334   6.324   3.544  11.952 -0.2305  0.2180 -0.1105
 1973TIP3    H227335   6.391   3.673  11.993 -0.8125  0.5591 -0.2305
 1974TIP3   OH227336   1.383   4.691   2.368  0.5025 -0.0651 -0.0445
 1974TIP3    H127337   1.360   4.660   2.281 -0.1255  1.5267 -0.4850
 1974TIP3    H227338   1.319   4.760   2.387  0.3916 -0.6243  1.8412
 1975TIP3   OH227339   1.427   3.090  11.583 -0.1032  0.5669  0.0927
 1975TIP3    H127340   1.431   3.096  11.488  0.3548 -2.2931 -0.1587
 1975TIP3    H227341   1.451   3.177  11.614  2.1584  0.9209 -2.3511
 1976TIP3   OH227342   1.274   6.710   1.057 -0.1833 -0.0703  0.3560
 1976TIP3    H127343   1.207   6.761   1.103  0.2214  1.1129 -0.3328
 1976TIP3    H227344   1.238   6.697   0.969 -0.3218 -1.0645  0.5543
 1977TIP3   OH227345   4.566   5.786  11.015  0.1935  0.4093  0.0417
 1977TIP3    H127346   4.612   5.762  11.096  0.9306 -2.1971 -1.0500
 1977TIP3    H227347   4.632   5.830  10.962  0.6241 -0.6955 -0.3591
 1978TIP3   OH227348   0.065   0.877  15.239 -0.4490  0.0162  0.2503
 1978TIP3    H127349  -0.001   0.889  15.171 -1.6141 -2.2713  0.8497
 1978TIP3    H227350   0.024   0.911  15.318 -1.1877 -1.7475  0.6996
 1979TIP3   OH227351   3.190   2.324  15.773  0.4110 -0.4318  0.2470
 1979TIP3    H127352   3.099   2.341  15.799  0.4420 -1.6629  1.2591
 1979TIP3    H227353   3.243   2.363  15.842  0.6289 -0.2350 -0.0316
 1980TIP3   OH227354   3.938   6.243  14.190  0.4936  0.5989  0.1060
 1980TIP3    H127355   4.022   6.197  14.200  1.0306  1.5593  0.2379
 1980TIP3    H227356   3.948   6.293  14.109 -0.1605  0.3000 -0.1577
 1981TIP3   OH227357   6.596   6.679   1.848 -0.1852 -0.2623 -0.0179
 1981TIP3    H127358   6.577   6.756   1.901  0.3815 -1.0473  1.4036
 1981TIP3    H227359   6.521   6.670   1.790  0.4903  2.3344 -1.4718
 1982TIP3   OH227360   4.205   5.943   1.104 -0.0733 -0.2423 -0.0845
 1982TIP3    H127361   4.213   6.002   1.029  1.3540 -0.8840 -0.4853
 1982TIP3    H227362   4.211   5.855   1.066  1.8046 -0.5686  0.8387
 1983TIP3   OH227363   0.047   6.141   4.924 -0.7892 -0.3083 -0.6614
 1983TIP3    H127364   0.050   6.049   4.897  0.1166  0.0942 -2.0865
 1983TIP3    H227365   0.138   6.170   4.919 -0.9481  0.4579  0.5919
 1984TIP3   OH227366   1.800   5.931   4.840 -0.2943  0.0507 -0.4112
 1984TIP3    H127367   1.830   5.996   4.903  0.3063 -0.4448 -0.1686
 1984TIP3    H227368   1.806   5.974   4.755 -0.9325  0.6634 -0.1567
 1985TIP3   OH227369   3.810   2.815  13.549 -0.3497 -0.2039  0.2049
 1985TIP3    H127370   3.820   2.727  13.512 -0.4684  0.0760 -0.5143
 1985TIP3    H227371   3.734   2.808  13.607  1.0017 -1.1284  1.9331
 1986TIP3   OH227372   4.746   0.446   0.434  0.1121 -0.1767  0.0467
 1986TIP3    H127373   4.774   0.384   0.368 -2.3230 -0.8235 -0.4929
 1986TIP3    H227374   4.758   0.532   0.394  3.1684 -0.2302  0.6636
 1987TIP3   OH227375   0.577   3.131   0.148 -0.1877  0.2112 -0.8291
 1987TIP3    H127376   0.537   3.054   0.188  0.7591  0.6335  1.0204
 1987TIP3    H227377   0.512   3.161   0.084 -0.9260 -1.6193 -1.0086
 1988TIP3   OH227378   3.090   6.652   3.104 -0.3161 -0.3101  0.3842
 1988TIP3    H127379   3.123   6.671   3.192  2.9340  0.3252 -0.8509
 1988TIP3    H227380   3.047   6.733   3.076  2.0528  0.9216  0.0319
 1989TIP3   OH227381   6.646   6.180   2.334 -0.5351  0.1331 -0.3127
 1989TIP3    H127382   6.700   6.237   2.388 -0.2033 -2.0135  1.7809
 1989TIP3    H227383   6.569   6.232   2.313  0.3565  1.7812  0.3331
 1990TIP3   OH227384   3.863   3.465   2.452 -0.5572  0.1569  0.5285
 1990TIP3    H127385   3.836   3.376   2.477 -2.4365  0.7667  0.7552
 1990TIP3    H227386   3.887   3.458   2.360 -3.1119 -0.1194 -0.1753
 1991TIP3   OH227387   0.517   4.963  11.311  0.1502 -0.0730  0.2183
 1991TIP3    H127388   0.555   4.945  11.397 -0.1625  0.9685  0.5776
 1991TIP3    H227389   0.545   5.052  11.290 -1.5124  0.4580  0.1687
 1992TIP3   OH227390   4.250   1.289  15.170 -0.0627 -0.7254 -0.1533
 1992TIP3    H127391   4.161   1.312  15.147 -0.6003 -1.1537  1.3740
 1992TIP3    H227392   4.303   1.320  15.096 -1.3521  0.3457 -0.6650
 1993TIP3   OH227393   4.241   4.868  16.468  0.1266  0.2358  0.2569
 1993TIP3    H127394   4.336   4.863  16.456  0.2882  3.8540 -1.6158
 1993TIP3    H227395   4.205   4.828  16.389  0.2017  0.6595  0.0032
 1994TIP3   OH227396   3.321   0.228  16.089  0.0371  0.8642 -0.0892
 1994TIP3    H127397   3.327   0.141  16.050  1.1858  0.5877  0.6365
 1994TIP3    H227398   3.239   0.228  16.137  1.5016 -1.0619  2.6772
 1995TIP3   OH227399   5.760   2.293  13.499  0.2003  0.2195 -0.3831
 1995TIP3    H127400   5.741   2.387  13.507  0.6484  0.4785 -2.0957
 1995TIP3    H227401   5.822   2.275  13.570  0.2108  1.2377 -0.1203
 1996TIP3   OH227402   0.203   5.604  17.021 -0.8220 -0.0060  0.1156
 1996TIP3    H127403   0.130   5.639  16.970 -2.5235 -2.8769  0.3544
 1996TIP3    H227404   0.245   5.541  16.962  1.2934  1.2871  0.1335
 1997TIP3   OH227405   1.913   1.354   0.674  0.6048 -0.0698  0.1277
 1997TIP3    H127406   1.946   1.442   0.694  0.7918  0.2876 -1.5989
 1997TIP3    H227407   1.836   1.370   0.620  1.7051 -0.9485 -1.7980
 1998TIP3   OH227408   2.871   3.991  14.361  0.5351  0.3356  0.2440
 1998TIP3    H127409   2.938   4.015  14.296  1.5715  0.7025  1.4092
 1998TIP3    H227410   2.896   4.039  14.440 -1.5204  1.0028  0.5277
 1999TIP3   OH227411   3.211   0.142   2.621 -0.4236  0.0312  0.4749
 1999TIP3    H127412   3.268   0.144   2.545 -0.8565 -0.6495  0.1198
 1999TIP3    H227413   3.264   0.178   2.692 -0.7759  2.9762 -0.6229
 2000TIP3   OH227414   0.220   1.305   0.505 -0.0770  0.2993  0.0641
 2000TIP3    H127415   0.148   1.243   0.522  0.9115 -0.0011  4.3925
 2000TIP3    H227416   0.296   1.250   0.487 -0.0333  0.4468 -0.2139
 2001TIP3   OH227417   2.667   2.252   4.947 -0.5725 -1.0623 -0.2604
 2001TIP3    H127418   2.708   2.217   4.869 -0.0070  1.2684 -1.0947
 2001TIP3    H227419   2.576   2.268   4.922 -0.8274 -1.8609  0.1147
 2002TIP3   OH227420   3.775   5.683  15.942  0.1117  0.2129 -0.2709
 2002TIP3    H127421   3.833   5.759  15.932 -0.3236  0.6360  0.3747
 2002TIP3    H227422   3.751   5.660  15.852  1.9534 -0.5089 -0.6410
 2003TIP3   OH227423   1.304   3.684  16.430  0.3080  0.1077  0.7431
 2003TIP3    H127424   1.301   3.590  16.416 -0.6447 -0.1430  2.3836
 2003TIP3    H227425   1.322   3.721  16.343 -0.4055 -1.5092 -0.1290
 2004TIP3   OH227426   0.221   5.922   3.460  0.0434  0.2344 -0.9045
 2004TIP3    H127427   0.281   5.847   3.460 -0.7528 -0.4272 -1.9823
 2004TIP3    H227428   0.240   5.968   3.542  0.0895 -1.5094  0.1057
 2005TIP3   OH227429   5.111   3.748   5.239 -0.1794  0.1889  0.1291
 2005TIP3    H127430   5.132   3.728   5.330  2.1799 -1.0544 -0.5932
 2005TIP3    H227431   5.141   3.838   5.227  0.6553 -0.0647  0.2768
 2006TIP3   OH227432   4.507   4.087   3.008  0.0110 -0.6680  0.1399
 2006TIP3    H127433   4.514   4.153   3.077  0.3495 -1.0428  0.4700
 2006TIP3    H227434   4.466   4.012   3.051  0.0115 -0.8232 -0.1303
 2007TIP3   OH227435   5.196   4.954  16.354 -0.3115 -0.9058 -0.3136
 2007TIP3    H127436   5.206   5.041  16.393 -1.6905 -0.8014 -0.1277
 2007TIP3    H227437   5.261   4.899  16.400 -1.7876 -0.7706  2.1389
 2008TIP3   OH227438   5.905   3.717  15.254 -0.5256  0.1575 -0.4113
 2008TIP3    H127439   5.883   3.771  15.329  0.2777  0.8981 -0.6869
 2008TIP3    H227440   5.913   3.779  15.181  0.1389 -0.3513 -0.7903
 2009TIP3   OH227441   6.552   0.683  11.957 -0.2279 -0.2168 -0.0528
 2009TIP3    H127442   6.505   0.609  11.919 -1.2802  0.6478 -0.4933
 2009TIP3    H227443   6.600   0.721  11.883  1.6554 -1.3927  0.4836
 2010TIP3   OH227444   0.485   3.867  15.334  0.1759  0.6925 -0.3850
 2010TIP3    H127445   0.493   3.783  15.289 -2.2858  1.0503 -1.6590
 2010TIP3    H227446   0.399   3.864  15.377 -1.0609  3.3106 -2.3449
 2011TIP3   OH227447   2.050   5.026   0.598 -0.6560  0.4197 -0.3759
 2011TIP3    H127448   1.959   5.020   0.566 -0.7970 -0.2344  0.1381
 2011TIP3    H227449   2.042   5.068   0.683 -0.4186  0.8466 -0.5624
 2012TIP3   OH227450   4.703   5.899  13.125 -0.5879 -0.2219  0.2344
 2012TIP3    H127451   4.685   5.814  13.166  0.3045 -0.6605 -0.2675
 2012TIP3    H227452   4.790   5.923  13.158 -0.4211  0.0348 -0.3918
 2013TIP3   OH227453   5.443   3.560   1.613  0.2051 -0.1626 -0.4937
 2013TIP3    H127454   5.502   3.587   1.543  0.9954 -0.5887  0.0031
 2013TIP3    H227455   5.407   3.642   1.648 -0.3552  0.0463 -1.5182
 2014TIP3   OH227456   2.253   3.498  17.133 -0.7831  0.3156 -0.0441
 2014TIP3    H127457   2.228   3.517  17.223 -3.9949 -1.0049 -0.5476
 2014TIP3    H227458   2.173   3.468  17.091  0.9511 -0.6637 -2.9496
 2015TIP3   OH227459   0.752   5.172   6.192  0.3807  0.4925  0.4164
 2015TIP3    H127460   0.689   5.220   6.139 -0.2205  1.2326  1.7499
 2015TIP3    H227461   0.704   5.095   6.222  0.4155  0.5648  0.6575
 2016TIP3   OH227462   4.483   0.489   2.133  0.7958  0.2203  0.1603
 2016TIP3    H127463   4.517   0.428   2.199 -1.0212 -1.3191 -0.2053
 2016TIP3    H227464   4.435   0.554   2.183  0.2791 -0.3640  0.4485
 2017TIP3   OH227465   2.598   2.374   3.894 -0.0880  0.0188  0.1947
 2017TIP3    H127466   2.563   2.285   3.901 -0.5709  0.1770 -0.1369
 2017TIP3    H227467   2.673   2.366   3.834 -0.7792  0.0064 -0.6942
 2018TIP3   OH227468   5.309   4.570   1.624 -0.0152 -0.1919  0.2550
 2018TIP3    H127469   5.244   4.639   1.612 -0.2087 -0.4007  0.0955
 2018TIP3    H227470   5.297   4.512   1.548 -0.3771 -0.8200  0.7773
 2019TIP3   OH227471   6.459   0.002  11.454  0.0473  0.2927 -0.4221
 2019TIP3    H127472   6.502  -0.049  11.522 -0.3358  1.7470  0.9942
 2019TIP3    H227473   6.459   0.092  11.488 -3.7253  0.4662 -0.4672
 2020TIP3   OH227474   5.976   6.445  15.740 -0.3685  0.2962  0.0891
 2020TIP3    H127475   6.050   6.443  15.679  0.6485  0.1960  1.2867
 2020TIP3    H227476   5.901   6.417  15.687  0.9523 -2.6028 -0.4603
 2021TIP3   OH227477   2.965   3.060  12.361  0.5160 -0.6258  0.0939
 2021TIP3    H127478   2.949   3.129  12.297  0.0293 -1.1265 -0.3391
 2021TIP3    H227479   2.931   3.096  12.443  0.1791 -0.3814 -0.1477
 2022TIP3   OH227480   1.941   4.537   4.315 -0.3356  0.8542 -0.3492
 2022TIP3    H127481   2.014   4.491   4.357 -1.3393 -0.2868  0.1718
 2022TIP3    H227482   1.934   4.497   4.228 -0.6833  0.6040 -0.2038
 2023TIP3   OH227483   4.492   6.102   1.579 -0.1574 -0.0314 -0.1178
 2023TIP3    H127484   4.402   6.111   1.547 -0.5541  0.7757  1.1667
 2023TIP3    H227485   4.546   6.107   1.500 -1.2002 -0.0186 -0.8541
 2024TIP3   OH227486   5.805   2.229  15.201 -0.3736 -0.2876  0.4271
 2024TIP3    H127487   5.771   2.241  15.112  1.3113 -0.1104 -0.2245
 2024TIP3    H227488   5.734   2.259  15.258 -0.5020  2.1599 -0.9110
 2025TIP3   OH227489   3.526   0.023  13.863  0.1990 -0.7374  0.6267
 2025TIP3    H127490   3.605  -0.024  13.834  0.7556  0.4272  0.2030
 2025TIP3    H227491   3.465   0.015  13.790  0.3382 -0.6971  0.5047
 2026TIP3   OH227492   0.194   6.588   0.682 -0.0321 -0.5879  0.2502
 2026TIP3    H127493   0.099   6.585   0.678  0.0349 -2.6253 -1.0485
 2026TIP3    H227494   0.216   6.548   0.766 -0.2891  1.2873  1.2848
 2027TIP3   OH227495   3.765   2.598  16.096 -0.0710 -0.4467 -0.4072
 2027TIP3    H127496   3.728   2.524  16.144 -0.4291  0.9964  1.6424
 2027TIP3    H227497   3.824   2.640  16.158 -0.4217  1.4187 -1.2705
 2028TIP3   OH227498   1.394   4.585  13.916 -0.7540  0.1608 -0.5073
 2028TIP3    H127499   1.300   4.565  13.908 -0.8850  0.4175  0.3435
 2028TIP3    H227500   1.400   4.679  13.898 -0.5188 -0.0470 -1.5761
 2029TIP3   OH227501   4.504   3.021  13.489 -0.0111  0.1419 -0.0510
 2029TIP3    H127502   4.589   3.031  13.532 -0.8766  2.4587  1.2694
 2029TIP3    H227503   4.515   3.064  13.404  0.1560  0.3823  0.0905
 2030TIP3   OH227504   6.567   6.166  12.323 -0.0111  0.0728  0.2698
 2030TIP3    H127505   6.540   6.154  12.414  0.2097  0.6446  0.4160
 2030TIP3    H227506   6.631   6.097  12.307  0.0624  0.0638  0.5950
 2031TIP3   OH227507   0.680   3.699   5.754 -0.5716  0.2053 -0.3351
 2031TIP3    H127508   0.754   3.688   5.695 -0.5578  0.1921 -0.3155
 2031TIP3    H227509   0.603   3.681   5.700 -0.6121  1.0132 -0.5655
 2032TIP3   OH227510   0.469   1.872   0.510  0.0278 -0.0482  0.4204
 2032TIP3    H127511   0.494   1.924   0.586  0.5989 -0.4558  0.5267
 2032TIP3    H227512   0.481   1.781   0.539  1.2140 -0.1936 -0.4581
 2033TIP3   OH227513   5.875   2.037   2.868 -0.3123 -0.0604 -0.8912
 2033TIP3    H127514   5.968   2.060   2.864 -0.4599  0.4705 -1.7055
 2033TIP3    H227515   5.874   1.942   2.857  0.1861 -0.2100  0.2230
 2034TIP3   OH227516   0.290   5.750  13.448 -0.3940 -0.2122 -0.5557
 2034TIP3    H127517   0.372   5.702  13.433  0.1463  0.6993 -0.5739
 2034TIP3    H227518   0.240   5.693  13.507  0.3054 -0.7199 -0.4308
 2035TIP3   OH227519   0.887   6.427  12.458  0.3962 -0.3588 -0.0893
 2035TIP3    H127520   0.832   6.499  12.489  1.3656  0.2749  0.1751
 2035TIP3    H227521   0.923   6.389  12.537 -0.0962 -1.1433 -0.2294
 2036TIP3   OH227522   6.659   6.310  15.904  0.0918  0.1932  0.3667
 2036TIP3    H127523   6.662   6.401  15.872 -0.1209  0.3979  0.9173
 2036TIP3    H227524   6.737   6.269  15.866 -0.0869  0.4621 -0.3071
 2037TIP3   OH227525   3.978   3.789  13.737  0.3482  0.3223 -0.1686
 2037TIP3    H127526   3.938   3.848  13.801  0.4492  0.1904  0.0136
 2037TIP3    H227527   4.001   3.710  13.786 -1.9457 -0.8612 -0.8282
 2038TIP3   OH227528   3.882   6.362   4.040  0.0336  0.3067  0.0373
 2038TIP3    H127529   3.864   6.368   4.134 -1.0071  2.1741 -0.2215
 2038TIP3    H227530   3.795   6.361   3.999  0.3767 -2.7569 -0.8939
 2039TIP3   OH227531   3.190   2.117   3.183 -0.0739 -0.2638  0.1801
 2039TIP3    H127532   3.185   2.142   3.091  1.4385  2.5920  0.7584
 2039TIP3    H227533   3.263   2.056   3.188 -0.9651 -1.4523 -0.6337
 2040TIP3   OH227534   6.702   1.165  11.390 -0.0392 -0.2860  0.1177
 2040TIP3    H127535   6.613   1.166  11.356  0.4159 -2.8979 -1.4113
 2040TIP3    H227536   6.696   1.209  11.475 -3.1590 -1.8990  0.8843
 2041TIP3   OH227537   0.550   1.967  14.385 -0.4610 -0.2379 -0.1597
 2041TIP3    H127538   0.526   2.058  14.369  2.2400  0.5761  0.0970
 2041TIP3    H227539   0.476   1.932  14.436 -0.4279  2.5347  1.9995
 2042TIP3   OH227540   5.242   3.233  14.772  0.6020 -0.3983 -0.0631
 2042TIP3    H127541   5.321   3.286  14.785  0.1643  0.0567  0.8444
 2042TIP3    H227542   5.204   3.266  14.690  1.0822 -0.2842 -0.2438
 2043TIP3   OH227543   3.568   5.224  10.606  0.3607  0.3109 -0.0207
 2043TIP3    H127544   3.641   5.163  10.600  0.6354  0.5095  1.1672
 2043TIP3    H227545   3.495   5.177  10.565  0.9811 -0.1440 -0.6303
 2044TIP3   OH227546   0.920   3.191  15.664  0.2322  0.0105 -0.0098
 2044TIP3    H127547   0.833   3.173  15.626 -0.4735  1.8789  0.6153
 2044TIP3    H227548   0.957   3.260  15.608 -0.6369  2.4933  2.2478
 2045TIP3   OH227549   5.500   3.563  13.676 -0.4070 -0.0993 -0.2566
 2045TIP3    H127550   5.524   3.624  13.746 -0.2506  1.7969 -1.8640
 2045TIP3    H227551   5.578   3.560  13.620 -0.4301 -1.7947 -0.2497
 2046TIP3   OH227552   4.559   6.767   3.154  0.5891  0.3713  0.3203
 2046TIP3    H127553   4.626   6.832   3.172  0.8076  0.9382 -2.1159
 2046TIP3    H227554   4.480   6.818   3.135 -0.6209 -0.2884  3.1731
 2047TIP3   OH227555   2.554   5.500  15.145  0.4431  0.6634  0.3201
 2047TIP3    H127556   2.580   5.476  15.056 -0.1580  2.8883 -0.5076
 2047TIP3    H227557   2.532   5.593  15.140 -0.2423  0.6941  2.6625
 2048TIP3   OH227558   5.419   6.727  12.474  0.5929  0.0453 -0.6249
 2048TIP3    H127559   5.425   6.764  12.386 -2.3050  0.6594 -0.6596
 2048TIP3    H227560   5.359   6.786  12.521 -0.3015 -1.9233  0.8298
 2049TIP3   OH227561   3.234   0.971   6.113  0.4770 -0.0508 -0.3371
 2049TIP3    H127562   3.223   0.891   6.164 -2.7642  0.0612 -0.6577
 2049TIP3    H227563   3.237   1.041   6.179  2.8830 -0.2890 -0.0840
 2050TIP3   OH227564   5.944   4.533   2.807  1.1717  0.1048 -0.3242
 2050TIP3    H127565   5.924   4.593   2.879 -0.2834 -0.5083 -0.1757
 2050TIP3    H227566   6.007   4.471   2.843 -1.6057 -1.9225  1.4080
 2051TIP3   OH227567   5.889   6.658   3.015 -0.5464 -0.2387  0.4183
 2051TIP3    H127568   5.927   6.649   3.102  1.5625 -1.2966 -0.5482
 2051TIP3    H227569   5.829   6.732   3.023 -0.1133 -0.0571  2.6542
 2052TIP3   OH227570   5.229   3.223   1.302  0.1454  0.4495  0.4036
 2052TIP3    H127571   5.174   3.148   1.325 -1.7832  2.3093  2.3593
 2052TIP3    H227572   5.308   3.213   1.355  0.3259 -0.6423 -0.0488
 2053TIP3   OH227573   3.814   0.635  14.737 -0.1545 -0.3263 -0.4819
 2053TIP3    H127574   3.833   0.545  14.710 -1.1690 -0.6723 -0.1060
 2053TIP3    H227575   3.739   0.660  14.683 -1.4242 -0.5926  1.0606
 2054TIP3   OH227576   6.769   4.544  16.050  0.3206 -0.5051 -0.1652
 2054TIP3    H127577   6.677   4.526  16.028 -0.0598  1.2442 -0.1530
 2054TIP3    H227578   6.793   4.476  16.112 -0.5085 -1.8602 -1.2666
 2055TIP3   OH227579   2.486   4.454   4.459 -0.8851  0.0002  0.0224
 2055TIP3    H127580   2.482   4.417   4.547 -0.7775  0.7863  0.3708
 2055TIP3    H227581   2.578   4.477   4.447 -0.5509 -1.6988 -0.9972
 2056TIP3   OH227582   1.849   4.627   1.877 -0.1898 -0.3675 -0.2809
 2056TIP3    H127583   1.881   4.637   1.966 -0.1195 -2.0878 -0.0857
 2056TIP3    H227584   1.927   4.604   1.826 -0.3211  0.1022 -0.7079
 2057TIP3   OH227585   4.461   3.627  13.543 -0.5637  0.0097 -0.1165
 2057TIP3    H127586   4.416   3.685  13.603  0.3199 -0.0466  0.6258
 2057TIP3    H227587   4.475   3.546  13.593 -0.1413 -0.1658 -0.5063
 2058TIP3   OH227588   4.944   0.050  10.565 -0.0246 -0.3195  0.2179
 2058TIP3    H127589   4.984   0.005  10.491  0.5483  1.1069 -0.3770
 2058TIP3    H227590   4.872  -0.007  10.592  0.7576 -1.6362 -0.3912
 2059TIP3   OH227591   4.305   5.670  14.379  0.1137 -0.6774  0.1167
 2059TIP3    H127592   4.332   5.588  14.420 -0.7627 -0.8225  0.4285
 2059TIP3    H227593   4.377   5.731  14.397 -0.5682 -0.4895  2.6400
 2060TIP3   OH227594   3.672   2.983   4.486  0.0347  0.2055 -0.3657
 2060TIP3    H127595   3.732   3.051   4.455  1.7924 -0.9389  0.3461
 2060TIP3    H227596   3.690   2.908   4.429  1.9723 -1.3115  2.0211
 2061TIP3   OH227597   6.709   5.305  14.659  0.8583  0.0556  0.0423
 2061TIP3    H127598   6.738   5.396  14.659  0.9819  0.0193  0.5386
 2061TIP3    H227599   6.726   5.274  14.747 -0.6050  0.0040  0.3418
 2062TIP3   OH227600   6.638   2.250   1.999  0.3568  0.4197  0.1018
 2062TIP3    H127601   6.694   2.240   1.921 -1.7019 -0.8406 -1.3033
 2062TIP3    H227602   6.617   2.343   2.000 -1.6434  0.1219 -2.4808
 2063TIP3   OH227603   2.054   0.872  13.510 -0.4154 -0.2026 -0.1406
 2063TIP3    H127604   2.084   0.784  13.534 -0.5046 -0.8020 -2.0540
 2063TIP3    H227605   2.097   0.930  13.573  2.7149 -1.2441 -1.1555
 2064TIP3   OH227606   2.848   1.915  13.854 -0.2290  0.2715 -0.4816
 2064TIP3    H127607   2.890   1.991  13.893 -2.5681  1.0156  0.7839
 2064TIP3    H227608   2.847   1.933  13.760  1.5685  0.5207 -0.4852
 2065TIP3   OH227609   5.708   6.591   3.312  0.1038 -0.1052  0.2691
 2065TIP3    H127610   5.737   6.516   3.260  0.8652 -0.2150  0.8430
 2065TIP3    H227611   5.612   6.581   3.315  0.1711 -0.9060  0.1133
 2066TIP3   OH227612   3.419   3.396   4.034  0.4862  0.1885 -0.4381
 2066TIP3    H127613   3.486   3.355   3.978 -2.1975  0.4140 -4.1875
 2066TIP3    H227614   3.367   3.323   4.067 -0.9182  0.1575 -2.5237
 2067TIP3   OH227615   0.286   5.464   1.998  0.4392  0.0416 -0.2579
 2067TIP3    H127616   0.257   5.445   1.909 -1.2770  3.9287 -0.7130
 2067TIP3    H227617   0.241   5.399   2.052 -0.9530 -0.4901 -1.9755
 2068TIP3   OH227618   3.341   3.084  14.579 -0.1643 -0.8794 -0.7261
 2068TIP3    H127619   3.415   3.026  14.597 -0.2961 -1.2107 -1.2279
 2068TIP3    H227620   3.295   3.042  14.506 -0.4102 -0.2791 -0.9241
 2069TIP3   OH227621   2.950   5.863  11.744 -0.0935  0.1924 -0.1069
 2069TIP3    H127622   3.040   5.890  11.725 -0.1025  1.7515  1.7521
 2069TIP3    H227623   2.896   5.928  11.699 -0.2016  0.9069  1.0152
 2070TIP3   OH227624   1.204   0.384   6.417 -0.1573 -0.1280 -0.0952
 2070TIP3    H127625   1.292   0.366   6.450 -1.2439 -1.5720  2.3420
 2070TIP3    H227626   1.183   0.471   6.452  0.6762  0.7381 -1.6644
 2071TIP3   OH227627   5.048   0.465   1.547 -0.3874 -0.4708 -0.2434
 2071TIP3    H127628   5.040   0.389   1.605  1.9377 -0.4148  0.2302
 2071TIP3    H227629   5.042   0.540   1.606  0.4330 -0.3781 -0.2692
 2072TIP3   OH227630   1.695   3.419  12.919  0.3761 -0.5516 -0.1371
 2072TIP3    H127631   1.604   3.441  12.936  0.5331  0.2994 -0.3713
 2072TIP3    H227632   1.746   3.486  12.963  0.8337  0.3123 -1.8701
 2073TIP3   OH227633   4.157   6.442  13.060  0.2817  0.3584 -0.0051
 2073TIP3    H127634   4.063   6.422  13.054 -0.0656  1.6040  0.8373
 2073TIP3    H227635   4.182   6.416  13.148  0.3790  1.3235  0.2633
 2074TIP3   OH227636   2.437   1.492   1.178  0.0965  0.3864 -0.2544
 2074TIP3    H127637   2.412   1.430   1.247 -0.0511  1.1787  0.4292
 2074TIP3    H227638   2.355   1.538   1.158 -0.0396 -0.3871 -1.5505
 2075TIP3   OH227639   3.253   4.440  14.589  0.2645  0.0838 -0.1356
 2075TIP3    H127640   3.310   4.390  14.647  2.0115  0.5155 -1.4042
 2075TIP3    H227641   3.173   4.388  14.584  0.8512 -0.9937  1.0098
 2076TIP3   OH227642   6.053   5.848  10.906  0.1473  0.0037 -0.1678
 2076TIP3    H127643   6.104   5.848  10.825  0.0810  1.2464 -0.2223
 2076TIP3    H227644   5.979   5.906  10.889  0.9552  1.5501  1.2575
 2077TIP3   OH227645   1.004   4.682   4.693  0.3399 -0.1312  0.4732
 2077TIP3    H127646   1.007   4.763   4.644  0.8280 -0.5475 -0.2052
 2077TIP3    H227647   0.949   4.701   4.769  0.1631  0.7207  0.1343
 2078TIP3   OH227648   5.829   3.508  12.972 -0.1367 -0.6591 -0.5609
 2078TIP3    H127649   5.799   3.421  13.000  0.6422 -1.2980 -1.6364
 2078TIP3    H227650   5.919   3.514  13.007 -0.1736 -0.3026 -0.5268
 2079TIP3   OH227651   1.967   0.356  15.527 -0.1778  0.2820  0.4363
 2079TIP3    H127652   1.996   0.320  15.611  0.4504 -0.0843  0.0754
 2079TIP3    H227653   1.913   0.287  15.489 -0.3623  0.4002  0.4826
 2080TIP3   OH227654   6.069   5.954  14.732 -0.0010  0.7214  0.1769
 2080TIP3    H127655   6.064   5.879  14.790 -1.9054 -0.4988 -1.4448
 2080TIP3    H227656   6.160   5.985  14.741  0.1429 -0.1763  2.7413
 2081TIP3   OH227657   1.023   3.223   1.796 -0.0865 -0.4772  0.0562
 2081TIP3    H127658   0.995   3.148   1.743  1.3950  0.0549 -1.6166
 2081TIP3    H227659   0.942   3.266   1.822 -0.9102 -1.4138 -0.8477
 2082TIP3   OH227660   6.403   6.526  15.959 -0.1222 -0.1262  1.1503
 2082TIP3    H127661   6.485   6.529  15.909 -0.4326 -0.6267  0.6031
 2082TIP3    H227662   6.411   6.450  16.015 -0.6522 -0.8223  0.3067
 2083TIP3   OH227663   1.474   3.509   1.756 -0.5125  0.0773 -0.4214
 2083TIP3    H127664   1.539   3.572   1.787 -1.7171  0.8980  0.5583
 2083TIP3    H227665   1.520   3.456   1.691  0.9444  1.0241 -0.1992
 2084TIP3   OH227666   1.479   5.193   2.651  0.0122 -0.1179 -0.0286
 2084TIP3    H127667   1.497   5.282   2.680 -0.5740  0.5581 -1.6277
 2084TIP3    H227668   1.419   5.158   2.716  2.2139 -0.3192  2.0635
 2085TIP3   OH227669   2.926   4.922  10.521 -0.6518 -0.1645 -0.5757
 2085TIP3    H127670   2.838   4.914  10.485 -1.7131  1.4085  1.4052
 2085TIP3    H227671   2.942   5.017  10.523  1.8025 -0.4397 -2.3541
 2086TIP3   OH227672   5.208   2.136   5.980 -0.6143  0.2458  0.1550
 2086TIP3    H127673   5.292   2.177   6.000 -0.3724  0.5808 -1.3957
 2086TIP3    H227674   5.148   2.210   5.965 -0.6735  0.0352 -0.7018
 2087TIP3   OH227675   1.365   5.765  15.100 -0.2728 -0.3469  0.3924
 2087TIP3    H127676   1.313   5.805  15.169 -0.4664  0.4442 -0.1808
 2087TIP3    H227677   1.423   5.836  15.071  1.3357 -1.2785  1.2028
 2088TIP3   OH227678   1.055   3.231   5.483 -0.2392  0.5416 -0.2246
 2088TIP3    H127679   0.983   3.172   5.459 -0.5942  1.3240 -1.1553
 2088TIP3    H227680   1.034   3.313   5.438  0.8105  1.0409  0.1731
 2089TIP3   OH227681   1.183   4.252   3.887 -0.1817 -0.1932 -0.7341
 2089TIP3    H127682   1.219   4.314   3.824 -0.2190 -0.4857 -1.0491
 2089TIP3    H227683   1.253   4.188   3.900 -0.7063 -0.9721 -1.6328
 2090TIP3   OH227684   0.878   4.416   4.639 -0.9456 -0.1216  0.0113
 2090TIP3    H127685   0.905   4.325   4.648 -1.7941 -0.3892 -0.0002
 2090TIP3    H227686   0.855   4.425   4.546  2.1196  0.9881 -0.7305
 2091TIP3   OH227687   2.573   4.680  12.108 -0.0118  0.2309 -0.2657
 2091TIP3    H127688   2.606   4.756  12.060  1.3017 -0.3561 -0.3283
 2091TIP3    H227689   2.642   4.614  12.100  0.7671  0.4062  3.2486
 2092TIP3   OH227690   0.579   1.177  14.168  0.1137 -0.1309 -0.0094
 2092TIP3    H127691   0.496   1.130  14.169 -0.6580  0.9798 -2.2401
 2092TIP3    H227692   0.561   1.256  14.116  2.4612  0.3658 -0.2126
 2093TIP3   OH227693   3.786   0.776   5.792 -0.5889  0.9006  0.1514
 2093TIP3    H127694   3.737   0.707   5.747 -1.7220  0.6021  1.7874
 2093TIP3    H227695   3.875   0.740   5.801 -0.7444  0.3388 -0.4389
 2094TIP3   OH227696   6.644   5.527  16.671  0.4625  0.0138 -0.4364
 2094TIP3    H127697   6.638   5.581  16.592 -2.2133 -1.3182 -1.2925
 2094TIP3    H227698   6.702   5.455  16.646  0.6734  0.2804 -0.7324
 2095TIP3   OH227699   5.462   2.597   0.251  0.5651 -0.2104 -0.1582
 2095TIP3    H127700   5.532   2.662   0.240  0.9305 -0.5249  0.2724
 2095TIP3    H227701   5.399   2.618   0.182  0.2338  1.1686  0.5391
 2096TIP3   OH227702   1.784   3.225  16.685 -0.0186 -0.2134  0.0748
 2096TIP3    H127703   1.733   3.152  16.651 -1.2871  0.4187  0.5213
 2096TIP3    H227704   1.787   3.211  16.780  1.0833 -0.4978  0.0090
 2097TIP3   OH227705   6.500   4.121  15.152 -0.3265 -0.5200  0.1215
 2097TIP3    H127706   6.538   4.126  15.240 -0.5718 -0.4163  0.2200
 2097TIP3    H227707   6.518   4.031  15.125 -0.8229 -0.7480  0.5353
 2098TIP3   OH227708   1.623   3.420  10.557 -0.2037 -0.2460 -0.6189
 2098TIP3    H127709   1.528   3.432  10.559 -0.0831  1.1915 -1.6631
 2098TIP3    H227710   1.658   3.509  10.557  1.1933 -0.7543  0.5257
 2099TIP3   OH227711   3.649   6.298   5.933 -0.0188  0.4802 -0.0762
 2099TIP3    H127712   3.663   6.212   5.894  3.9276  0.6559  0.5978
 2099TIP3    H227713   3.589   6.282   6.006  0.1502 -1.5607 -0.3280
 2100TIP3   OH227714   0.428   4.214   1.328 -0.0460  0.0515  0.2501
 2100TIP3    H127715   0.384   4.222   1.244 -0.6586 -1.1468  0.4345
 2100TIP3    H227716   0.518   4.242   1.311  0.0120 -0.7967 -0.9539
 2101TIP3   OH227717   4.272   5.678   0.225  0.6512  0.3641  0.4327
 2101TIP3    H127718   4.212   5.648   0.294  0.2301 -0.3462 -0.2307
 2101TIP3    H227719   4.241   5.634   0.146  0.5144  1.9505 -0.4186
 2102TIP3   OH227720   6.026   1.241   5.656  0.4429 -0.5948  0.6249
 2102TIP3    H127721   6.010   1.269   5.746  0.5980  0.1749  0.4156
 2102TIP3    H227722   6.117   1.266   5.638  0.2278 -0.1896  0.0536
 2103TIP3   OH227723   6.130   3.774   0.328  0.3579 -0.6450 -0.1646
 2103TIP3    H127724   6.056   3.821   0.289  1.7563  1.6705 -0.1847
 2103TIP3    H227725   6.164   3.720   0.257  0.1765  0.1676 -0.8870
 2104TIP3   OH227726   3.765   5.820   1.348 -0.2871  0.1022 -0.3229
 2104TIP3    H127727   3.762   5.836   1.442 -1.4695 -0.7043 -0.2051
 2104TIP3    H227728   3.726   5.899   1.309 -0.0124  0.3344 -0.1309
 2105TIP3   OH227729   2.984   5.617   3.505  0.2002  0.2478  0.4545
 2105TIP3    H127730   3.012   5.536   3.548 -2.1407 -1.0729 -0.3721
 2105TIP3    H227731   2.978   5.680   3.577 -2.8466 -1.6902  2.1236
 2106TIP3   OH227732   1.353   4.793  13.407  0.8446  0.0178  0.6108
 2106TIP3    H127733   1.411   4.866  13.430  0.0318  0.7389  0.4558
 2106TIP3    H227734   1.335   4.750  13.491 -1.3527  2.0646  1.2959
 2107TIP3   OH227735   1.814   5.333   5.900 -0.2771 -0.0769 -0.0254
 2107TIP3    H127736   1.747   5.316   5.835  0.2484 -0.0620 -0.5819
 2107TIP3    H227737   1.887   5.276   5.875 -0.3454 -0.6380  0.9907
 2108TIP3   OH227738   0.974   0.903   4.493 -0.1271 -0.3810 -0.2380
 2108TIP3    H127739   0.881   0.890   4.471 -0.5618  1.0215  0.6689
 2108TIP3    H227740   1.015   0.925   4.409 -0.9513  0.6950 -0.3771
 2109TIP3   OH227741   2.991   0.267   1.220 -0.4641  0.8272  0.0275
 2109TIP3    H127742   2.970   0.309   1.137 -0.0143 -0.8012 -0.9557
 2109TIP3    H227743   3.067   0.315   1.253 -0.9714  1.8265 -0.2228
 2110TIP3   OH227744   5.441   6.212  15.625  0.3387 -0.6878  0.5455
 2110TIP3    H127745   5.390   6.284  15.587 -1.2396 -1.8182  0.4683
 2110TIP3    H227746   5.488   6.174  15.551  0.9278  0.0336  0.5331
 2111TIP3   OH227747   6.530   0.127  11.200 -0.0028 -0.3362 -0.0096
 2111TIP3    H127748   6.497   0.043  11.232 -0.6908 -0.3082 -0.6262
 2111TIP3    H227749   6.576   0.165  11.275  0.6250 -1.4209  0.1699
 2112TIP3   OH227750   4.767   4.187   4.112  0.4604 -0.0563  0.9135
 2112TIP3    H127751   4.687   4.138   4.129  0.0017  0.1639 -0.5242
 2112TIP3    H227752   4.830   4.153   4.176 -0.0764 -1.9885  0.4687
 2113TIP3   OH227753   6.402   4.635  15.400 -0.3557 -1.0801 -0.1120
 2113TIP3    H127754   6.424   4.695  15.471  1.9485 -1.4495 -0.4445
 2113TIP3    H227755   6.309   4.614  15.414 -1.0237  1.8613  0.4873
 2114TIP3   OH227756   5.295   5.728  12.001  0.1419 -0.2723  0.3859
 2114TIP3    H127757   5.372   5.776  11.973 -0.6284  0.0731 -1.2297
 2114TIP3    H227758   5.293   5.650  11.945 -1.0838  0.1014 -0.1137
 2115TIP3   OH227759   1.466   2.792   2.137 -0.0427  0.0114  0.2424
 2115TIP3    H127760   1.417   2.821   2.214 -1.5497 -1.9612  0.1023
 2115TIP3    H227761   1.478   2.698   2.150 -1.0984 -0.5418 -2.3085
 2116TIP3   OH227762   4.669   2.632  15.881  0.3675 -0.0016 -0.4240
 2116TIP3    H127763   4.734   2.609  15.814 -1.2351 -0.8335 -1.7659
 2116TIP3    H227764   4.604   2.562  15.876  0.8466 -0.8811  3.0119
 2117TIP3   OH227765   6.022   3.863  15.074  0.3089 -0.4243  0.3162
 2117TIP3    H127766   6.104   3.839  15.031  0.2819  0.1926 -0.0923
 2117TIP3    H227767   5.957   3.867  15.004 -0.2400 -1.5707  0.7271
 2118TIP3   OH227768   0.775   0.345  13.423  0.5423 -0.3319  0.3407
 2118TIP3    H127769   0.844   0.366  13.487 -0.3064  0.4058  1.0375
 2118TIP3    H227770   0.713   0.417  13.430 -2.1657 -2.6422  2.3533
 2119TIP3   OH227771   6.361   6.284   1.443  0.1420  0.0417 -0.0844
 2119TIP3    H127772   6.426   6.258   1.377  0.3430 -0.7828  0.4285
 2119TIP3    H227773   6.282   6.237   1.419  0.2029 -0.2266  0.2284
 2120TIP3   OH227774   2.826   1.198  14.028 -0.3997  0.2896  0.7199
 2120TIP3    H127775   2.798   1.256  13.957  2.1384  0.9605  0.1533
 2120TIP3    H227776   2.779   1.116  14.012 -0.8086  0.8213 -1.0273
 2121TIP3   OH227777   0.629   2.950   1.099 -0.3028 -0.6459  0.2651
 2121TIP3    H127778   0.653   2.890   1.169  0.4057 -0.2951  0.3310
 2121TIP3    H227779   0.535   2.935   1.086 -0.1470 -1.7145  0.3147
 2122TIP3   OH227780   5.112   0.212  13.776 -0.8213 -0.6624  0.1147
 2122TIP3    H127781   5.171   0.156  13.827  1.1788 -0.7434 -2.1489
 2122TIP3    H227782   5.138   0.302  13.800 -0.4478 -0.7004 -0.1429
 2123TIP3   OH227783   6.150   2.618  12.652 -0.2888  0.0215  0.0963
 2123TIP3    H127784   6.200   2.676  12.708  0.4297 -0.9075  0.4493
 2123TIP3    H227785   6.215   2.578  12.593 -0.6138 -1.0623  0.4412
 2124TIP3   OH227786   3.767   0.179  13.414  0.1009 -0.3533 -0.1323
 2124TIP3    H127787   3.688   0.169  13.468  1.3040 -1.7663  1.4502
 2124TIP3    H227788   3.733   0.190  13.325 -1.8855 -2.1552  0.3061
 2125TIP3   OH227789   1.208   5.566   0.087  0.6431  0.0875  0.5439
 2125TIP3    H127790   1.240   5.476   0.090  0.5320  0.0431  0.4056
 2125TIP3    H227791   1.116   5.560   0.109  0.5917  0.1452  0.3479
 2126TIP3   OH227792   2.160   2.843  15.591 -0.0479 -0.3171  0.2194
 2126TIP3    H127793   2.118   2.909  15.535  0.3703 -0.0694  0.1921
 2126TIP3    H227794   2.178   2.770  15.532  0.3917 -0.0577  0.0276
 2127TIP3   OH227795   3.407   0.199   2.808 -0.1079  0.3940  0.1334
 2127TIP3    H127796   3.393   0.137   2.880  0.3934  1.2375  0.9679
 2127TIP3    H227797   3.491   0.174   2.771  0.6191  1.2160  1.1611
 2128TIP3   OH227798   6.153   5.689  14.184 -0.2946 -0.3467 -0.1571
 2128TIP3    H127799   6.214   5.665  14.114 -0.7281 -0.1554 -0.6084
 2128TIP3    H227800   6.137   5.608  14.232  1.6502 -0.0952  1.0593
 2129TIP3   OH227801   4.692   2.135   3.212  0.2587  0.1731  0.0404
 2129TIP3    H127802   4.754   2.160   3.281 -1.8492  1.7704  1.4866
 2129TIP3    H227803   4.642   2.215   3.194 -2.3030 -1.3294 -0.0182
 2130TIP3   OH227804   6.422   0.572   1.371  0.2191  0.1139 -0.4229
 2130TIP3    H127805   6.457   0.652   1.330  0.6261  0.9225  1.3795
 2130TIP3    H227806   6.410   0.511   1.299 -0.8286  2.0489 -2.0044
 2131TIP3   OH227807   6.348   3.834  11.148  0.4163  0.1289 -0.1406
 2131TIP3    H127808   6.437   3.819  11.181  0.7037  1.8861 -0.0402
 2131TIP3    H227809   6.352   3.808  11.056  0.8530 -0.4262  0.0321
 2132TIP3   OH227810   3.503   2.110  15.914  0.6348 -0.1237 -0.4039
 2132TIP3    H127811   3.516   2.187  15.859  0.4452  0.2065  0.0023
 2132TIP3    H227812   3.512   2.035  15.855 -3.8617  0.2420 -1.8948
 2133TIP3   OH227813   1.824   3.488  16.274 -0.7268  0.4099  0.1598
 2133TIP3    H127814   1.908   3.533  16.262  0.3178 -1.4826 -0.0963
 2133TIP3    H227815   1.834   3.406  16.224 -3.3274  0.8317 -1.1978
 2134TIP3   OH227816   4.307   1.468   2.917  0.3367  0.4223 -0.6420
 2134TIP3    H127817   4.272   1.393   2.966  0.1849  0.7287 -0.2803
 2134TIP3    H227818   4.280   1.545   2.968  2.1060  0.6433  0.0101
 2135TIP3   OH227819   0.831   3.000  11.504 -0.1232  0.3977  0.0402
 2135TIP3    H127820   0.879   3.074  11.541  1.2563 -0.5752  0.2346
 2135TIP3    H227821   0.745   3.004  11.547  0.2937  1.2697  0.8248
 2136TIP3   OH227822   5.018   6.132   2.922  0.2109  0.1102 -0.0392
 2136TIP3    H127823   5.097   6.134   2.977  0.0619  2.1088  0.1567
 2136TIP3    H227824   5.048   6.093   2.839  0.8177 -1.3606  0.8298
 2137TIP3   OH227825   2.627   6.297   0.118 -0.2401  0.1285 -0.1311
 2137TIP3    H127826   2.665   6.216   0.085 -0.6974  0.5426 -1.7394
 2137TIP3    H227827   2.540   6.301   0.079 -1.6481 -0.2994  2.6847
 2138TIP3   OH227828   4.736   3.349  12.828  0.0336 -0.0814 -0.2040
 2138TIP3    H127829   4.747   3.443  12.821 -0.7040 -0.0170 -0.6833
 2138TIP3    H227830   4.703   3.335  12.918 -2.0633  0.3785 -0.8462
 2139TIP3   OH227831   0.030   5.560  13.114 -0.7336  0.1845 -0.4658
 2139TIP3    H127832   0.068   5.495  13.174  1.1330  0.3243 -1.4020
 2139TIP3    H227833   0.054   5.644  13.151  1.2998  0.2737 -1.8305
 2140TIP3   OH227834   4.326   6.675   6.222 -0.3650 -0.1038  0.5262
 2140TIP3    H127835   4.267   6.735   6.267  0.7812 -0.1284  2.1467
 2140TIP3    H227836   4.407   6.724   6.212 -0.3473 -0.3873 -0.8333
 2141TIP3   OH227837   6.417   6.567   1.364  0.4078 -0.0939  0.0730
 2141TIP3    H127838   6.499   6.608   1.392 -0.7749  0.5085  2.9674
 2141TIP3    H227839   6.418   6.481   1.406  0.0054 -0.5064 -0.7398
 2142TIP3   OH227840   1.097   0.192  14.206  0.1435  0.0735  0.1173
 2142TIP3    H127841   1.071   0.266  14.151  2.2970  1.4193  0.7743
 2142TIP3    H227842   1.053   0.117  14.167  0.0939  1.2628 -2.3106
 2143TIP3   OH227843   2.810   1.739  15.887 -0.0055  0.0726 -0.0221
 2143TIP3    H127844   2.715   1.731  15.890 -0.0310  0.0067  3.4550
 2143TIP3    H227845   2.842   1.654  15.919  1.2059  0.2111 -0.8214
 2144TIP3   OH227846   5.188   4.202  10.776  0.2302  0.0860 -0.1937
 2144TIP3    H127847   5.190   4.107  10.787  0.3698  0.0247 -0.7243
 2144TIP3    H227848   5.237   4.236  10.851 -0.8999 -0.1908  0.6949
 2145TIP3   OH227849   0.854   5.153   4.105 -0.1130 -0.5409 -0.6487
 2145TIP3    H127850   0.770   5.194   4.125 -0.8491 -2.3052  0.1536
 2145TIP3    H227851   0.916   5.225   4.101 -1.6596  0.8091 -1.2538
 2146TIP3   OH227852   1.592   5.886  16.586 -0.6950 -0.1015  0.1806
 2146TIP3    H127853   1.667   5.839  16.550 -0.3695 -0.6719  1.5586
 2146TIP3    H227854   1.572   5.952  16.519  0.4955 -0.4783 -0.5923
 2147TIP3   OH227855   6.769   1.336   5.505  0.7677  0.3795 -0.5013
 2147TIP3    H127856   6.689   1.332   5.452  1.9738 -0.6718 -2.3487
 2147TIP3    H227857   6.751   1.280   5.580 -0.2031  0.1104 -0.9244
 2148TIP3   OH227858   4.591   3.359   4.284  0.2556  0.1199  0.1000
 2148TIP3    H127859   4.570   3.428   4.348 -1.9911 -0.0395 -0.4047
 2148TIP3    H227860   4.627   3.407   4.210  0.1552  0.6066  0.3567
 2149TIP3   OH227861   2.638   4.401  14.740 -0.1925 -0.1337 -0.1437
 2149TIP3    H127862   2.656   4.342  14.667  0.0641  2.1263 -2.0336
 2149TIP3    H227863   2.543   4.399  14.749 -0.0905 -1.8529  0.7551
 2150TIP3   OH227864   0.738   6.467  14.805 -0.3999 -0.5272  0.0958
 2150TIP3    H127865   0.689   6.513  14.873 -0.1369 -0.5226  0.2829
 2150TIP3    H227866   0.751   6.379  14.839  2.0774  0.1971  1.2769
 2151TIP3   OH227867   3.222   4.900  14.345 -0.3311 -0.3981 -0.0719
 2151TIP3    H127868   3.205   4.814  14.382  1.8284 -0.1836  1.6415
 2151TIP3    H227869   3.187   4.961  14.410  1.4752 -0.0229  0.6180
 2152TIP3   OH227870   2.578   3.671   2.016 -0.2128 -0.1864 -0.3060
 2152TIP3    H127871   2.513   3.603   2.033  0.1168 -0.2022  1.0416
 2152TIP3    H227872   2.571   3.730   2.091  3.2446 -1.7259  1.4600
 2153TIP3   OH227873   6.368   2.332   5.067 -0.6308 -0.3860 -0.0935
 2153TIP3    H127874   6.398   2.244   5.044  0.5764  0.1486 -0.6446
 2153TIP3    H227875   6.440   2.370   5.116 -1.5511 -0.0427  1.0447
 2154TIP3   OH227876   3.059   2.228   5.718 -0.1012 -0.3132  0.6474
 2154TIP3    H127877   3.040   2.276   5.799  1.2792  1.3232  0.0480
 2154TIP3    H227878   2.982   2.172   5.706 -0.8416  0.2032  2.4914
 2155TIP3   OH227879   4.467   6.196   4.087  0.6578  0.2623 -0.6663
 2155TIP3    H127880   4.402   6.126   4.096 -0.1522  1.2409  1.8534
 2155TIP3    H227881   4.527   6.182   4.160  2.5375  0.2273 -2.1380
 2156TIP3   OH227882   1.188   1.547   2.811  0.3182 -0.1028 -0.1122
 2156TIP3    H127883   1.270   1.501   2.828 -0.0496 -0.2266  1.4926
 2156TIP3    H227884   1.125   1.509   2.873 -0.7393  0.5483 -0.7519
 2157TIP3   OH227885   6.006   6.152  14.041  0.5416 -0.1452  0.2656
 2157TIP3    H127886   5.912   6.152  14.022  0.6409 -3.9175 -1.0969
 2157TIP3    H227887   6.011   6.147  14.136 -0.4662  2.2858  0.5344
 2158TIP3   OH227888   2.867   0.498  14.427  0.0743  0.0771 -0.1418
 2158TIP3    H127889   2.781   0.526  14.458  0.7601  0.8439  1.1408
 2158TIP3    H227890   2.864   0.403  14.431 -0.4884  0.1151  0.5311
 2159TIP3   OH227891   2.976   6.519   3.907 -0.1829 -0.0823  0.8140
 2159TIP3    H127892   2.887   6.553   3.895 -0.2463 -0.0476  1.3515
 2159TIP3    H227893   2.994   6.469   3.827 -0.0157  1.3530 -0.0812
 2160TIP3   OH227894   3.734   2.273   3.565  0.2354  0.0278 -0.8137
 2160TIP3    H127895   3.727   2.178   3.558 -0.7226 -0.0798  0.9396
 2160TIP3    H227896   3.774   2.288   3.651 -0.7985  1.2201 -0.5087
 2161TIP3   OH227897   1.020   2.931  16.128 -0.1954  0.6972 -0.1002
 2161TIP3    H127898   1.004   2.878  16.206 -1.9587  2.3543  0.7412
 2161TIP3    H227899   0.983   2.880  16.056  2.1630 -1.2290 -0.0671
 2162TIP3   OH227900   4.503   0.178  13.957  0.5501 -0.8846  0.3429
 2162TIP3    H127901   4.557   0.243  13.912 -0.1846 -0.9217 -0.6303
 2162TIP3    H227902   4.511   0.200  14.050  0.5232  0.4321  0.0515
 2163TIP3   OH227903   1.448   3.745   4.692  0.2762  0.2449  0.1409
 2163TIP3    H127904   1.450   3.710   4.781 -0.7183  0.5125  0.2864
 2163TIP3    H227905   1.539   3.749   4.665  0.6589  0.9119  1.4566
 2164TIP3   OH227906   4.104   1.768   4.819  0.3314 -0.6681 -0.1627
 2164TIP3    H127907   4.022   1.726   4.845 -0.3102  0.1042 -0.8538
 2164TIP3    H227908   4.150   1.785   4.901  1.0232 -3.4216  0.1162
 2165TIP3   OH227909   4.170   2.961   1.205 -0.5249 -0.3884  0.1421
 2165TIP3    H127910   4.227   3.019   1.255  1.3684 -0.9328 -1.3035
 2165TIP3    H227911   4.124   3.019   1.144  0.7864 -0.2831 -0.7709
 2166TIP3   OH227912   5.394   1.868   0.155 -0.0313 -0.6284  0.3196
 2166TIP3    H127913   5.404   1.783   0.113  1.9822  0.4119 -1.4995
 2166TIP3    H227914   5.317   1.906   0.114 -0.1607 -1.0332  0.1807
 2167TIP3   OH227915   5.280   0.865   3.969 -0.8618  0.6490 -0.1445
 2167TIP3    H127916   5.190   0.857   3.937 -1.1021  1.8092  0.1775
 2167TIP3    H227917   5.281   0.817   4.052 -0.4727 -1.5955 -1.3685
 2168TIP3   OH227918   2.712   3.859   0.081 -0.0977 -0.3474 -0.0066
 2168TIP3    H127919   2.750   3.772   0.071 -0.6567 -0.4020 -1.9990
 2168TIP3    H227920   2.622   3.851   0.049 -0.5179  0.7077  0.8498
 2169TIP3   OH227921   0.555   5.128   0.203  0.4870  0.2172  0.5056
 2169TIP3    H127922   0.551   5.066   0.276 -0.8070  1.1006  1.2260
 2169TIP3    H227923   0.501   5.088   0.135  0.3587  0.1536  0.6446
 2170TIP3   OH227924   4.766   1.706   4.012 -0.2601  0.0248 -0.2257
 2170TIP3    H127925   4.761   1.653   4.092  1.3584 -0.6971 -0.5695
 2170TIP3    H227926   4.800   1.790   4.042  3.8905 -1.3403 -0.4996
 2171TIP3   OH227927   3.007   3.381   2.885  0.5941  0.1170  0.2975
 2171TIP3    H127928   2.988   3.297   2.927  1.4277 -0.2432 -0.0343
 2171TIP3    H227929   3.102   3.388   2.887  0.5143  1.2199  0.6214
 2172TIP3   OH227930   4.854   0.839  17.225 -0.2171  0.3893  0.2267
 2172TIP3    H127931   4.847   0.748  17.254  0.1034  0.1852 -0.3404
 2172TIP3    H227932   4.765   0.875  17.237 -0.5396 -0.2237 -0.3288
 2173TIP3   OH227933   4.703   0.116   6.032  0.0076 -0.4917  0.1501
 2173TIP3    H127934   4.709   0.203   5.993  0.2046 -0.7219 -0.3582
 2173TIP3    H227935   4.665   0.062   5.962  0.3402 -0.9081  0.2858
 2174TIP3   OH227936   6.786   3.955   6.691  0.0794  0.1910 -0.4816
 2174TIP3    H127937   6.762   3.876   6.641 -0.4807 -0.0554  0.1572
 2174TIP3    H227938   6.736   3.947   6.772 -0.7926  1.7184 -0.8286
 2175TIP3   OH227939   0.616   4.162   5.223  0.2185 -0.2664 -0.3963
 2175TIP3    H127940   0.582   4.075   5.202 -0.0717 -0.0264 -0.9487
 2175TIP3    H227941   0.548   4.222   5.193 -0.7924  0.0858  2.3040
 2176TIP3   OH227942   0.875   6.556  15.652 -0.6647  0.2429  0.2131
 2176TIP3    H127943   0.829   6.606  15.719 -2.7853 -1.8978  0.4435
 2176TIP3    H227944   0.854   6.601  15.570 -2.2176  0.0228  0.4590
 2177TIP3   OH227945   6.020   1.700  11.953 -0.6290  0.1114 -0.1706
 2177TIP3    H127946   6.039   1.737  12.039 -2.2963  1.1122 -0.1961
 2177TIP3    H227947   6.009   1.606  11.969  0.3900  0.0898  0.4656
 2178TIP3   OH227948   6.526   5.928  10.587  0.3523 -0.2403 -0.2127
 2178TIP3    H127949   6.515   6.023  10.582  1.9316  0.0036  0.3631
 2178TIP3    H227950   6.565   5.913  10.673 -0.5975 -1.5133  0.0290
 2179TIP3   OH227951   4.987   0.809  13.897 -0.2965 -0.0897 -0.0242
 2179TIP3    H127952   5.008   0.721  13.929 -2.3039 -0.3659  0.6326
 2179TIP3    H227953   4.917   0.796  13.833 -0.0219  0.9699 -0.5726
 2180TIP3   OH227954   3.296   0.573   4.429  0.0115  0.0493 -0.1539
 2180TIP3    H127955   3.286   0.523   4.349  1.1875  0.2295 -0.4338
 2180TIP3    H227956   3.273   0.512   4.499  0.6686 -0.6467 -0.5384
 2181TIP3   OH227957   4.074   6.087  13.115 -0.1033 -0.4605  0.3217
 2181TIP3    H127958   4.019   6.165  13.125  0.5937  0.1834 -0.7935
 2181TIP3    H227959   4.028   6.033  13.051 -1.2780 -1.6338  2.0623
 2182TIP3   OH227960   3.717   5.890  11.288  0.5231 -0.3998  0.2147
 2182TIP3    H127961   3.797   5.884  11.237 -0.1676  0.3378 -0.9987
 2182TIP3    H227962   3.651   5.843  11.236 -0.2749  0.6735  0.2044
 2183TIP3   OH227963   2.045   2.845  12.540 -0.1899 -0.0427 -0.3314
 2183TIP3    H127964   2.114   2.852  12.474 -1.0113  1.2345 -1.1031
 2183TIP3    H227965   2.063   2.917  12.601 -0.1518 -0.4531  0.1457
 2184TIP3   OH227966   3.731   6.722  13.167  0.1053 -0.3903  0.6015
 2184TIP3    H127967   3.704   6.683  13.084  1.8563  1.0006 -0.6864
 2184TIP3    H227968   3.665   6.789  13.185 -0.1096 -0.4908  0.1969
 2185TIP3   OH227969   0.998   5.010  10.937 -0.0399 -0.1822  0.0984
 2185TIP3    H127970   0.975   4.975  10.851 -0.1786  0.4518 -0.1325
 2185TIP3    H227971   1.071   5.071  10.919 -1.4685  1.6211  0.0853
 2186TIP3   OH227972   5.915   6.428  10.868 -0.0583 -0.4582 -0.2329
 2186TIP3    H127973   5.865   6.440  10.949 -1.4107  0.1348 -1.1184
 2186TIP3    H227974   5.967   6.508  10.860 -1.2815  0.3118 -0.8376
 2187TIP3   OH227975   1.813   0.286   5.465  0.3141  0.2780 -0.3104
 2187TIP3    H127976   1.767   0.334   5.534 -0.5256 -1.5269  0.4316
 2187TIP3    H227977   1.749   0.224   5.431  1.4203 -0.4862 -1.0871
 2188TIP3   OH227978   2.141   0.507  13.091 -0.0136  0.1608  0.0400
 2188TIP3    H127979   2.129   0.519  12.997 -0.1329  0.7470  0.1305
 2188TIP3    H227980   2.096   0.424  13.110 -1.5874  0.9447 -0.1067
 2189TIP3   OH227981   6.763   0.879  11.400  0.1464 -0.0550 -0.3104
 2189TIP3    H127982   6.752   0.973  11.388 -0.2396  0.1715  1.5311
 2189TIP3    H227983   6.675   0.843  11.391 -0.1350  0.1078  1.4661
 2190TIP3   OH227984   3.731   2.487   5.434  0.3456 -0.1155 -0.1178
 2190TIP3    H127985   3.702   2.568   5.394 -0.7407 -0.4894 -0.1122
 2190TIP3    H227986   3.653   2.451   5.476  1.1765 -0.3237  1.3387
 2191TIP3   OH227987   3.834   1.483  13.389  0.0012  0.1108 -0.1586
 2191TIP3    H127988   3.888   1.554  13.355  0.5418 -0.2381 -0.0378
 2191TIP3    H227989   3.890   1.436  13.450 -0.2400 -0.6053 -0.4658
 2192TIP3   OH227990   4.130   1.347   5.582  0.0063  0.4843 -0.1789
 2192TIP3    H127991   4.098   1.315   5.498 -1.0186 -1.4791  0.8746
 2192TIP3    H227992   4.185   1.275   5.615 -1.2273  0.3331  1.6765
 2193TIP3   OH227993   3.267   4.732   1.262 -0.3825  0.3300  0.4401
 2193TIP3    H127994   3.225   4.684   1.190 -1.8807  1.4030  0.5787
 2193TIP3    H227995   3.230   4.820   1.258  1.9304  1.3877  0.5198
 2194TIP3   OH227996   3.009   1.520   3.570 -0.1237  0.5422 -0.2082
 2194TIP3    H127997   3.037   1.609   3.592 -1.7501  1.0129  0.0571
 2194TIP3    H227998   2.966   1.488   3.649 -1.7594  0.4702 -1.0734
 2195TIP3   OH227999   0.271   0.170  13.353 -0.5076  0.5983  0.4335
 2195TIP3    H128000   0.332   0.242  13.371 -1.2291  1.9127 -1.8985
 2195TIP3    H228001   0.189   0.213  13.328 -0.6954 -0.9468 -1.9522
 2196TIP3   OH228002   5.398   4.934  12.570 -0.0865  0.7640 -0.1497
 2196TIP3    H128003   5.481   4.963  12.608  0.7461 -0.7890 -0.6802
 2196TIP3    H228004   5.391   4.984  12.488  0.7495  0.3442 -0.4950
 2197TIP3   OH228005   0.030   4.187   4.258  0.0895  0.2808 -0.3153
 2197TIP3    H128006  -0.033   4.122   4.228 -0.3729 -1.2954  3.4481
 2197TIP3    H228007  -0.009   4.271   4.236 -3.2833 -0.6271  1.4903
 2198TIP3   OH228008   1.774   4.200  13.879 -0.8781 -0.9478 -0.2844
 2198TIP3    H128009   1.826   4.128  13.844  0.4017 -0.3087  0.2503
 2198TIP3    H228010   1.820   4.227  13.958 -0.0353  1.9178 -1.6340
 2199TIP3   OH228011   4.743   5.118  14.581 -0.2109  0.2313 -0.9906
 2199TIP3    H128012   4.677   5.053  14.604  0.5014  0.0736  0.7372
 2199TIP3    H228013   4.821   5.067  14.557  0.1485  0.4256 -0.2643
 2200TIP3   OH228014   1.154   4.426   4.185  0.0705  0.1266 -0.0296
 2200TIP3    H128015   1.179   4.441   4.094  1.0652  1.2698  0.4025
 2200TIP3    H228016   1.066   4.390   4.181 -0.5997  1.8167 -1.3713
 2201TIP3   OH228017   6.265   5.517   2.907  0.4222  0.0835 -0.7137
 2201TIP3    H128018   6.240   5.610   2.910  1.3113  0.3600  2.8617
 2201TIP3    H228019   6.184   5.470   2.927  0.2218  0.1439 -1.3601
 2202TIP3   OH228020   0.582   2.640   1.169  0.0408 -0.7492  0.3336
 2202TIP3    H128021   0.537   2.707   1.222  0.5156  0.6247 -0.9247
 2202TIP3    H228022   0.540   2.558   1.194 -1.9342  0.2499  0.5280
 2203TIP3   OH228023   0.056   6.276  16.627 -0.2363 -0.0198  0.0444
 2203TIP3    H128024   0.132   6.279  16.569 -1.8259  1.2562 -2.1329
 2203TIP3    H228025   0.084   6.323  16.706  0.8575  1.5521 -1.2176
 2204TIP3   OH228026   1.106   2.724   4.773  0.3958  1.1400 -0.0212
 2204TIP3    H128027   1.081   2.773   4.851 -0.7237  2.0098 -0.9065
 2204TIP3    H228028   1.045   2.651   4.770  2.2248 -0.5872  1.4442
 2205TIP3   OH228029   5.998   2.298   5.032 -0.2295  0.3323 -0.3741
 2205TIP3    H128030   6.061   2.364   5.003 -1.5387  1.7794 -0.0753
 2205TIP3    H228031   5.913   2.343   5.030 -0.9039 -0.7000  1.8648
 2206TIP3   OH228032   1.536   6.685   6.250 -0.0232  0.2090 -0.6515
 2206TIP3    H128033   1.476   6.676   6.176  0.8566  0.6022 -1.4327
 2206TIP3    H228034   1.495   6.634   6.320  0.3514 -2.3544 -2.1448
 2207TIP3   OH228035   3.040   3.759  14.509  0.1207  0.1031  0.6136
 2207TIP3    H128036   3.003   3.847  14.519 -0.3563  0.1806 -1.3705
 2207TIP3    H228037   3.109   3.770  14.445  0.5306 -0.8623  0.8850
 2208TIP3   OH228038   0.792   3.470  13.124  0.4928  0.3079 -0.1900
 2208TIP3    H128039   0.782   3.515  13.040 -0.7960 -0.2464 -0.3684
 2208TIP3    H228040   0.728   3.398  13.119 -0.0409  0.6338  1.4934
 2209TIP3   OH228041   2.008   4.051  11.686  0.1109 -0.8225  0.1732
 2209TIP3    H128042   2.081   4.078  11.629 -0.0536  0.7514  0.6465
 2209TIP3    H228043   2.040   4.068  11.775 -1.6913  2.6298  0.3597
 2210TIP3   OH228044   6.574   6.764  14.645 -0.1915  0.0371 -1.0080
 2210TIP3    H128045   6.568   6.701  14.716 -2.1524  1.2123 -0.0415
 2210TIP3    H228046   6.501   6.825  14.660  0.7999  1.7510 -2.6473
 2211TIP3   OH228047   5.149   3.470  15.925 -0.1208  0.5381  0.8592
 2211TIP3    H128048   5.171   3.460  15.833  0.0683  2.8554  0.5928
 2211TIP3    H228049   5.229   3.445  15.972 -0.0848 -0.2323  0.4032
 2212TIP3   OH228050   5.701   5.149   5.089  0.3441 -0.2809 -0.5502
 2212TIP3    H128051   5.683   5.243   5.083 -1.2134 -0.3912  1.2001
 2212TIP3    H228052   5.794   5.143   5.111  0.5248  0.8265 -0.9554
 2213TIP3   OH228053   3.597   6.191  14.701  0.4042 -0.3598  0.7588
 2213TIP3    H128054   3.586   6.096  14.700  0.0873 -0.3559  1.8938
 2213TIP3    H228055   3.688   6.206  14.676  0.8675 -1.0559  1.9530
 2214TIP3   OH228056   2.622   3.202  13.836 -0.3851 -0.2243 -0.1698
 2214TIP3    H128057   2.703   3.195  13.885 -1.5531 -0.4456  1.8225
 2214TIP3    H228058   2.641   3.161  13.752  1.6038 -0.0711  0.1645
 2215TIP3   OH228059   2.187   6.199   3.499 -0.3519 -0.2337  0.4509
 2215TIP3    H128060   2.115   6.186   3.437 -0.7735  1.2702  0.6091
 2215TIP3    H228061   2.159   6.154   3.578 -0.0119 -1.7703 -0.2438
 2216TIP3   OH228062   4.890   6.189  15.555 -0.1880  0.4128 -0.3937
 2216TIP3    H128063   4.828   6.132  15.508  1.0626  0.5233 -2.2714
 2216TIP3    H228064   4.965   6.133  15.575  0.3897  1.0099 -0.8507
 2217TIP3   OH228065   1.237   5.181   0.577 -0.3801  0.3939 -0.4954
 2217TIP3    H128066   1.200   5.093   0.580 -1.0728  0.6897  0.0390
 2217TIP3    H228067   1.228   5.209   0.486 -0.1545 -0.0828 -0.6673
 2218TIP3   OH228068   1.811   5.881   6.265 -0.0614 -0.2881 -0.1359
 2218TIP3    H128069   1.782   5.834   6.186  1.2429  0.1273 -0.8871
 2218TIP3    H228070   1.893   5.838   6.290  0.4428  0.6937 -0.0384
 2219TIP3   OH228071   4.978   1.013   4.190 -0.1049  0.4190 -0.7092
 2219TIP3    H128072   5.013   0.956   4.121 -0.0165 -0.6195  0.1793
 2219TIP3    H228073   5.033   0.995   4.266 -0.8072  0.8512 -0.0897
 2220TIP3   OH228074   0.879   3.634  14.236 -0.0852 -0.4408 -0.1774
 2220TIP3    H128075   0.970   3.647  14.265 -0.4201  0.9151  0.3797
 2220TIP3    H228076   0.835   3.715  14.263 -1.6014 -1.3339  0.1087
 2221TIP3   OH228077   4.413   6.563  13.107 -0.1184  0.6992 -0.5962
 2221TIP3    H128078   4.430   6.641  13.160 -0.0533  0.4767 -0.2873
 2221TIP3    H228079   4.319   6.550  13.114 -0.1936  0.9989 -1.0015
 2222TIP3   OH228080   3.765   4.965   2.417 -0.3494  0.0955 -0.5094
 2222TIP3    H128081   3.736   4.878   2.388 -1.3288  0.2988 -0.1568
 2222TIP3    H228082   3.687   5.005   2.456 -0.1154  1.4290 -1.3457
 2223TIP3   OH228083   4.992   4.558   4.632  0.4245 -0.0182  0.0703
 2223TIP3    H128084   4.958   4.619   4.566 -0.4526 -0.8626 -0.2849
 2223TIP3    H228085   5.045   4.496   4.581 -2.1263 -2.0783 -0.2780
 2224TIP3   OH228086   3.861   1.596  16.785  0.2011  0.3827 -0.7142
 2224TIP3    H128087   3.768   1.615  16.785 -0.5267 -2.3674  1.9978
 2224TIP3    H228088   3.874   1.538  16.710 -0.4434  0.1870 -0.6760
 2225TIP3   OH228089   3.575   2.342   1.368  0.1559 -0.2609 -0.1003
 2225TIP3    H128090   3.575   2.294   1.285 -2.4939 -0.9632  0.1898
 2225TIP3    H228091   3.519   2.418   1.352  0.2984  0.0455  0.7963
 2226TIP3   OH228092   6.387   2.101  16.162  0.0620 -0.1015 -0.4862
 2226TIP3    H128093   6.469   2.076  16.206  0.2542 -0.5833 -1.1125
 2226TIP3    H228094   6.371   2.191  16.193  0.2589 -0.3802  0.4643
 2227TIP3   OH228095   4.665   3.660   5.752  0.3410  0.6020  0.1765
 2227TIP3    H128096   4.700   3.638   5.666  1.7356  1.1542  0.5738
 2227TIP3    H228097   4.586   3.712   5.733 -1.5106 -2.3280 -0.7346
 2228TIP3   OH228098   5.436   1.812  15.472  0.4804 -0.2174 -0.1186
 2228TIP3    H128099   5.434   1.865  15.392  0.1072  0.1195  0.1113
 2228TIP3    H228100   5.503   1.853  15.526  0.6472 -0.3719 -0.2088
 2229TIP3   OH228101   2.515   1.701   2.019  0.5261  0.5889 -0.4959
 2229TIP3    H128102   2.463   1.640   1.966  0.8386 -0.0486 -0.0687
 2229TIP3    H228103   2.605   1.673   2.007  0.4938 -0.6304  1.6848
 2230TIP3   OH228104   3.720   5.016  16.176  0.2578  0.3206 -0.3741
 2230TIP3    H128105   3.664   4.973  16.111  1.1744 -0.0750 -0.9281
 2230TIP3    H228106   3.736   4.950  16.242  1.2652 -0.0661 -0.9762
 2231TIP3   OH228107   1.542   5.695   1.838  0.5124 -0.0701  0.3009
 2231TIP3    H128108   1.498   5.612   1.857  0.8678 -0.2412  0.3839
 2231TIP3    H228109   1.471   5.756   1.818  0.2570 -0.4145  0.1609
 2232TIP3   OH228110   5.067   6.649  12.930 -0.4130 -0.1858 -0.4103
 2232TIP3    H128111   4.987   6.600  12.910  0.3430 -0.9513 -1.6654
 2232TIP3    H228112   5.091   6.621  13.019 -3.3950  2.6880  1.5630
 2233TIP3   OH228113   5.046   1.847  16.579 -0.3964  0.2092  0.4928
 2233TIP3    H128114   5.094   1.911  16.526 -1.4081  0.8953  0.3644
 2233TIP3    H228115   5.109   1.778  16.597 -0.0988 -0.2306 -1.9244
 2234TIP3   OH228116   0.730   1.600   3.520  0.4374 -0.0406  0.4584
 2234TIP3    H128117   0.647   1.613   3.567 -0.7506  1.0929 -1.7413
 2234TIP3    H228118   0.724   1.511   3.485 -1.2669  0.9340 -2.0305
 2235TIP3   OH228119   4.308   5.843  17.006  0.0092  0.1051  0.3997
 2235TIP3    H128120   4.319   5.762  17.057  0.9729  0.8910  1.4989
 2235TIP3    H228121   4.292   5.813  16.917  3.0381 -1.3619  0.2013
 2236TIP3   OH228122   1.470   3.259   1.871  0.4315 -0.3235 -0.4605
 2236TIP3    H128123   1.390   3.244   1.921  0.9774  0.5422  0.7309
 2236TIP3    H228124   1.452   3.339   1.821 -0.1339 -1.2193 -1.7346
 2237TIP3   OH228125   3.809   5.986   2.282 -0.2834  0.6778 -0.3633
 2237TIP3    H128126   3.790   6.059   2.224 -0.3809 -2.3144 -4.4676
 2237TIP3    H228127   3.898   5.960   2.259 -0.9081 -1.6079 -0.3503
 2238TIP3   OH228128   3.449   5.351   0.383 -0.6172 -0.4238 -0.4225
 2238TIP3    H128129   3.483   5.397   0.307 -0.6377  0.5246  0.1296
 2238TIP3    H228130   3.482   5.261   0.373  0.1863 -0.0754 -1.0463
 2239TIP3   OH228131   4.734   6.229   4.997 -0.0232  0.3068 -0.3102
 2239TIP3    H128132   4.781   6.148   5.017 -0.5563  0.1814  0.4443
 2239TIP3    H228133   4.803   6.295   4.990  0.2458  0.2831  1.5496
 2240TIP3   OH228134   4.694   4.969   0.584 -0.2432 -0.2840 -0.7287
 2240TIP3    H128135   4.653   5.047   0.621  3.5294  1.7846 -0.4126
 2240TIP3    H228136   4.724   4.919   0.660  0.0970 -0.3768 -0.9204
 2241TIP3   OH228137   3.635   4.609  14.407 -0.3999  0.3868 -0.1411
 2241TIP3    H128138   3.639   4.547  14.479 -1.1433  1.0981  0.5267
 2241TIP3    H228139   3.727   4.628  14.387 -0.1790 -0.3717  0.1185
 2242TIP3   OH228140   2.382   5.406  11.313  0.5773 -0.2850  0.2793
 2242TIP3    H128141   2.403   5.342  11.245  1.4940  0.2219  0.0870
 2242TIP3    H228142   2.356   5.485  11.266 -0.4377 -0.4573  0.5210
 2243TIP3   OH228143   6.041   0.138  15.258 -0.5490 -0.2421  0.0635
 2243TIP3    H128144   6.115   0.177  15.304 -0.9419  0.7116 -0.0770
 2243TIP3    H228145   6.010   0.207  15.199 -2.9685  0.2775  1.7533
 2244TIP3   OH228146   6.316   6.589  13.168  0.2034 -0.4707 -0.2291
 2244TIP3    H128147   6.299   6.513  13.224  1.1478 -0.0514  0.6611
 2244TIP3    H228148   6.412   6.597  13.167  0.1025  1.2351  0.4468
 2245TIP3   OH228149   4.652   3.934   5.683  0.0167 -0.4202  0.1789
 2245TIP3    H128150   4.737   3.913   5.645 -0.1353 -0.6166 -0.0513
 2245TIP3    H228151   4.673   3.973   5.768  0.4786  2.0686 -0.9785
 2246TIP3   OH228152   5.483   0.348   2.721 -0.4039  0.1969 -0.9851
 2246TIP3    H128153   5.530   0.268   2.744  0.4748  1.3442  1.5802
 2246TIP3    H228154   5.541   0.393   2.659 -0.4103 -0.6102 -1.6031
 2247TIP3   OH228155   6.120   2.141   5.228 -0.0828  0.0134  0.3843
 2247TIP3    H128156   6.089   2.185   5.148 -1.3407 -1.0010  0.2822
 2247TIP3    H228157   6.133   2.213   5.290  0.0796  0.7389 -0.4536
 2248TIP3   OH228158   6.110   0.014   3.958  0.1729  0.2350 -0.0942
 2248TIP3    H128159   6.066  -0.068   3.978 -0.2669  0.5715  0.3621
 2248TIP3    H228160   6.062   0.049   3.882 -3.2329  2.6245  2.8127
 2249TIP3   OH228161   5.163   6.539   5.995 -0.0827 -0.3399  0.0273
 2249TIP3    H128162   5.132   6.621   6.032  1.0275 -0.5746  1.5916
 2249TIP3    H228163   5.084   6.490   5.974 -0.7537  0.5228  0.4935
 2250TIP3   OH228164   4.572   1.566  13.820 -0.1093 -0.4988 -0.4520
 2250TIP3    H128165   4.546   1.629  13.886  0.7271 -0.1385 -0.4529
 2250TIP3    H228166   4.578   1.483  13.867 -4.8618 -1.5027 -1.1303
 2251TIP3   OH228167   5.113   1.113  15.802  0.3717 -0.2725 -0.3564
 2251TIP3    H128168   5.048   1.179  15.827 -0.9598 -1.0789 -1.5302
 2251TIP3    H228169   5.197   1.157  15.812 -0.2641  0.5654  1.9692
 2252TIP3   OH228170   2.643   1.887  14.096  0.0133 -0.3166  0.0256
 2252TIP3    H128171   2.720   1.938  14.119  1.1791 -1.0389 -2.0203
 2252TIP3    H228172   2.585   1.894  14.172  1.4686  1.4279  1.0276
 2253TIP3   OH228173   4.597   4.906  10.981 -0.0102  0.7777 -0.4707
 2253TIP3    H128174   4.595   4.844  10.908 -0.0558 -2.1330  1.8014
 2253TIP3    H228175   4.690   4.919  11.000 -0.0037  1.2120 -0.8091
 2254TIP3   OH228176   0.225   2.049   5.337  0.1264  0.3718  0.3477
 2254TIP3    H128177   0.222   2.004   5.422 -0.0023 -0.2217  0.0387
 2254TIP3    H228178   0.246   1.980   5.274  1.5232  1.0358  0.0404
 2255TIP3   OH228179   1.704   6.478   6.628  0.0102 -0.1714 -0.6656
 2255TIP3    H128180   1.694   6.388   6.661 -0.6761 -0.1137 -0.6979
 2255TIP3    H228181   1.783   6.475   6.574  0.1321 -0.6989 -0.4659
 2256TIP3   OH228182   4.233   3.147  15.648  0.0467 -0.1615  0.5239
 2256TIP3    H128183   4.138   3.139  15.661  0.0678  1.0239  1.5850
 2256TIP3    H228184   4.267   3.168  15.735  1.5080 -2.1965  0.5154
 2257TIP3   OH228185   5.657   3.336  14.297 -0.2269  1.0479  0.7971
 2257TIP3    H128186   5.676   3.279  14.223  0.3475 -0.5415  2.1252
 2257TIP3    H228187   5.666   3.425  14.262  0.8040  0.3389 -0.8235
 2258TIP3   OH228188   3.388   3.345  13.772  0.3918 -0.6225  0.4274
 2258TIP3    H128189   3.436   3.370  13.852  0.4528 -0.9481  0.4940
 2258TIP3    H228190   3.296   3.344  13.799  0.4594 -1.3133  0.6522
 2259TIP3   OH228191   3.269   5.240  16.013  0.2543  0.0918 -0.0186
 2259TIP3    H128192   3.280   5.240  15.918 -0.9848  1.0713 -0.1837
 2259TIP3    H228193   3.341   5.295  16.046  1.1089 -0.8198 -0.3031
 2260TIP3   OH228194   1.794   6.419  14.260 -0.1494 -0.1750  0.5729
 2260TIP3    H128195   1.812   6.450  14.349  0.0312  0.5799  0.2804
 2260TIP3    H228196   1.875   6.375  14.234  0.0640  0.2399  0.5199
 2261TIP3   OH228197   1.289   5.879  14.111  0.3991 -0.1086 -0.8432
 2261TIP3    H128198   1.243   5.827  14.176 -0.9411 -0.7106 -2.2114
 2261TIP3    H228199   1.358   5.822  14.079  1.5705  0.4646  0.5482
 2262TIP3   OH228200   0.108   0.070   5.496 -0.0329 -0.1984 -0.1523
 2262TIP3    H128201   0.123  -0.024   5.494 -1.8988 -0.5499 -2.8325
 2262TIP3    H228202   0.113   0.098   5.405 -2.7784  1.6549  0.1225
 2263TIP3   OH228203   5.090   2.977   4.280  0.2781 -0.3762 -0.0593
 2263TIP3    H128204   5.008   2.993   4.326  0.4254 -0.1658  0.1340
 2263TIP3    H228205   5.065   2.967   4.188  0.0003 -0.6355  0.0427
 2264TIP3   OH228206   0.168   0.359  14.334  0.0650  0.3547 -0.2066
 2264TIP3    H128207   0.100   0.308  14.289  0.1052  0.1850 -0.0730
 2264TIP3    H228208   0.222   0.394  14.263 -0.1335  0.4515 -0.3110
 2265TIP3   OH228209   4.334   1.133   2.729  0.2935  0.4063  0.6053
 2265TIP3    H128210   4.299   1.180   2.653 -1.1594 -2.8771 -0.9752
 2265TIP3    H228211   4.423   1.109   2.703  0.6895  1.4076  1.0114
 2266TIP3   OH228212   2.295   5.095  13.787 -0.0431  0.2040 -0.0176
 2266TIP3    H128213   2.335   5.175  13.753 -1.5561  0.0876 -2.3306
 2266TIP3    H228214   2.288   5.037  13.711  0.6204 -2.0102  1.4929
 2267TIP3   OH228215   6.395   1.625   4.010  0.0988 -0.5232  0.3242
 2267TIP3    H128216   6.301   1.638   3.998  0.1681  0.7630  0.9813
 2267TIP3    H228217   6.412   1.538   3.975 -1.3996 -0.9261  0.5299
 2268TIP3   OH228218   3.821   0.070   0.859 -0.6948 -0.2770 -0.2230
 2268TIP3    H128219   3.847   0.107   0.774 -0.1886  1.6077  0.7215
 2268TIP3    H228220   3.882  -0.003   0.872 -0.0744  0.0897 -0.9836
 2269TIP3   OH228221   1.520   5.407  13.412  0.0918  0.3082  0.3358
 2269TIP3    H128222   1.447   5.354  13.382 -0.6026  2.4736 -2.1280
 2269TIP3    H228223   1.598   5.363  13.377 -0.1544 -0.8140  1.1375
 2270TIP3   OH228224   3.054   0.200   4.990  0.1356 -0.2569  0.0495
 2270TIP3    H128225   2.997   0.198   4.913 -1.3198 -2.2014  1.0840
 2270TIP3    H228226   3.140   0.173   4.957  0.0305  0.7947 -1.1851
 2271TIP3   OH228227   5.590   1.512   5.449 -0.7291 -0.1998 -0.0238
 2271TIP3    H128228   5.571   1.421   5.469 -1.5028 -0.2194 -0.8121
 2271TIP3    H228229   5.658   1.508   5.381 -0.6265 -0.1792  0.0765
 2272TIP3   OH228230   3.198   5.242  14.325  0.0397 -0.7900  0.5888
 2272TIP3    H128231   3.293   5.249  14.336  0.2894 -1.2904 -0.9202
 2272TIP3    H228232   3.169   5.185  14.397  0.9517 -1.0003  0.8040
 2273TIP3   OH228233   2.203   5.720  15.213 -0.2270  0.2410 -0.3535
 2273TIP3    H128234   2.295   5.742  15.198 -0.2351  0.3478 -0.2490
 2273TIP3    H228235   2.165   5.715  15.125  0.6464 -3.3069 -0.6489
 2274TIP3   OH228236   2.895   2.481   3.317 -0.1620 -0.4677 -0.5773
 2274TIP3    H128237   2.980   2.442   3.337  0.1452 -0.2634 -1.4483
 2274TIP3    H228238   2.836   2.406   3.307  0.0780 -0.6433 -0.6859
 2275TIP3   OH228239   4.343   2.095  15.887  0.0383  0.3588  0.4192
 2275TIP3    H128240   4.270   2.151  15.912 -1.4867 -0.6871 -1.3802
 2275TIP3    H228241   4.311   2.048  15.810  2.5955 -0.2323 -0.3740
 2276TIP3   OH228242   2.931   6.630  14.044  0.3911  0.8682 -0.4206
 2276TIP3    H128243   2.851   6.675  14.020  0.5003  1.5618  0.4845
 2276TIP3    H228244   2.902   6.553  14.092  0.1310 -0.9321 -3.2054
 2277TIP3   OH228245   3.323   2.218   6.594  0.4114 -0.2818  0.0951
 2277TIP3    H128246   3.382   2.269   6.539  1.4368 -0.8662  0.6278
 2277TIP3    H228247   3.328   2.260   6.680 -1.4423  0.8349 -0.3044
 2278TIP3   OH228248   5.208   4.791   0.354 -0.4981  0.0137 -0.1189
 2278TIP3    H128249   5.134   4.849   0.338 -1.1688 -0.6529  0.5279
 2278TIP3    H228250   5.184   4.708   0.313 -0.1646 -0.2444  0.1888
 2279TIP3   OH228251   3.150   2.471  14.770  0.2750  0.4096 -0.6483
 2279TIP3    H128252   3.059   2.485  14.742  0.5033  1.0114 -1.0871
 2279TIP3    H228253   3.163   2.377  14.761  0.3010  0.5612 -2.4278
 2280TIP3   OH228254   4.234   2.076   1.475  0.6142  0.2511 -0.7535
 2280TIP3    H128255   4.180   2.084   1.396 -2.0012  2.2410  1.0426
 2280TIP3    H228256   4.193   2.005   1.524  0.6998  0.6217 -0.1401
 2281TIP3   OH228257   3.655   5.781  15.107 -0.2654 -0.3861  0.1137
 2281TIP3    H128258   3.677   5.836  15.032 -0.4037 -2.3618 -1.4659
 2281TIP3    H228259   3.567   5.748  15.087 -1.6580  1.4120  2.6650
 2282TIP3   OH228260   2.049   5.712   3.367 -0.0125 -0.0950  0.0921
 2282TIP3    H128261   1.959   5.702   3.397  1.0581 -3.8063  2.9178
 2282TIP3    H228262   2.094   5.752   3.441  1.1756 -1.4171  0.1303
 2283TIP3   OH228263   2.686   1.287   3.513  0.3009 -0.4519  0.3972
 2283TIP3    H128264   2.769   1.239   3.512  0.6246  0.1070  0.0268
 2283TIP3    H228265   2.640   1.254   3.590  0.2265 -1.8487 -0.2149
 2284TIP3   OH228266   5.069   1.893   0.962  0.1997 -0.0577  0.8529
 2284TIP3    H128267   5.126   1.818   0.945 -0.2837 -0.9378  2.8721
 2284TIP3    H228268   5.124   1.954   1.012  0.0867  0.1676  0.7040
 2285TIP3   OH228269   4.327   0.396  13.278  0.3190 -0.1110 -0.7787
 2285TIP3    H128270   4.245   0.378  13.232 -0.8775 -2.1171  1.8698
 2285TIP3    H228271   4.326   0.491  13.292 -2.8816 -0.2990  1.2793
 2286TIP3   OH228272   0.796   4.805   6.064 -0.5387 -0.2889  0.3220
 2286TIP3    H128273   0.731   4.830   6.130  1.4578  0.1285  2.2471
 2286TIP3    H228274   0.859   4.751   6.111  2.1629  1.8101 -0.5862
 2287TIP3   OH228275   6.531   1.606   2.643  0.2565  0.8408  0.5980
 2287TIP3    H128276   6.527   1.561   2.559  4.2954  1.5314 -0.1578
 2287TIP3    H228277   6.520   1.536   2.708  2.8618 -0.7879 -0.5516
 2288TIP3   OH228278   2.140   3.006  11.900  0.8282  0.1915  0.4000
 2288TIP3    H128279   2.065   2.950  11.884  0.2320  0.5770  1.7024
 2288TIP3    H228280   2.177   3.023  11.814  0.1961 -1.0575 -0.1352
 2289TIP3   OH228281   1.478   3.145   0.426  0.3956  0.1448 -0.3551
 2289TIP3    H128282   1.534   3.078   0.387  0.1264 -0.3646  0.1256
 2289TIP3    H228283   1.398   3.142   0.374  1.0039  1.2594 -1.4014
 2290TIP3   OH228284   1.423   4.085   1.246 -0.5320  0.4110 -0.2210
 2290TIP3    H128285   1.420   4.181   1.238 -0.3604  0.4204 -0.1917
 2290TIP3    H228286   1.483   4.070   1.320 -1.3791  0.3079  0.4552
 2291TIP3   OH228287   3.558   6.074   2.941  0.3467  0.2989  0.0599
 2291TIP3    H128288   3.568   6.108   2.852 -1.1601  1.3526  0.2487
 2291TIP3    H228289   3.533   5.982   2.928 -0.4656  0.5976 -0.6575
 2292TIP3   OH228290   0.248   4.049  13.522  0.1944  0.0650 -0.1292
 2292TIP3    H128291   0.221   4.021  13.609 -0.7361 -0.9395 -0.7146
 2292TIP3    H228292   0.226   3.975  13.465  2.0833  0.1343 -1.0256
 2293TIP3   OH228293   5.168   2.817  13.410  0.8105 -0.3260  0.1496
 2293TIP3    H128294   5.078   2.823  13.440  0.7315 -1.1988  0.1059
 2293TIP3    H228295   5.189   2.906  13.381 -0.3608 -0.3272 -0.7786
 2294TIP3   OH228296   1.948   2.850  13.996 -0.0285  0.1204  0.1900
 2294TIP3    H128297   1.950   2.851  14.092  0.9835  0.8222  0.1834
 2294TIP3    H228298   2.037   2.823  13.971 -0.5535 -0.9905 -0.5594
 2295TIP3   OH228299   3.330   0.965  11.796  0.2770  0.1592  0.0795
 2295TIP3    H128300   3.419   0.978  11.829  1.4099 -3.7321 -0.9125
 2295TIP3    H228301   3.333   0.999  11.707  0.9051 -0.2442 -0.0635
 2296TIP3   OH228302   4.089   3.482   0.245 -0.0763 -0.4003  0.0176
 2296TIP3    H128303   4.023   3.545   0.214 -0.3340  0.6202  2.4102
 2296TIP3    H228304   4.038   3.411   0.283  0.1655 -0.0813  0.9749
 2297TIP3   OH228305   1.337   4.741  15.544 -0.8548  0.4919 -0.3087
 2297TIP3    H128306   1.252   4.711  15.511 -0.6437  1.1338 -1.4759
 2297TIP3    H228307   1.348   4.828  15.505 -0.2982  1.0124  0.9698
 2298TIP3   OH228308   5.308   0.092  15.033  0.5790 -0.3729 -0.1402
 2298TIP3    H128309   5.252   0.061  14.962 -0.8701 -0.3301  0.9261
 2298TIP3    H228310   5.264   0.172  15.065  0.7137 -0.8425  1.3138
 2299TIP3   OH228311   6.053   1.564   4.967 -0.0260  0.3878  0.4045
 2299TIP3    H128312   6.084   1.478   4.995  0.3942 -0.1589 -1.5541
 2299TIP3    H228313   5.988   1.589   5.033 -0.3357 -1.5413  0.8906
 2300TIP3   OH228314   2.529   6.570  12.811 -0.0394 -0.3905  0.1686
 2300TIP3    H128315   2.525   6.546  12.719 -0.1327 -1.7328  0.4962
 2300TIP3    H228316   2.611   6.618  12.820 -0.0588 -0.1981 -0.6143
 2301TIP3   OH228317   3.283   1.496   1.261 -0.7513  0.5532 -0.1092
 2301TIP3    H128318   3.306   1.585   1.285  1.5029  0.4234 -1.4477
 2301TIP3    H228319   3.330   1.441   1.324 -2.2243  0.2761  0.7829
 2302TIP3   OH228320   5.479   3.404  15.257  0.1218 -0.0979 -0.6270
 2302TIP3    H128321   5.565   3.408  15.299 -0.9132 -2.0526  1.9436
 2302TIP3    H228322   5.461   3.494  15.230  2.0364  0.7595  0.7204
 2303TIP3   OH228323   0.711   6.568   1.679  0.0860  0.0393  0.0464
 2303TIP3    H128324   0.708   6.504   1.607  2.7296  0.0158 -0.1091
 2303TIP3    H228325   0.680   6.518   1.755 -0.3072 -0.6682 -0.5522
 2304TIP3   OH228326   0.694   4.266   1.332  0.4343 -0.0933 -0.1730
 2304TIP3    H128327   0.772   4.321   1.321 -0.0630  1.1955  2.1692
 2304TIP3    H228328   0.727   4.186   1.375  0.6384 -0.1011 -0.3421
 2305TIP3   OH228329   0.437   2.717   5.810  0.2086 -0.2312 -0.4045
 2305TIP3    H128330   0.344   2.728   5.790  0.8819  0.6698 -3.6479
 2305TIP3    H228331   0.463   2.637   5.763  1.0313 -0.7098  0.8024
 2306TIP3   OH228332   0.403   6.045  14.335  0.2711  0.1955  0.3657
 2306TIP3    H128333   0.344   5.983  14.294  0.1599  1.7394 -2.0253
 2306TIP3    H228334   0.489   6.002  14.333  0.2615  0.2067 -1.5560
 2307TIP3   OH228335   6.628   3.816  13.312 -0.0126 -0.3596  0.3807
 2307TIP3    H128336   6.567   3.886  13.288  0.7627 -0.5275 -2.4209
 2307TIP3    H228337   6.709   3.838  13.267  1.4559 -1.1728  2.4560
 2308TIP3   OH228338   6.553   2.563   6.967  0.8923 -0.1184 -0.3283
 2308TIP3    H128339   6.571   2.501   7.038 -1.7776 -1.7634 -0.9314
 2308TIP3    H228340   6.457   2.563   6.960  1.0361  0.3153 -3.6138
 2309TIP3   OH228341   3.449   0.222  10.919  0.1668  0.1091  0.0354
 2309TIP3    H128342   3.500   0.241  10.841 -0.2544 -1.3571 -0.6451
 2309TIP3    H228343   3.414   0.134  10.903  0.0925 -0.2326  1.8912
 2310TIP3   OH228344   2.639   3.307  16.349  0.4009  0.8734  0.0028
 2310TIP3    H128345   2.591   3.378  16.393 -1.0690  1.6394 -2.6339
 2310TIP3    H228346   2.571   3.247  16.320  1.3544  0.0822 -0.6576
 2311TIP3   OH228347   3.497   5.841  12.266 -0.3731 -0.6114  0.2844
 2311TIP3    H128348   3.449   5.785  12.326  0.3285 -0.9796  0.5164
 2311TIP3    H228349   3.446   5.922  12.262 -1.7845 -1.5036 -0.6057
 2312TIP3   OH228350   0.182   2.166   4.532 -0.3732 -0.1054 -0.2134
 2312TIP3    H128351   0.149   2.079   4.554 -1.4236 -0.0510 -1.4522
 2312TIP3    H228352   0.267   2.171   4.576 -1.2490 -0.9073  1.6767
 2313TIP3   OH228353   0.649   2.010  13.520 -0.1622  0.4530  0.1396
 2313TIP3    H128354   0.724   1.983  13.467  0.7091 -0.1327  1.5842
 2313TIP3    H228355   0.684   2.081  13.575 -0.2544 -0.7083  1.7569
 2314TIP3   OH228356   0.605   2.967   5.645 -0.1822  0.2709 -0.4192
 2314TIP3    H128357   0.642   2.896   5.698 -2.5928 -0.4878  0.3740
 2314TIP3    H228358   0.562   3.024   5.709 -1.2704  0.5265 -1.3426
 2315TIP3   OH228359   2.201   1.245   6.160 -0.7408 -0.1772 -0.4168
 2315TIP3    H128360   2.200   1.297   6.240 -1.2183  1.0660 -1.2037
 2315TIP3    H228361   2.273   1.183   6.172 -0.0775  0.7464  0.5068
 2316TIP3   OH228362   2.602   0.822   4.290 -0.5582  0.3871  0.1731
 2316TIP3    H128363   2.552   0.890   4.336 -1.1433  0.0569  0.0291
 2316TIP3    H228364   2.644   0.772   4.359  0.5549  1.3908  0.2629
 2317TIP3   OH228365   6.215   2.462   1.880  0.3441 -0.0132 -0.2007
 2317TIP3    H128366   6.282   2.396   1.860 -1.2318 -1.3931 -1.1210
 2317TIP3    H228367   6.142   2.440   1.823 -0.5212  2.1058  0.0194
 2318TIP3   OH228368   2.476   3.478   4.076 -0.1446 -0.1667  0.0144
 2318TIP3    H128369   2.400   3.429   4.044 -0.6349  0.6261 -0.0723
 2318TIP3    H228370   2.522   3.417   4.133 -0.9429 -0.6086  0.2026
 2319TIP3   OH228371   1.559   1.700  11.533  0.2933 -0.4190  0.5055
 2319TIP3    H128372   1.584   1.608  11.545  1.1754 -0.2474  0.1149
 2319TIP3    H228373   1.636   1.739  11.492 -0.1682  0.4441  0.4590
 2320TIP3   OH228374   1.327   1.404   3.173  0.0372 -0.2470 -0.3070
 2320TIP3    H128375   1.321   1.442   3.085  0.5546 -0.0292 -0.2535
 2320TIP3    H228376   1.421   1.393   3.188 -0.0740 -0.9239 -0.0492
 2321TIP3   OH228377   1.610   1.908  15.910 -0.6888 -0.0199  0.0123
 2321TIP3    H128378   1.584   1.919  16.001 -2.0044  0.5103 -0.3959
 2321TIP3    H228379   1.565   1.979  15.864  0.1685 -0.1179 -1.0120
 2322TIP3   OH228380   3.247   2.389  16.405  0.1962 -0.2688 -0.3218
 2322TIP3    H128381   3.312   2.459  16.398 -1.3284  1.2024 -0.5640
 2322TIP3    H228382   3.192   2.400  16.328 -1.9895  0.3332  1.2230
 2323TIP3   OH228383   1.787   3.752  15.117 -0.7164  0.4127  0.1363
 2323TIP3    H128384   1.712   3.695  15.137 -1.0445  0.2999 -1.2886
 2323TIP3    H228385   1.762   3.796  15.036  1.3097 -0.6956 -1.1864
 2324TIP3   OH228386   1.634   5.378   4.230 -0.6388 -0.6857  0.4070
 2324TIP3    H128387   1.706   5.423   4.186 -1.4423  1.1303  0.8587
 2324TIP3    H228388   1.649   5.285   4.212  1.1898 -0.2741 -0.4164
 2325TIP3   OH228389   1.818   4.618   0.897 -0.0769  0.0128 -0.0085
 2325TIP3    H128390   1.728   4.605   0.927 -0.5823  0.4033 -1.3197
 2325TIP3    H228391   1.858   4.531   0.904 -0.9676 -0.4755 -0.7129
 2326TIP3   OH228392   0.320   2.753   3.635  0.4485 -0.1321  0.1954
 2326TIP3    H128393   0.402   2.801   3.640 -0.5697  1.6329  0.8026
 2326TIP3    H228394   0.337   2.683   3.572  2.8224 -0.7105  1.3523
 2327TIP3   OH228395   5.122   3.506  13.106  0.1489  0.1316 -0.1875
 2327TIP3    H128396   5.119   3.493  13.011  0.6362 -1.4821 -0.0135
 2327TIP3    H228397   5.214   3.520  13.126  0.0704  0.3005  0.0589
 2328TIP3   OH228398   2.345   0.503  11.657 -0.0399 -0.3691  0.1397
 2328TIP3    H128399   2.375   0.473  11.743 -0.1370 -0.8786 -0.0065
 2328TIP3    H228400   2.364   0.597  11.658 -0.7262 -0.2202  1.0151
 2329TIP3   OH228401   2.890   2.230   0.028 -0.4567 -0.2734 -0.1671
 2329TIP3    H128402   2.865   2.300  -0.032 -0.2371 -0.2676 -0.2525
 2329TIP3    H228403   2.962   2.185  -0.016  0.9507  0.8640  0.8961
 2330TIP3   OH228404   0.383   4.758   1.245  0.1027  0.0459  0.3379
 2330TIP3    H128405   0.402   4.682   1.191  0.3931 -0.2366  0.8226
 2330TIP3    H228406   0.468   4.800   1.258 -0.0546  0.4454  0.0873
 2331TIP3   OH228407   2.911   1.447  14.676  0.5556 -0.2998  0.5743
 2331TIP3    H128408   2.988   1.440  14.619  1.8936 -0.2483  2.3088
 2331TIP3    H228409   2.874   1.533  14.656  1.9737  0.4249  0.9266
 2332TIP3   OH228410   5.690   3.923  11.396 -0.1975 -0.4375  0.3048
 2332TIP3    H128411   5.772   3.936  11.444  0.9969 -0.2988 -1.6742
 2332TIP3    H228412   5.677   3.828  11.395 -1.1411 -0.3869  2.2466
 2333TIP3   OH228413   5.511   0.369  12.574 -0.0361 -0.1692  0.2840
 2333TIP3    H128414   5.560   0.344  12.652 -0.9825 -0.5423  0.7794
 2333TIP3    H228415   5.577   0.380  12.506  0.9129  1.0945  1.3659
 2334TIP3   OH228416   4.979   6.386  15.343  0.6425  0.2720 -0.5521
 2334TIP3    H128417   4.995   6.442  15.418  1.4399  0.5734 -0.9380
 2334TIP3    H228418   4.929   6.312  15.378  1.5444  0.0850  0.4047
 2335TIP3   OH228419   4.855   3.923   5.358 -0.3312 -0.7838 -1.0734
 2335TIP3    H128420   4.774   3.966   5.333  0.7767  1.2962 -1.3015
 2335TIP3    H228421   4.924   3.973   5.313  1.1370 -1.9368 -0.2015
 2336TIP3   OH228422   2.416   4.315  11.832  0.4279  0.3074  0.8339
 2336TIP3    H128423   2.347   4.375  11.860 -1.1535 -0.9139 -0.2890
 2336TIP3    H228424   2.376   4.263  11.762  1.4570 -2.5857  2.2412
 2337TIP3   OH228425   5.382   4.380  11.399 -0.3755  0.0674 -0.4677
 2337TIP3    H128426   5.296   4.392  11.438  0.0879  1.1522  0.2514
 2337TIP3    H228427   5.397   4.286  11.401 -1.4234 -0.1038 -0.3583
 2338TIP3   OH228428   4.696   6.046  14.463  0.0431  0.7547  1.0484
 2338TIP3    H128429   4.653   6.122  14.502 -0.7951  0.7182  0.2223
 2338TIP3    H228430   4.730   6.078  14.379 -0.2187  0.2532  0.7442
 2339TIP3   OH228431   1.470   2.777  11.232 -0.3615 -0.4176  0.3709
 2339TIP3    H128432   1.410   2.841  11.194  1.1510 -0.2045 -1.9192
 2339TIP3    H228433   1.493   2.720  11.158  1.7462 -0.8271  1.2789
 2340TIP3   OH228434   3.309   3.898   3.953 -0.5863  0.1800 -0.0875
 2340TIP3    H128435   3.402   3.923   3.948  0.2898 -2.8574 -2.7138
 2340TIP3    H228436   3.287   3.904   4.046  2.0500  1.5775  0.5390
 2341TIP3   OH228437   2.882   5.204  12.385  0.4812 -0.7730 -0.1236
 2341TIP3    H128438   2.926   5.229  12.466  0.2829 -1.4214  0.1923
 2341TIP3    H228439   2.948   5.217  12.317  0.5756  0.0043  0.0988
 2342TIP3   OH228440   0.593   4.630  12.963 -0.0647 -0.0318  0.0046
 2342TIP3    H128441   0.522   4.581  12.922  0.2164 -0.8345  0.4584
 2342TIP3    H228442   0.659   4.564  12.984  0.0107  0.4203  1.3041
 2343TIP3   OH228443   0.662   5.829  17.147 -0.3659  0.2933 -0.0806
 2343TIP3    H128444   0.686   5.894  17.213 -2.3528 -0.5242  1.5792
 2343TIP3    H228445   0.745   5.801  17.109  0.8920  0.7468  2.1536
 2344TIP3   OH228446   3.903   2.773  16.862  0.2096 -0.4390 -0.1220
 2344TIP3    H128447   3.956   2.851  16.879  0.2145 -0.3677 -0.4489
 2344TIP3    H228448   3.936   2.739  16.779 -0.3812 -0.2842 -0.4255
 2345TIP3   OH228449   3.188   0.039   5.618  0.1140  0.1203  0.3419
 2345TIP3    H128450   3.283   0.048   5.618  0.0131  1.7038 -0.8257
 2345TIP3    H228451   3.156   0.127   5.601 -1.5587 -0.4649  0.2913
 2346TIP3   OH228452   2.801   6.288  16.433 -0.5382  0.2996 -0.7141
 2346TIP3    H128453   2.755   6.298  16.516 -0.4311  0.0295 -0.6182
 2346TIP3    H228454   2.752   6.219  16.387  0.0093 -0.2792 -0.4399
 2347TIP3   OH228455   4.242   6.115  13.889  0.0481  0.5473  0.1961
 2347TIP3    H128456   4.280   6.064  13.960  1.0231  0.8039 -0.1175
 2347TIP3    H228457   4.181   6.055  13.846  2.7770 -1.1836 -1.5585
 2348TIP3   OH228458   1.810   2.586   0.735  0.1374 -0.3935  0.0597
 2348TIP3    H128459   1.714   2.585   0.741  0.2114 -1.8713  1.9349
 2348TIP3    H228460   1.838   2.512   0.789  2.3373 -0.3148 -0.8817
 2349TIP3   OH228461   0.015   0.607   2.368  0.3117 -0.1047  0.0743
 2349TIP3    H128462   0.046   0.662   2.297  0.9695  0.4646  0.7889
 2349TIP3    H228463  -0.065   0.567   2.334 -0.5808  1.8421 -0.2065
 2350TIP3   OH228464   3.029   3.751   0.179 -0.0656 -0.1106 -0.1242
 2350TIP3    H128465   3.104   3.699   0.150 -1.7643 -1.6676 -2.0838
 2350TIP3    H228466   3.008   3.716   0.266  1.3180  0.2220  0.3693
 2351TIP3   OH228467   4.610   6.464   3.119 -0.0912  0.2153 -0.8811
 2351TIP3    H128468   4.558   6.421   3.052 -1.6620 -1.6285  1.3535
 2351TIP3    H228469   4.589   6.557   3.110 -2.5667 -0.3028 -1.1116
 2352TIP3   OH228470   4.193   0.489  16.717  0.2952 -0.0679 -0.2153
 2352TIP3    H128471   4.141   0.565  16.743  1.3342  0.6574 -0.1859
 2352TIP3    H228472   4.266   0.489  16.778  1.7280  0.5033 -1.8486
 2353TIP3   OH228473   6.200   0.886  11.744 -0.5232  0.0310  0.5474
 2353TIP3    H128474   6.145   0.813  11.716 -0.7397  0.3536  0.1271
 2353TIP3    H228475   6.195   0.950  11.673 -0.5091  0.5482  0.9997
 2354TIP3   OH228476   1.770   5.256  13.386  0.1960  0.2961 -0.2744
 2354TIP3    H128477   1.801   5.170  13.415  0.3630 -0.0350 -1.3885
 2354TIP3    H228478   1.831   5.280  13.315 -1.0594  0.4009 -1.3577
 2355TIP3   OH228479   0.937   2.846   4.985  0.1722 -0.2934 -0.2754
 2355TIP3    H128480   0.857   2.864   5.036  1.5130  1.4276  1.3829
 2355TIP3    H228481   0.948   2.923   4.930  2.0416  0.7649  1.4551
 2356TIP3   OH228482   2.999   5.563   5.703 -0.4587  0.3540  0.5029
 2356TIP3    H128483   2.969   5.482   5.744  0.8277 -1.0000 -1.0771
 2356TIP3    H228484   3.073   5.536   5.648  0.2664  2.6825  0.2369
 2357TIP3   OH228485   3.052   1.605   0.992 -0.4865  0.7505  0.9615
 2357TIP3    H128486   3.114   1.591   1.063  1.2015 -0.4532 -0.6572
 2357TIP3    H228487   3.076   1.690   0.956 -0.8088  0.9927  1.3165
 2358TIP3   OH228488   3.512   4.356  17.083  0.2458 -0.1464  0.1222
 2358TIP3    H128489   3.537   4.266  17.060 -0.6088 -0.2427 -0.5148
 2358TIP3    H228490   3.582   4.387  17.139  2.2674 -0.0925 -2.2405
 2359TIP3   OH228491   1.036   5.673  11.529 -0.2203  0.2268  0.2330
 2359TIP3    H128492   1.047   5.689  11.622  0.0046 -0.9363  0.4142
 2359TIP3    H228493   1.124   5.656  11.496 -0.5140 -1.5798  0.2587
 2360TIP3   OH228494   0.551   6.534  13.818  0.4514  0.1093  0.1464
 2360TIP3    H128495   0.568   6.604  13.881  2.5046  0.8135 -1.0762
 2360TIP3    H228496   0.481   6.568  13.763  0.6151  0.7123  0.2953
 2361TIP3   OH228497   2.210   1.205  12.262  0.4229 -0.4796 -0.2979
 2361TIP3    H128498   2.305   1.215  12.258  0.9248 -1.2827  4.2306
 2361TIP3    H228499   2.177   1.294  12.261  1.4728 -0.0525  0.5174
 2362TIP3   OH228500   3.366   0.906  13.312  0.8079 -0.4578  0.3175
 2362TIP3    H128501   3.277   0.886  13.342  1.0459 -0.7285  0.8626
 2362TIP3    H228502   3.367   1.002  13.305  0.7537 -0.3776  1.2498
 2363TIP3   OH228503   6.000   3.789  14.777 -0.6192  0.2130 -0.3608
 2363TIP3    H128504   5.930   3.727  14.758  1.7500 -2.0878 -2.3099
 2363TIP3    H228505   5.985   3.861  14.716 -2.0768  0.5315  0.3163
 2364TIP3   OH228506   5.697   4.065   5.364 -0.4509  0.3044  0.1124
 2364TIP3    H128507   5.724   3.983   5.404  0.1507 -0.0467 -0.9612
 2364TIP3    H228508   5.716   4.131   5.430  2.1947 -0.0446 -0.1967
 2365TIP3   OH228509   5.992   0.269  16.547  0.2412  0.6406  0.3763
 2365TIP3    H128510   6.000   0.322  16.627 -1.4084  2.4672 -0.5748
 2365TIP3    H228511   6.047   0.315  16.483  1.5686 -0.8209  0.3847
 2366TIP3   OH228512   3.300   3.625   0.660  0.3806 -0.3240  0.1948
 2366TIP3    H128513   3.215   3.618   0.703  0.6741 -0.8264  0.7014
 2366TIP3    H228514   3.299   3.558   0.592 -0.8896  1.7932 -2.0451
 2367TIP3   OH228515   1.637   2.898  17.171  0.6023  0.2283  0.5627
 2367TIP3    H128516   1.708   2.844  17.207  0.9302  0.6136  0.5000
 2367TIP3    H228517   1.643   2.980  17.220 -0.8361 -0.3126  1.7240
 2368TIP3   OH228518   1.607   0.485   2.224  0.6659 -0.5938 -0.3316
 2368TIP3    H128519   1.565   0.559   2.179 -0.0971 -1.0396 -0.3798
 2368TIP3    H228520   1.684   0.465   2.170  0.1751 -0.6382 -1.0420
 2369TIP3   OH228521   2.330   0.686   2.472 -0.3008 -0.2535  0.3223
 2369TIP3    H128522   2.321   0.602   2.428  0.7147 -0.1049 -0.1949
 2369TIP3    H228523   2.306   0.668   2.563 -0.1477 -1.0839  0.2053
 2370TIP3   OH228524   4.244   1.706  16.413  0.1136 -0.2791 -0.5515
 2370TIP3    H128525   4.286   1.636  16.463 -0.5054  0.5408  1.2038
 2370TIP3    H228526   4.317   1.757  16.378  0.5663 -0.6763 -0.2065
 2371TIP3   OH228527   6.408   3.896  12.905 -0.1884  0.1204  0.1400
 2371TIP3    H128528   6.425   3.990  12.902 -0.2977  0.1477  0.3969
 2371TIP3    H228529   6.492   3.856  12.926  0.1612  0.0649 -1.2260
 2372TIP3   OH228530   1.496   5.900   0.514 -0.2982  0.5222 -0.2337
 2372TIP3    H128531   1.401   5.908   0.509 -0.4109  0.1119  0.9646
 2372TIP3    H228532   1.528   5.944   0.435 -1.4717  0.7398 -0.6047
 2373TIP3   OH228533   4.742   0.815   5.857 -0.0912 -0.1600  0.2724
 2373TIP3    H128534   4.656   0.821   5.897 -0.1624  1.3824 -0.0899
 2373TIP3    H228535   4.771   0.726   5.877 -1.6935 -0.6540  0.5114
 2374TIP3   OH228536   3.854   2.668  11.629 -0.1748  0.5051 -0.1673
 2374TIP3    H128537   3.904   2.590  11.653  0.6766  0.4238 -2.0112
 2374TIP3    H228538   3.830   2.708  11.712  0.9095 -0.7641  0.7949
 2375TIP3   OH228539   1.333   5.636   5.015  0.1640 -0.0256 -0.1781
 2375TIP3    H128540   1.371   5.711   4.968  0.1258  0.5235  0.6570
 2375TIP3    H228541   1.278   5.675   5.082  0.3193 -0.8073  0.4104
 2376TIP3   OH228542   6.180   0.697   1.031 -0.1055 -0.1391  0.6062
 2376TIP3    H128543   6.116   0.733   1.093 -0.6003  1.0529 -0.5336
 2376TIP3    H228544   6.126   0.646   0.970  0.0999  0.3489  0.0092
 2377TIP3   OH228545   0.922   5.568  15.530  0.2276  0.3776 -0.2704
 2377TIP3    H128546   0.844   5.584  15.584  1.3171  1.5224  1.0262
 2377TIP3    H228547   0.974   5.506  15.580 -0.8717 -2.3300 -2.2375
 2378TIP3   OH228548   2.359   1.191   1.159  0.6881  0.0355 -0.1458
 2378TIP3    H128549   2.366   1.107   1.114  1.0798  0.9122 -1.8321
 2378TIP3    H228550   2.285   1.181   1.218 -0.0369 -1.1168 -1.1960
 2379TIP3   OH228551   2.690   0.950  13.381  0.7040 -0.1573 -0.0805
 2379TIP3    H128552   2.766   0.998  13.346  0.3082 -0.4617 -1.3968
 2379TIP3    H228553   2.615   1.006  13.360  0.2598 -1.2260 -1.4335
 2380TIP3   OH228554   3.998   4.175   1.716 -0.6375  0.5052  0.0203
 2380TIP3    H128555   4.038   4.100   1.761  1.2068  0.9284 -0.8507
 2380TIP3    H228556   3.951   4.136   1.642 -0.6281  0.1264  0.2116
 2381TIP3   OH228557   5.668   4.007  12.492  0.1209 -0.3939  0.2999
 2381TIP3    H128558   5.746   4.044  12.452 -1.0069 -0.0814 -1.7107
 2381TIP3    H228559   5.610   4.082  12.506 -0.6138 -0.8652 -0.1363
 2382TIP3   OH228560   1.057   0.135  13.817 -0.1725 -0.0903 -1.0027
 2382TIP3    H128561   0.998   0.190  13.868 -0.3871 -0.3559 -0.9623
 2382TIP3    H228562   1.015   0.128  13.731 -0.2644 -0.3718 -0.9395
 2383TIP3   OH228563   0.136   4.555   0.386 -0.1857 -0.2835  0.6986
 2383TIP3    H128564   0.046   4.583   0.406  0.4928  3.8002 -0.8629
 2383TIP3    H228565   0.128   4.505   0.305 -1.0810 -0.0658  0.6403
 2384TIP3   OH228566   4.664   5.496   5.956 -0.2016  0.6893 -0.6848
 2384TIP3    H128567   4.650   5.575   6.009 -0.7396 -1.6664  2.9742
 2384TIP3    H228568   4.758   5.494   5.940  0.4660  0.1137  2.7332
 2385TIP3   OH228569   0.398   4.527   4.559 -0.4209  0.6230  0.2885
 2385TIP3    H128570   0.430   4.445   4.523 -2.0207 -0.1795  0.6450
 2385TIP3    H228571   0.466   4.553   4.623  0.0400 -0.4604  0.2554
 2386TIP3   OH228572   3.270   2.358   0.449 -0.6529  0.2620  0.3669
 2386TIP3    H128573   3.232   2.274   0.475  0.2325  0.0991  1.1898
 2386TIP3    H228574   3.354   2.336   0.409 -1.1267  0.6640 -0.8993
 2387TIP3   OH228575   6.036   0.119  15.595  0.3374  0.2323  0.1296
 2387TIP3    H128576   6.020   0.077  15.511 -1.4791 -0.8907  0.9839
 2387TIP3    H228577   5.994   0.062  15.659  0.8540  1.5488  1.7144
 2388TIP3   OH228578   0.908   0.240  16.471  0.0863  0.4566  0.8600
 2388TIP3    H128579   0.908   0.274  16.561 -0.9263 -2.3363  2.0323
 2388TIP3    H228580   0.830   0.280  16.431 -1.0597 -0.3565  2.1707
 2389TIP3   OH228581   2.941   6.134   4.392  0.6205  0.2228  0.0994
 2389TIP3    H128582   2.920   6.211   4.339  1.8043  0.9955  0.7094
 2389TIP3    H228583   2.857   6.090   4.404  0.0347  1.0388 -0.8502
 2390TIP3   OH228584   0.349   3.167   5.211 -0.2631  0.2289  0.2164
 2390TIP3    H128585   0.441   3.165   5.238 -0.6408  1.6841  1.7855
 2390TIP3    H228586   0.343   3.100   5.143  1.5711 -1.1256  1.2803
 2391TIP3   OH228587   3.469   1.143   4.969  0.3021  0.6082 -0.0388
 2391TIP3    H128588   3.513   1.226   4.951  0.8916  0.0356 -1.3646
 2391TIP3    H228589   3.538   1.078   4.961  0.0984  0.0628  2.1188
 2392TIP3   OH228590   1.451   1.142   0.310 -0.2938 -0.3640  0.0776
 2392TIP3    H128591   1.522   1.194   0.347 -0.9165  1.3009 -0.9227
 2392TIP3    H228592   1.419   1.089   0.382  0.9759 -0.0285  0.9149
 2393TIP3   OH228593   6.688   3.833  12.960 -0.0744  0.3462 -0.4199
 2393TIP3    H128594   6.737   3.772  13.014 -2.0239  0.3828  1.5501
 2393TIP3    H228595   6.717   3.816  12.870  2.8072 -0.1868  0.5158
 2394TIP3   OH228596   6.555   6.443   0.626 -0.7769  0.3482  0.5084
 2394TIP3    H128597   6.595   6.412   0.707 -0.6915  0.8714  0.6701
 2394TIP3    H228598   6.461   6.434   0.641 -0.7361 -1.7080 -0.2002
 2395TIP3   OH228599   3.816   4.490   4.426 -0.5840  0.0978  0.0804
 2395TIP3    H128600   3.802   4.530   4.511  0.3811 -0.1863  0.3908
 2395TIP3    H228601   3.731   4.454   4.401 -0.5232 -1.3337  1.7295
 2396TIP3   OH228602   6.453   3.952   2.925 -0.2189 -0.2986  0.0694
 2396TIP3    H128603   6.507   4.028   2.902 -1.1228  0.5282  0.5924
 2396TIP3    H228604   6.486   3.882   2.870 -0.6108  0.9515 -1.8416
 2397TIP3   OH228605   5.348   2.823   2.475 -0.3443 -0.3221 -0.3451
 2397TIP3    H128606   5.305   2.793   2.396 -1.5236  2.4630 -0.9091
 2397TIP3    H228607   5.296   2.786   2.547 -1.3766 -0.1281 -0.9709
 2398TIP3   OH228608   6.049   4.943   5.579 -0.3513  0.0438  0.4017
 2398TIP3    H128609   6.024   5.007   5.645  0.0072  0.1113  0.4704
 2398TIP3    H228610   5.967   4.922   5.535 -0.3994  0.9145  0.0524
 2399TIP3   OH228611   5.761   6.722  13.065  0.1110 -0.0754  0.1097
 2399TIP3    H128612   5.811   6.684  13.137 -0.2593 -1.4850 -0.3505
 2399TIP3    H228613   5.680   6.671  13.062  0.0832  0.0183 -1.2456
 2400TIP3   OH228614   0.914   6.224   3.064 -0.3518  0.6735 -0.0546
 2400TIP3    H128615   0.858   6.251   2.991  0.4026  0.6194 -0.6681
 2400TIP3    H228616   0.941   6.135   3.042  2.3866  1.7090 -1.3229
 2401TIP3   OH228617   5.792   6.311  12.791  0.2013 -0.1590 -0.1644
 2401TIP3    H128618   5.698   6.318  12.807  0.5528 -0.5383  2.4021
 2401TIP3    H228619   5.799   6.256  12.713 -1.6783 -1.2953  0.4202
 2402TIP3   OH228620   4.399   0.871   4.772  0.1043  0.3755 -0.4197
 2402TIP3    H128621   4.328   0.879   4.707 -1.6034  1.8009  1.4975
 2402TIP3    H228622   4.373   0.796   4.826  1.6009 -0.9091 -1.3941
 2403TIP3   OH228623   4.604   3.299   1.759  0.2264 -0.0843 -0.1866
 2403TIP3    H128624   4.674   3.359   1.784 -1.3199  1.1134  1.5412
 2403TIP3    H228625   4.572   3.264   1.842 -2.6645  1.1394 -0.6679
 2404TIP3   OH228626   3.122   2.429   4.457  0.3806 -0.5325  0.0246
 2404TIP3    H128627   3.198   2.387   4.497 -0.5329 -0.3080  2.0912
 2404TIP3    H228628   3.113   2.512   4.503  1.3899  1.5196 -3.1272
 2405TIP3   OH228629   3.811   1.583  11.036 -0.1354 -0.4275  0.4854
 2405TIP3    H128630   3.862   1.552  10.961 -0.9826 -0.8952  0.0852
 2405TIP3    H228631   3.876   1.608  11.101  0.5966 -1.0656  0.0107
 2406TIP3   OH228632   2.780   4.452   0.508 -0.0342  0.8651 -0.3924
 2406TIP3    H128633   2.833   4.514   0.557 -0.8600  0.4097  1.1494
 2406TIP3    H228634   2.843   4.388   0.474  0.6044  1.4655 -0.3562
 2407TIP3   OH228635   2.083   4.208  16.308  0.1408 -0.4313  0.3646
 2407TIP3    H128636   2.084   4.197  16.213 -1.5667 -0.5796  0.3244
 2407TIP3    H228637   2.146   4.277  16.325 -2.2748  2.4696 -1.3476
 2408TIP3   OH228638   5.094   0.822   2.112  0.0266 -0.0429  0.1959
 2408TIP3    H128639   5.083   0.877   2.033  0.3962 -0.1272  0.0865
 2408TIP3    H228640   5.110   0.885   2.182  2.9478 -0.0756 -0.3311
 2409TIP3   OH228641   3.569   4.328   4.068  0.0887 -0.0547  0.2470
 2409TIP3    H128642   3.608   4.388   4.005 -1.8191 -0.3157 -1.2785
 2409TIP3    H228643   3.564   4.378   4.149  1.2606  0.8031 -0.1839
 2410TIP3   OH228644   3.629   3.046   6.304 -0.6134  0.2734  0.3985
 2410TIP3    H128645   3.570   3.005   6.241 -2.1085 -0.8612  2.4309
 2410TIP3    H228646   3.714   3.005   6.288 -1.2884 -1.0417  0.0413
 2411TIP3   OH228647   4.000   0.954   3.259  0.1548 -0.4316 -0.2481
 2411TIP3    H128648   4.059   0.917   3.324 -0.2023  0.7859  0.8297
 2411TIP3    H228649   3.927   0.892   3.254  1.9172 -2.5204 -2.4064
 2412TIP3   OH228650   6.382   3.899  15.491 -1.1220 -0.6899 -0.1241
 2412TIP3    H128651   6.454   3.948  15.452 -1.7944  0.4085 -0.0129
 2412TIP3    H228652   6.311   3.904  15.428 -0.3234 -4.1216 -1.5403
 2413TIP3   OH228653   0.366   4.441  16.445 -0.3495 -0.3330  0.4831
 2413TIP3    H128654   0.412   4.424  16.363 -3.6158 -0.6935 -1.4467
 2413TIP3    H228655   0.341   4.354  16.477  1.5015 -0.2632  2.3879
 2414TIP3   OH228656   1.666   0.762   5.643 -0.2452  0.3021 -0.6000
 2414TIP3    H128657   1.601   0.715   5.695  1.4500 -0.5484  0.8205
 2414TIP3    H228658   1.637   0.854   5.646 -0.7528  0.1140  0.9650
 2415TIP3   OH228659   6.418   4.547  10.962  0.3226  0.4240 -0.2109
 2415TIP3    H128660   6.491   4.507  10.915 -0.4057 -0.4883 -0.5993
 2415TIP3    H228661   6.341   4.526  10.909 -0.3072  0.7782  0.5453
 2416TIP3   OH228662   1.794   3.238  11.467 -0.5021  0.5291  0.1057
 2416TIP3    H128663   1.762   3.189  11.542  0.6786  0.1806  0.3983
 2416TIP3    H228664   1.744   3.203  11.392 -3.2488  2.3462  0.9352
 2417TIP3   OH228665   2.943   2.823  12.190  0.4089  0.1141  0.3192
 2417TIP3    H128666   2.955   2.887  12.261  0.6766 -0.7156  1.0320
 2417TIP3    H228667   2.877   2.763  12.223  0.5382 -0.2831 -0.1391
 2418TIP3   OH228668   1.766   6.647   5.099  0.0464  0.0954 -0.2668
 2418TIP3    H128669   1.773   6.660   5.193 -1.2080  0.0737 -0.1554
 2418TIP3    H228670   1.788   6.554   5.086  1.8786  0.4950 -0.2166
 2419TIP3   OH228671   4.089   1.320   3.140  0.4858  0.1641  0.5267
 2419TIP3    H128672   4.151   1.265   3.188  0.2657 -0.6865 -0.1453
 2419TIP3    H228673   4.021   1.260   3.110  0.2481  0.7960 -0.2418
 2420TIP3   OH228674   4.498   4.886   5.378 -0.4953 -0.0409 -0.0423
 2420TIP3    H128675   4.451   4.949   5.432 -1.0817 -0.8954  0.4641
 2420TIP3    H228676   4.503   4.807   5.432  1.9353  0.1539  0.1044
 2421TIP3   OH228677   1.014   5.734   4.451  0.6016 -0.3402  0.8362
 2421TIP3    H128678   0.940   5.757   4.396  1.9151  1.0697 -0.4421
 2421TIP3    H228679   0.975   5.702   4.533 -1.3782 -0.8521 -0.2596
 2422TIP3   OH228680   2.872   6.610   1.914 -0.1629  0.5932 -0.1342
 2422TIP3    H128681   2.810   6.683   1.926 -0.7047  0.0480  0.4166
 2422TIP3    H228682   2.818   6.531   1.922  0.7562  0.0826  1.3340
 2423TIP3   OH228683   0.824   6.161  15.317  0.7728 -0.2109  0.5160
 2423TIP3    H128684   0.757   6.094  15.331 -0.5438  1.0402  0.5169
 2423TIP3    H228685   0.843   6.194  15.405  0.4814  0.2693  0.4005
 2424TIP3   OH228686   3.795   3.076  13.660 -0.5765  0.3991  0.1071
 2424TIP3    H128687   3.801   2.995  13.609  2.8709 -1.3770  2.9095
 2424TIP3    H228688   3.783   3.047  13.750  1.0341  2.9457  1.2554
 2425TIP3   OH228689   6.692   6.437  16.158  0.4826  0.2192 -0.8315
 2425TIP3    H128690   6.633   6.395  16.096  1.4960  0.2712 -1.8743
 2425TIP3    H228691   6.683   6.530  16.141 -0.0289  0.2991 -0.1489
 2426TIP3   OH228692   1.761   2.273   1.701  0.2893  0.1368 -0.1896
 2426TIP3    H128693   1.826   2.237   1.762  1.4357  1.0303 -0.8436
 2426TIP3    H228694   1.761   2.211   1.627 -0.3346 -0.3827  0.2330
 2427TIP3   OH228695   5.014   2.577   0.521  0.4126 -0.5785  0.1424
 2427TIP3    H128696   5.015   2.622   0.437  0.3921 -1.0961 -0.1345
 2427TIP3    H228697   4.973   2.492   0.503  2.2749 -1.5434  0.2283
 2428TIP3   OH228698   5.332   0.641   3.662  0.6442  0.2876  0.4215
 2428TIP3    H128699   5.387   0.640   3.584  0.9800 -0.7439  0.6547
 2428TIP3    H228700   5.270   0.570   3.648 -0.7966  1.5769  0.0622
 2429TIP3   OH228701   0.569   4.392   5.634 -0.0943  0.2277  0.2213
 2429TIP3    H128702   0.611   4.309   5.655 -1.9117 -0.8195 -0.0532
 2429TIP3    H228703   0.573   4.443   5.715 -0.2320 -0.7060  0.8293
 2430TIP3   OH228704   6.597   2.254   3.053 -0.1105 -0.1747 -0.4178
 2430TIP3    H128705   6.572   2.211   3.135 -0.6640  0.2836 -0.3424
 2430TIP3    H228706   6.545   2.211   2.986  0.3712 -0.5755 -0.5408
 2431TIP3   OH228707   3.447   5.138   4.542 -0.0975  0.0945  0.3483
 2431TIP3    H128708   3.404   5.145   4.457  0.1911 -1.8299  0.0162
 2431TIP3    H228709   3.409   5.061   4.583  0.6293  0.3077  1.4637
 2432TIP3   OH228710   0.858   1.540  15.069  0.3029  0.3359  0.5328
 2432TIP3    H128711   0.822   1.613  15.019 -1.9658 -0.3879  0.9900
 2432TIP3    H228712   0.817   1.462  15.031  1.8849 -0.6346  0.7266
 2433TIP3   OH228713   2.038   5.937   2.904  0.6181 -0.5128  0.0038
 2433TIP3    H128714   2.034   5.848   2.869  1.2112 -0.5107 -0.0712
 2433TIP3    H228715   2.015   5.927   2.997  1.8391 -0.9245  0.2892
 2434TIP3   OH228716   4.960   0.715  15.809  0.5678  0.1061 -0.0702
 2434TIP3    H128717   4.947   0.707  15.714 -0.5081  2.9751 -0.2584
 2434TIP3    H228718   4.933   0.631  15.844  0.8153 -0.9686 -2.2925
 2435TIP3   OH228719   0.196   2.577   0.239 -0.5273 -0.2293 -0.0239
 2435TIP3    H128720   0.124   2.590   0.178  1.4444 -0.1889 -2.4742
 2435TIP3    H228721   0.162   2.515   0.304 -2.2894 -1.3519 -1.9154
 2436TIP3   OH228722   6.633   2.324  15.966 -0.2132  0.0571  0.5942
 2436TIP3    H128723   6.691   2.397  15.943 -1.8194  0.3283 -3.2651
 2436TIP3    H228724   6.564   2.364  16.019 -0.4986  1.1477 -0.5750
 2437TIP3   OH228725   1.838   5.419  16.711  0.3436 -0.5928  0.5239
 2437TIP3    H128726   1.909   5.395  16.770  1.3593  0.0959 -0.3918
 2437TIP3    H228727   1.873   5.403  16.623 -0.6383 -0.2637  0.0602
 2438TIP3   OH228728   0.535   6.629   5.477 -0.1802 -0.0256  0.5098
 2438TIP3    H128729   0.556   6.673   5.394 -0.5196 -0.2709  0.2903
 2438TIP3    H228730   0.557   6.537   5.461  3.4386  0.4372  1.9376
 2439TIP3   OH228731   3.989   1.203  10.783  0.0735 -0.6931 -0.1162
 2439TIP3    H128732   4.020   1.186  10.694 -1.2557  0.0373 -0.7454
 2439TIP3    H228733   3.899   1.170  10.784  0.2466 -1.1956  1.1360
 2440TIP3   OH228734   3.089   4.645  14.208  0.1466  0.2759  0.3752
 2440TIP3    H128735   2.994   4.632  14.212  0.3002 -0.7842  0.9971
 2440TIP3    H228736   3.116   4.654  14.299  0.6790  0.3430  0.2134
 2441TIP3   OH228737   0.296   5.120   4.786 -0.0464 -0.0251  0.4888
 2441TIP3    H128738   0.371   5.066   4.765  2.4203  3.8672 -2.1106
 2441TIP3    H228739   0.302   5.134   4.880  2.6374  0.2415  0.3564
 2442TIP3   OH228740   5.225   2.656  16.350  0.4853 -0.5015 -0.0095
 2442TIP3    H128741   5.236   2.675  16.257 -2.3581 -1.5811 -0.6581
 2442TIP3    H228742   5.141   2.696  16.373 -1.3444 -4.3593  0.7432
 2443TIP3   OH228743   2.185   2.468   3.045 -0.6812 -0.2443 -0.5513
 2443TIP3    H128744   2.168   2.374   3.045  3.9983 -1.3664  0.3549
 2443TIP3    H228745   2.245   2.482   2.972 -0.5795  1.8552 -0.1323
 2444TIP3   OH228746   1.625   5.199   5.721  0.3487  0.1494 -0.3815
 2444TIP3    H128747   1.586   5.111   5.730  1.1904 -0.2375 -0.4290
 2444TIP3    H228748   1.650   5.205   5.629 -1.3176  1.1529 -0.8141
 2445TIP3   OH228749   5.546   0.700   3.390  0.2268 -0.1498 -0.4105
 2445TIP3    H128750   5.638   0.693   3.416 -0.5379 -1.7427  2.3355
 2445TIP3    H228751   5.542   0.779   3.337  3.1058  0.1716 -0.3335
 2446TIP3   OH228752   0.175   6.493  11.128 -0.1028 -0.4491  1.0426
 2446TIP3    H128753   0.109   6.425  11.117 -0.0054 -0.4496  0.3879
 2446TIP3    H228754   0.252   6.459  11.082 -0.2137  0.3147  0.2610
 2447TIP3   OH228755   0.347   0.822  15.801  0.3232  0.2430 -0.2465
 2447TIP3    H128756   0.258   0.842  15.770  0.3699  0.2972 -0.3468
 2447TIP3    H228757   0.404   0.846  15.727  0.4464  0.4825 -0.0739
 2448TIP3   OH228758   0.506   5.985  15.632 -0.3344 -0.4350 -0.1992
 2448TIP3    H128759   0.477   5.992  15.723  1.3631  0.5806  0.3057
 2448TIP3    H228760   0.506   6.075  15.599 -1.7227 -0.8688 -1.5110
 2449TIP3   OH228761   0.603   0.530  12.699  0.4791 -0.1222  0.0246
 2449TIP3    H128762   0.638   0.611  12.662  1.7817 -0.4452  0.5176
 2449TIP3    H228763   0.596   0.470  12.625  1.6595 -0.2821  0.0330
 2450TIP3   OH228764   4.683   5.874   1.727  0.3371 -0.1557 -0.2070
 2450TIP3    H128765   4.734   5.927   1.789  2.0796 -0.2556 -1.4751
 2450TIP3    H228766   4.592   5.901   1.742  0.5499 -0.7606  2.9317
 2451TIP3   OH228767   5.172   4.991   6.002 -0.7302  0.1245  0.2294
 2451TIP3    H128768   5.150   4.987   5.909  1.0275  1.0356 -0.2603
 2451TIP3    H228769   5.182   4.900   6.029 -1.8112 -0.1642 -0.3163
 2452TIP3   OH228770   4.076   5.786   4.157 -0.1122  0.3222 -0.2884
 2452TIP3    H128771   4.009   5.768   4.091 -0.5923  0.2912  0.2002
 2452TIP3    H228772   4.159   5.787   4.109 -0.5353  1.0647 -1.0196
 2453TIP3   OH228773   5.381   6.641   0.574  0.4884 -0.2840 -0.4733
 2453TIP3    H128774   5.338   6.584   0.510 -2.0738 -0.3022  1.1012
 2453TIP3    H228775   5.343   6.728   0.557 -0.2866 -0.3065  0.9768
 2454TIP3   OH228776   6.066   4.775  14.334 -0.4844 -0.4104 -0.1953
 2454TIP3    H128777   6.084   4.868  14.320  0.1241 -0.6923 -1.4401
 2454TIP3    H228778   6.071   4.736  14.247 -1.7514 -1.4545  0.1597
 2455TIP3   OH228779   3.501   5.253   5.406 -0.0180 -0.0732 -0.1800
 2455TIP3    H128780   3.493   5.347   5.391  0.0162 -0.1385 -0.6294
 2455TIP3    H228781   3.564   5.224   5.340  1.1705 -0.1646  0.9403
 2456TIP3   OH228782   5.647   6.666  16.793 -0.0908 -0.1218  0.4283
 2456TIP3    H128783   5.552   6.667  16.805 -0.1355 -0.8927  0.2240
 2456TIP3    H228784   5.682   6.693  16.878 -0.5025  1.5649  0.0851
 2457TIP3   OH228785   3.055   4.599   5.626 -0.0807 -0.3168 -0.4341
 2457TIP3    H128786   3.029   4.522   5.677 -1.5349  0.6556  0.3506
 2457TIP3    H228787   2.997   4.669   5.656  0.1936  0.7301 -2.1903
 2458TIP3   OH228788   1.426   6.207  14.809  0.5819 -0.2790 -0.2749
 2458TIP3    H128789   1.387   6.206  14.721 -0.4437 -0.3688  0.1683
 2458TIP3    H228790   1.361   6.165  14.865  0.6715  0.8770  0.7464
 2459TIP3   OH228791   4.133   6.756   0.780  0.2909 -0.6774 -0.3213
 2459TIP3    H128792   4.122   6.836   0.831 -0.1430 -1.6266  1.1401
 2459TIP3    H228793   4.202   6.777   0.717 -0.1012  0.9587 -0.2419
 2460TIP3   OH228794   0.254   0.545  15.889  0.4968 -0.2827 -0.2199
 2460TIP3    H128795   0.268   0.534  15.983 -0.8306  0.8005  0.1264
 2460TIP3    H228796   0.271   0.638  15.873  0.3152 -0.3768 -0.9838
 2461TIP3   OH228797   3.618   2.184   3.968  1.2417 -0.1716 -0.0172
 2461TIP3    H128798   3.570   2.225   4.040 -2.0729 -0.1142 -2.0782
 2461TIP3    H228799   3.665   2.257   3.927 -2.5829  1.3675 -2.1056
 2462TIP3   OH228800   4.274   5.170  15.253  0.4717  0.4362  0.0107
 2462TIP3    H128801   4.212   5.132  15.191  0.3521  1.1836 -0.3377
 2462TIP3    H228802   4.358   5.169  15.207  1.0930 -2.0098  1.0390
 2463TIP3   OH228803   4.980   6.216   3.228 -0.8218  0.1381 -0.2956
 2463TIP3    H128804   4.991   6.308   3.204 -0.0088 -0.6473 -3.4562
 2463TIP3    H228805   5.069   6.180   3.228 -1.1296 -0.6928  0.8151
 2464TIP3   OH228806   0.822   6.762  10.726 -0.5769  0.5804 -0.0315
 2464TIP3    H128807   0.814   6.777  10.820  0.1310  2.0832 -0.1805
 2464TIP3    H228808   0.900   6.811  10.700 -0.7266  0.1445 -1.3971
 2465TIP3   OH228809   0.019   5.897  17.216  0.5631 -0.3655  0.3069
 2465TIP3    H128810   0.093   5.944  17.255 -0.5157  0.6944  1.1410
 2465TIP3    H228811   0.005   5.822  17.273  0.4808 -0.1225  0.6067
 2466TIP3   OH228812   5.384   0.098   1.843 -0.5344 -0.2149  0.0029
 2466TIP3    H128813   5.374   0.108   1.748 -0.4948  2.2370  0.1956
 2466TIP3    H228814   5.432   0.016   1.854  1.6967  0.6910 -2.2377
 2467TIP3   OH228815   3.129   2.791  15.307  0.2270  0.5396 -0.2149
 2467TIP3    H128816   3.116   2.776  15.213  0.0616 -1.1876  0.0480
 2467TIP3    H228817   3.214   2.835  15.313  0.9128 -0.5920 -1.1135
 2468TIP3   OH228818   3.583   6.596   1.135 -0.2317  0.0174 -0.2678
 2468TIP3    H128819   3.584   6.679   1.087  1.2547  0.0196 -0.2506
 2468TIP3    H228820   3.543   6.534   1.073 -0.4338  0.5141 -0.6441
 2469TIP3   OH228821   1.540   5.890   0.795 -0.5577  0.5182  0.4063
 2469TIP3    H128822   1.546   5.941   0.715 -2.0958  0.1888  0.0411
 2469TIP3    H228823   1.511   5.803   0.766 -1.0215  0.3614  1.2995
 2470TIP3   OH228824   2.181   3.470  12.195 -0.2167 -0.2712  0.1579
 2470TIP3    H128825   2.101   3.482  12.143 -0.1741  2.5129  0.5697
 2470TIP3    H228826   2.150   3.446  12.282 -0.6516  0.6287  0.2698
 2471TIP3   OH228827   1.637   6.199  16.811  0.5587 -0.0895 -0.1750
 2471TIP3    H128828   1.722   6.164  16.835 -0.7624 -1.6761  2.6580
 2471TIP3    H228829   1.631   6.282  16.858  0.0870 -0.6044  0.7063
 2472TIP3   OH228830   5.979   0.648  12.415 -0.1885 -0.1576  0.9134
 2472TIP3    H128831   5.987   0.708  12.340  0.9311 -0.8432  0.4608
 2472TIP3    H228832   6.057   0.593  12.410 -0.3785 -0.5841  2.2796
 2473TIP3   OH228833   0.423   6.282  11.664  0.1146 -0.6385  0.0876
 2473TIP3    H128834   0.492   6.302  11.726 -0.9855  0.4488  1.0147
 2473TIP3    H228835   0.361   6.355  11.672  1.3531  1.2974 -4.5092
 2474TIP3   OH228836   3.824   0.520  12.621  0.3607  0.4034  0.0593
 2474TIP3    H128837   3.768   0.594  12.646  0.9646  0.6755  0.6506
 2474TIP3    H228838   3.912   0.557  12.619  0.3590  0.4284 -2.6757
 2475TIP3   OH228839   0.348   4.662  14.813  0.2366 -0.2894 -0.1748
 2475TIP3    H128840   0.271   4.656  14.870  0.0375 -0.1063 -0.4229
 2475TIP3    H228841   0.313   4.666  14.724  0.5647 -1.0364 -0.3445
 2476TIP3   OH228842   5.419   5.833   3.703 -0.0750 -0.2794  0.3013
 2476TIP3    H128843   5.450   5.923   3.693 -1.0875  0.2045  1.2141
 2476TIP3    H228844   5.452   5.805   3.788 -1.1908 -0.1389  0.7970
 2477TIP3   OH228845   2.301   4.118   2.015 -0.1619 -0.0913 -0.1700
 2477TIP3    H128846   2.301   4.141   1.922 -0.1538 -1.5860 -0.5577
 2477TIP3    H228847   2.220   4.157   2.049 -0.7182 -0.4396 -1.0473
 2478TIP3   OH228848   4.900   0.933  12.603 -0.2007 -0.4550  0.2767
 2478TIP3    H128849   4.874   0.861  12.546 -0.6050  0.4763 -0.7676
 2478TIP3    H228850   4.824   0.947  12.660  0.4741 -1.8564  1.5800
 2479TIP3   OH228851   6.111   4.336   4.771 -0.7419 -0.0390  0.6772
 2479TIP3    H128852   6.170   4.353   4.844  1.9592 -0.9526 -1.1230
 2479TIP3    H228853   6.077   4.422   4.746  0.2720  0.6006  1.4349
 2480TIP3   OH228854   4.890   5.845  12.268 -0.3334  0.1948  0.4545
 2480TIP3    H128855   4.902   5.846  12.173  0.7120 -1.4284  0.5378
 2480TIP3    H228856   4.808   5.797  12.281 -1.1180  1.4422  0.3675
 2481TIP3   OH228857   2.355   6.749   2.313 -0.5759 -0.0746  0.2631
 2481TIP3    H128858   2.285   6.738   2.249 -4.0032  1.3226  3.4483
 2481TIP3    H228859   2.416   6.810   2.271 -0.8458 -1.6969 -2.8316
 2482TIP3   OH228860   4.625   5.194   3.112  0.6482  0.5189  0.8779
 2482TIP3    H128861   4.631   5.214   3.206 -0.2518  0.7786  0.8886
 2482TIP3    H228862   4.627   5.280   3.070 -0.4035  0.4887  0.7511
 2483TIP3   OH228863   0.314   5.952   1.387  0.2327 -0.5447 -0.1695
 2483TIP3    H128864   0.386   5.913   1.437  0.4095  0.2632  0.2323
 2483TIP3    H228865   0.291   6.030   1.437 -0.8018 -0.6943 -0.4053
 2484TIP3   OH228866   2.500   1.376   0.939  0.9911  0.5268  0.4800
 2484TIP3    H128867   2.527   1.434   1.010  2.7465  0.2061  0.1194
 2484TIP3    H228868   2.422   1.333   0.972  0.3771  2.1478  1.2535
 2485TIP3   OH228869   0.663   4.559   3.755 -0.2739  0.6639 -0.4256
 2485TIP3    H128870   0.710   4.484   3.793  0.8507  1.5625  0.0469
 2485TIP3    H228871   0.596   4.580   3.820 -0.8226 -0.1301 -0.7207
 2486TIP3   OH228872   5.559   4.077   5.121 -0.1869 -0.3131 -0.5053
 2486TIP3    H128873   5.603   4.075   5.207 -0.6884  1.2741 -0.1823
 2486TIP3    H228874   5.627   4.052   5.059  0.2556 -1.2363  0.3202
 2487TIP3   OH228875   0.016   5.295  14.907 -0.1369  0.0986 -0.2923
 2487TIP3    H128876   0.068   5.227  14.950 -0.2389  0.4080  0.3280
 2487TIP3    H228877   0.046   5.377  14.946 -0.2766  0.3813 -0.7647
 2488TIP3   OH228878   0.031   5.814   1.291  0.1153  0.6499 -0.0499
 2488TIP3    H128879   0.103   5.838   1.233 -0.1068  0.2636 -0.4860
 2488TIP3    H228880  -0.048   5.842   1.245 -0.0493  0.5709  0.1795
 2489TIP3   OH228881   0.990   0.638  14.706  0.2438  0.8436  0.0485
 2489TIP3    H128882   0.911   0.685  14.731  0.5042  0.3433  1.9105
 2489TIP3    H228883   1.032   0.615  14.789  1.5714 -0.2106 -0.8760
 2490TIP3   OH228884   3.911   0.087   5.875  0.7872 -0.1009  0.1598
 2490TIP3    H128885   3.947   0.153   5.933  1.9826  0.2480 -0.9403
 2490TIP3    H228886   3.985   0.030   5.854  0.1219 -0.8741 -0.1300
 2491TIP3   OH228887   5.090   2.434   5.763 -0.1549  0.0939  0.3271
 2491TIP3    H128888   5.067   2.526   5.754 -0.5100 -0.1458 -1.6134
 2491TIP3    H228889   5.069   2.413   5.854 -0.5068  1.8021  0.6693
 2492TIP3   OH228890   3.057   3.075  11.389 -0.8403 -0.9552 -0.7704
 2492TIP3    H128891   3.036   3.078  11.482 -1.0599  0.5366 -0.8324
 2492TIP3    H228892   3.152   3.073  11.385 -0.5628  3.0394 -0.4271
 2493TIP3   OH228893   1.673   5.496  14.134  0.2911  0.1173 -0.2541
 2493TIP3    H128894   1.636   5.576  14.098 -0.9396  0.3852  1.4589
 2493TIP3    H228895   1.607   5.429  14.116  1.2266 -0.4963 -1.5054
 2494TIP3   OH228896   3.306   3.155   3.891 -0.7094  0.4353 -0.4471
 2494TIP3    H128897   3.299   3.078   3.948 -3.5566  0.0358 -1.1741
 2494TIP3    H228898   3.364   3.127   3.820 -0.4506 -0.4894  0.1121
 2495TIP3   OH228899   6.254   4.756  11.033 -0.4024 -0.1283  0.3421
 2495TIP3    H128900   6.329   4.703  11.006 -1.0263 -0.5656 -0.5590
 2495TIP3    H228901   6.284   4.800  11.113  0.6329 -0.6885  0.2802
 2496TIP3   OH228902   1.360   4.076   5.405 -0.3697 -0.3098 -0.1463
 2496TIP3    H128903   1.284   4.105   5.455 -1.8383 -1.1055 -1.8049
 2496TIP3    H228904   1.374   3.986   5.433  2.2149  0.8132  2.6789
 2497TIP3   OH228905   6.679   4.086  13.130  0.0365  0.3514 -0.3696
 2497TIP3    H128906   6.588   4.066  13.151 -0.1649  0.2720 -1.2525
 2497TIP3    H228907   6.708   4.012  13.077  1.2207 -0.5614  1.4754
 2498TIP3   OH228908   1.833   5.008   0.897  0.5063  0.0701 -0.8237
 2498TIP3    H128909   1.920   5.044   0.879  1.8891 -1.1229  2.6747
 2498TIP3    H228910   1.841   4.914   0.880 -0.0386 -0.0749 -0.3367
 2499TIP3   OH228911   2.299   2.782   5.051  0.3333  0.4834 -0.3169
 2499TIP3    H128912   2.237   2.765   4.981  0.8238 -0.4063 -0.5504
 2499TIP3    H228913   2.326   2.873   5.037 -0.4355  0.6839 -0.5793
 2500TIP3   OH228914   4.418   1.713  10.626 -0.2302 -0.1000 -0.2240
 2500TIP3    H128915   4.336   1.740  10.586 -0.4791 -0.9673 -0.3357
 2500TIP3    H228916   4.395   1.636  10.678  0.3005  0.3343  0.6814
 2501TIP3   OH228917   2.383   1.421   3.600 -0.4117 -0.8287  0.4498
 2501TIP3    H128918   2.406   1.453   3.513 -0.8676  0.3148  0.7346
 2501TIP3    H228919   2.408   1.328   3.599  0.2238 -0.6598 -0.6590
 2502TIP3   OH228920   5.577   0.232   3.070 -0.1698  0.7197  0.2836
 2502TIP3    H128921   5.483   0.212   3.072  0.3117 -1.7546  1.5030
 2502TIP3    H228922   5.601   0.248   3.161  0.4327  2.4954 -0.1371
 2503TIP3   OH228923   3.489   3.500   0.979  0.0487  0.3107  0.4399
 2503TIP3    H128924   3.414   3.554   0.955 -0.3506 -0.0808  0.7914
 2503TIP3    H228925   3.558   3.562   1.000 -0.6384  0.7141  1.6062
 2504TIP3   OH228926   3.912   6.233  12.284 -0.3093  0.0402 -0.7225
 2504TIP3    H128927   3.959   6.193  12.210  0.3206  1.3625 -1.0688
 2504TIP3    H228928   3.973   6.225  12.357 -0.6427 -0.6305 -0.5132
 2505TIP3   OH228929   0.446   2.993   3.058 -0.2446 -0.0053  0.8312
 2505TIP3    H128930   0.402   2.947   3.130 -0.4260 -0.2516  0.5607
 2505TIP3    H228931   0.496   3.062   3.102 -0.1300 -0.3320  1.2190
 2506TIP3   OH228932   4.606   6.758   4.037 -0.4370  0.1218 -0.1079
 2506TIP3    H128933   4.615   6.663   4.035  2.3279  0.1920  2.4330
 2506TIP3    H228934   4.674   6.790   3.978 -0.5326  0.5617  0.0167
 2507TIP3   OH228935   1.124   6.045  11.739  0.1978  0.2075  0.1010
 2507TIP3    H128936   1.197   6.006  11.690  3.2023  2.2783  2.5377
 2507TIP3    H228937   1.092   5.975  11.795  1.6560 -0.3098  0.3288
 2508TIP3   OH228938   5.433   2.813  12.152 -0.5930 -0.0032  0.4865
 2508TIP3    H128939   5.471   2.748  12.093 -0.1486  1.5567 -1.0462
 2508TIP3    H228940   5.351   2.839  12.110 -0.0709  1.4267  0.2976
 2509TIP3   OH228941   6.137   2.006  16.121  0.1453  0.8010 -0.0747
 2509TIP3    H128942   6.113   2.052  16.040 -1.0734 -2.0040 -1.4659
 2509TIP3    H228943   6.227   2.031  16.137  0.8165  0.6715 -2.9768
 2510TIP3   OH228944   5.672   1.969   4.024 -0.4521  0.5506  0.2556
 2510TIP3    H128945   5.662   1.928   3.939  0.4911  1.1665 -0.1702
 2510TIP3    H228946   5.582   1.983   4.055 -0.8259  1.1049 -1.0188
 2511TIP3   OH228947   1.200   3.714   3.419  0.1700  0.4365  0.0454
 2511TIP3    H128948   1.227   3.776   3.352 -0.2722 -0.2220 -0.7602
 2511TIP3    H228949   1.277   3.707   3.476 -0.6520  3.7324  1.7761
 2512TIP3   OH228950   3.914   1.418   5.781 -0.1157  0.4082  0.0357
 2512TIP3    H128951   3.843   1.366   5.743 -0.7078  0.3406  1.1735
 2512TIP3    H228952   3.993   1.386   5.737 -0.6193 -0.5547 -0.2130
 2513TIP3   OH228953   3.244   1.853   6.010 -0.1453 -0.2627 -0.3188
 2513TIP3    H128954   3.279   1.831   5.924 -0.5087 -1.4248 -0.1809
 2513TIP3    H228955   3.160   1.808   6.015  0.2064 -0.8323  0.9299
 2514TIP3   OH228956   6.342   4.904   4.258 -0.0786 -0.6615  0.1815
 2514TIP3    H128957   6.359   4.815   4.288  0.7911 -0.8655 -0.8488
 2514TIP3    H228958   6.416   4.925   4.201  0.0608  0.9527  0.8772
 2515TIP3   OH228959   2.023   3.218  13.385 -0.0147  0.1580  0.3821
 2515TIP3    H128960   2.021   3.234  13.290  0.8023 -0.3544  0.2719
 2515TIP3    H228961   2.111   3.246  13.412 -0.6555  1.4861  1.2198
 2516TIP3   OH228962   5.737   3.619  16.714 -0.2434  0.0148  0.2664
 2516TIP3    H128963   5.717   3.703  16.673 -1.7056 -0.5403 -0.2369
 2516TIP3    H228964   5.829   3.625  16.737 -0.2969  1.7313  0.1884
 2517TIP3   OH228965   2.293   4.018  16.309 -0.2617 -0.1287  0.2458
 2517TIP3    H128966   2.296   4.021  16.213  0.3478  0.7617  0.2819
 2517TIP3    H228967   2.213   4.066  16.332  1.2826  2.6673  0.2572
 2518TIP3   OH228968   5.767   4.324  10.862  0.5149  0.1647 -0.0011
 2518TIP3    H128969   5.730   4.389  10.803  2.0341  1.7520  0.7162
 2518TIP3    H228970   5.786   4.372  10.942  1.2394 -1.2807  0.7280
 2519TIP3   OH228971   6.446   6.624  11.151 -0.1784 -0.1444  0.4347
 2519TIP3    H128972   6.386   6.580  11.092 -1.3838 -0.1102  1.5852
 2519TIP3    H228973   6.532   6.613  11.111 -0.7717 -1.3717 -0.5634
 2520TIP3   OH228974   4.245   4.482  15.265 -0.6546 -0.1561 -0.2514
 2520TIP3    H128975   4.154   4.487  15.237 -0.1914  3.3592 -1.5660
 2520TIP3    H228976   4.248   4.529  15.348 -0.0442 -0.3625 -0.1470
 2521TIP3   OH228977   4.555   1.966  10.520  0.0545  0.2723  0.3036
 2521TIP3    H128978   4.491   1.938  10.455  0.5347  0.7837 -0.4082
 2521TIP3    H228979   4.592   1.885  10.554  1.5111 -0.0293 -1.8038
 2522TIP3   OH228980   4.725   6.480  15.831  0.0658  0.2500 -0.5819
 2522TIP3    H128981   4.773   6.558  15.802  1.6985 -0.2082  0.7174
 2522TIP3    H228982   4.729   6.483  15.926 -1.7259 -0.3405 -0.4530
 2523TIP3   OH228983   4.947   5.183  17.239 -0.5867  0.2427 -0.2273
 2523TIP3    H128984   4.871   5.131  17.215 -0.4859  0.9089 -2.1325
 2523TIP3    H228985   4.929   5.210  17.330 -2.5123  0.1999 -0.5447
 2524TIP3   OH228986   4.692   1.932  12.940 -0.1098 -0.1031  0.1538
 2524TIP3    H128987   4.678   1.841  12.913  3.3081 -1.1616  1.4044
 2524TIP3    H228988   4.742   1.970  12.867  0.7643 -0.0675  0.7576
 2525TIP3   OH228989   3.998   0.411  16.373 -0.5719  0.5584  0.5573
 2525TIP3    H128990   3.941   0.423  16.448 -1.0425  2.5495 -0.0698
 2525TIP3    H228991   3.942   0.372  16.306 -0.1428 -1.2515  1.1966
 2526TIP3   OH228992   5.896   5.509  15.566 -0.2500  0.0013  0.3060
 2526TIP3    H128993   5.810   5.547  15.582 -1.2478 -2.1361  0.3403
 2526TIP3    H228994   5.915   5.458  15.645  0.8744  0.1030  0.1217
 2527TIP3   OH228995   2.395   6.784   3.225 -0.1009  0.4950  0.1226
 2527TIP3    H128996   2.456   6.828   3.283 -1.0973  1.7324  0.2717
 2527TIP3    H228997   2.450   6.745   3.157  0.9264  0.5575  0.8928
 2528TIP3   OH228998   4.650   0.169  10.256  0.2547  0.9634  0.4615
 2528TIP3    H128999   4.605   0.118  10.324  1.3780 -1.9114 -0.7980
 2528TIP3    H229000   4.586   0.236  10.231 -2.5167 -1.4655  0.3818
 2529TIP3   OH229001   6.606   6.045   0.270  0.6570  0.4942 -0.4439
 2529TIP3    H129002   6.608   6.128   0.318 -3.2138  0.1359  0.6752
 2529TIP3    H229003   6.553   6.064   0.192  0.7379 -0.6501 -0.7990
 2530TIP3   OH229004   6.549   6.623  12.674 -0.2385  0.6359  0.5939
 2530TIP3    H129005   6.506   6.609  12.589 -1.4156  2.9341  0.7182
 2530TIP3    H229006   6.500   6.567  12.735 -0.1727 -0.1079 -0.0187
 2531TIP3   OH229007   5.616   2.149   4.763 -0.3060  0.1420 -0.3253
 2531TIP3    H129008   5.579   2.074   4.809  1.2044 -0.2447  0.3067
 2531TIP3    H229009   5.620   2.218   4.829  1.7715 -0.3850  0.1847
 2532TIP3   OH229010   4.015   0.477  15.244 -0.4237 -1.1428  0.3267
 2532TIP3    H129011   4.023   0.559  15.291  0.9402 -0.5623 -0.8332
 2532TIP3    H229012   3.925   0.447  15.261 -1.2945  1.0978 -0.0709
 2533TIP3   OH229013   2.014   0.931   2.079  0.7068 -0.0597  0.2237
 2533TIP3    H129014   1.920   0.941   2.069  0.5874 -0.7265  0.6458
 2533TIP3    H229015   2.041   1.007   2.131  0.6694  1.0182 -1.2703
 2534TIP3   OH229016   1.570   0.209  11.433 -0.1590  0.0599  0.2846
 2534TIP3    H129017   1.521   0.240  11.509 -2.1318 -0.3937 -0.7270
 2534TIP3    H229018   1.504   0.200  11.364  1.4971  0.1433 -1.3994
 2535TIP3   OH229019   1.169   1.670   1.545  0.1477  0.4948 -0.3150
 2535TIP3    H129020   1.083   1.645   1.511 -0.2232  0.9747  0.2360
 2535TIP3    H229021   1.194   1.597   1.603 -0.5561  0.9881  0.6476
 2536TIP3   OH229022   4.005   2.206   3.931 -0.2337 -0.9572  0.2348
 2536TIP3    H129023   4.045   2.143   3.992  0.1967  0.1975  1.1836
 2536TIP3    H229024   4.018   2.167   3.845  2.5296 -0.9052  0.5420
 2537TIP3   OH229025   5.545   6.080  16.147  0.2285 -0.3457  0.0605
 2537TIP3    H129026   5.506   5.993  16.152 -3.0109  0.6849 -2.7687
 2537TIP3    H229027   5.474   6.139  16.171  0.9014  1.5928 -2.3195
 2538TIP3   OH229028   6.391   3.759   4.668 -0.0400  0.3144  0.2968
 2538TIP3    H129029   6.425   3.672   4.684  0.5819  0.6142  0.6472
 2538TIP3    H229030   6.333   3.777   4.742 -1.4098 -0.3937 -0.5519
 2539TIP3   OH229031   4.823   4.551  12.281  0.0662 -0.1640  0.0331
 2539TIP3    H129032   4.885   4.583  12.215 -1.0514 -1.2803 -1.6277
 2539TIP3    H229033   4.839   4.607  12.357  1.3289  1.2636 -1.2046
 2540TIP3   OH229034   1.901   1.544   3.158 -0.1435 -0.0085  0.0709
 2540TIP3    H129035   1.938   1.608   3.218 -1.1915  1.1196 -0.4591
 2540TIP3    H229036   1.958   1.548   3.081 -0.7296  0.9441 -0.3174
 2541TIP3   OH229037   0.962   1.527   4.049 -0.5259  0.1455  0.5131
 2541TIP3    H129038   0.986   1.550   3.959 -0.4387 -0.4563  0.3788
 2541TIP3    H229039   0.945   1.433   4.046 -0.5024  0.1166  1.1319
 2542TIP3   OH229040   1.394   0.163   4.444  0.0214  0.1492 -0.1711
 2542TIP3    H129041   1.437   0.186   4.527  1.2207 -0.3319 -0.6289
 2542TIP3    H229042   1.381   0.248   4.400 -1.1307  0.4534  0.7328
 2543TIP3   OH229043   4.585   4.518  10.603 -0.6545 -0.0960  0.3046
 2543TIP3    H129044   4.550   4.521  10.692 -0.3388  0.8647  0.4070
 2543TIP3    H229045   4.615   4.607  10.586 -0.4095 -0.3487 -0.6467
 2544TIP3   OH229046   0.267   6.115  15.958  0.3245 -0.4906  0.1125
 2544TIP3    H129047   0.249   6.047  16.024 -0.7084  0.0425  0.4089
 2544TIP3    H229048   0.360   6.104  15.937  0.5547 -0.9966  1.2900
 2545TIP3   OH229049   2.887   0.864  12.479  0.3460  0.1824 -0.1713
 2545TIP3    H129050   2.956   0.870  12.412  0.4600  1.5549  0.0434
 2545TIP3    H229051   2.924   0.910  12.555 -0.7218  0.7623  0.0115
 2546TIP3   OH229052   6.254   5.251  15.378  0.0757 -0.7262 -0.2496
 2546TIP3    H129053   6.294   5.180  15.428 -0.6135  0.3694  2.0036
 2546TIP3    H229054   6.193   5.208  15.319  1.0554 -2.1083 -0.3063
 2547TIP3   OH229055   6.125   0.434   1.296 -0.7471  0.0025 -0.3708
 2547TIP3    H129056   6.171   0.409   1.217  1.5082 -1.8616  1.3993
 2547TIP3    H229057   6.180   0.501   1.337 -2.2573  1.5052 -0.6622
 2548TIP3   OH229058   6.079   2.309   1.685  0.2792  0.5556  0.1735
 2548TIP3    H129059   6.010   2.307   1.618 -0.8072  1.6229  1.2076
 2548TIP3    H229060   6.122   2.223   1.677 -0.2263  0.4038 -1.4380
 2549TIP3   OH229061   5.386   5.066   0.151 -0.1204 -0.0810  0.3506
 2549TIP3    H129062   5.459   5.066   0.089 -0.0839 -0.3909  0.3878
 2549TIP3    H229063   5.309   5.085   0.098  0.2110  2.3573  0.6226
 2550TIP3   OH229064   5.552   3.602   0.892 -0.3778  0.1935  0.5501
 2550TIP3    H129065   5.475   3.547   0.879 -0.3086  0.0255  0.8471
 2550TIP3    H229066   5.530   3.656   0.967 -1.3520  2.1685 -1.0474
 2551TIP3   OH229067   6.018   0.064  11.943 -0.2510  0.2938  0.2463
 2551TIP3    H129068   6.067   0.115  12.007 -1.4200  0.5857  0.9180
 2551TIP3    H229069   5.973  -0.003  11.994 -0.2333 -0.2328 -0.4116
 2552TIP3   OH229070   5.979   1.486   2.821  0.0826 -0.1210 -0.1456
 2552TIP3    H129071   6.000   1.551   2.753  1.3118 -1.2396 -0.8815
 2552TIP3    H229072   6.036   1.509   2.894  0.7994 -0.5596 -0.5468
 2553TIP3   OH229073   2.494   2.320  11.725 -0.2021 -0.1998 -0.6759
 2553TIP3    H129074   2.589   2.317  11.721 -0.1158 -1.3655  1.2129
 2553TIP3    H229075   2.474   2.400  11.773 -0.1958  0.0894 -1.1468
 2554TIP3   OH229076   0.052   1.036   0.869 -0.0565 -0.1893  0.0581
 2554TIP3    H129077   0.139   1.034   0.828 -0.4569  0.3075 -0.8596
 2554TIP3    H229078   0.006   0.962   0.829  0.2134 -0.9886  1.1954
 2555TIP3   OH229079   0.081   3.389   3.451  0.1163  0.6583 -0.1636
 2555TIP3    H129080   0.054   3.306   3.492  0.7766  0.5156 -0.0180
 2555TIP3    H229081   0.014   3.405   3.384  1.6352 -1.6410 -2.4235
 2556TIP3   OH229082   3.354   1.293   1.862 -0.3638  0.2239 -0.5984
 2556TIP3    H129083   3.274   1.242   1.861 -0.8303  0.9133 -2.5639
 2556TIP3    H229084   3.334   1.367   1.920 -0.7364 -0.2087 -0.1665
 2557TIP3   OH229085   1.303   5.445  16.432  0.4223  0.0418 -0.5979
 2557TIP3    H129086   1.338   5.458  16.520  0.3206  2.0886 -0.8190
 2557TIP3    H229087   1.363   5.382  16.391  1.0363 -0.1727  0.5925
 2558TIP3   OH229088   3.830   4.911  13.829  0.0527  0.3497 -0.3223
 2558TIP3    H129089   3.854   4.944  13.742  0.5641 -0.5056 -0.5151
 2558TIP3    H229090   3.906   4.861  13.857 -0.1032  0.6337  0.6374
 2559TIP3   OH229091   6.023   6.362  16.238 -0.2048 -0.2602 -0.1916
 2559TIP3    H129092   6.046   6.416  16.162 -2.0584 -1.0086 -1.3489
 2559TIP3    H229093   5.941   6.320  16.214 -0.0797 -1.7059  1.6543
 2560TIP3   OH229094   3.074   3.181   5.809 -0.2021 -0.5294 -0.2448
 2560TIP3    H129095   3.013   3.201   5.737 -1.6816  0.3845  1.1946
 2560TIP3    H229096   3.112   3.265   5.833  2.9459 -1.2643 -2.1254
 2561TIP3   OH229097   4.571   5.631  12.539  0.3123  0.0566 -0.2296
 2561TIP3    H129098   4.609   5.646  12.453  0.8991  1.8627  0.2960
 2561TIP3    H229099   4.619   5.555  12.573  0.0962 -0.6550 -1.4533
 2562TIP3   OH229100   5.264   0.680  14.549  0.6311 -0.1539 -0.9499
 2562TIP3    H129101   5.258   0.687  14.645 -1.9159  1.0796 -1.1275
 2562TIP3    H229102   5.329   0.610  14.535  2.8780  1.1990  1.6018
 2563TIP3   OH229103   1.675   0.145   4.640 -0.0253 -0.0886 -0.1366
 2563TIP3    H129104   1.699   0.117   4.551 -1.6852 -0.2540 -0.5655
 2563TIP3    H229105   1.649   0.236   4.630 -1.5127 -0.4825 -0.1113
 2564TIP3   OH229106   3.115   0.626  13.381  0.0382  0.1913  1.0512
 2564TIP3    H129107   3.199   0.588  13.355 -0.2793 -1.2830  2.0779
 2564TIP3    H229108   3.053   0.596  13.315  0.4662  2.3609 -0.4826
 2565TIP3   OH229109   4.887   1.217   1.369 -0.8564 -0.5464  0.2023
 2565TIP3    H129110   4.934   1.286   1.416 -1.3408  0.8412 -1.2735
 2565TIP3    H229111   4.954   1.152   1.349  0.0712  0.4969 -0.2000
 2566TIP3   OH229112   2.116   0.123   0.468 -0.4173 -0.1911  0.0204
 2566TIP3    H129113   2.180   0.158   0.531 -1.0196 -0.3490  0.7218
 2566TIP3    H229114   2.102   0.033   0.496 -1.2378 -0.0416  0.0988
 2567TIP3   OH229115   1.985   4.644  14.121 -0.1550  0.3498  0.0272
 2567TIP3    H129116   1.940   4.661  14.038  1.4605 -0.1925 -1.0082
 2567TIP3    H229117   2.041   4.720  14.134  0.8605 -0.3425 -0.2659
 2568TIP3   OH229118   3.180   4.354  13.727  0.1950 -0.0933 -0.0521
 2568TIP3    H129119   3.095   4.309  13.726  0.0635  0.1374 -1.8929
 2568TIP3    H229120   3.161   4.439  13.767 -0.5560  0.1340 -0.8653
 2569TIP3   OH229121   5.109   0.884  13.511 -0.5161 -0.0198 -0.3371
 2569TIP3    H129122   5.127   0.938  13.589 -0.2610  0.5168 -0.7628
 2569TIP3    H229123   5.191   0.883  13.463 -0.5606 -0.6866 -0.4014
 2570TIP3   OH229124   1.524   2.469   5.259 -0.0325 -0.0625 -0.1759
 2570TIP3    H129125   1.604   2.447   5.211 -1.0382 -2.1506 -1.0016
 2570TIP3    H229126   1.527   2.414   5.338 -0.6200 -0.1025 -0.1765
 2571TIP3   OH229127   3.882   4.049   3.898 -0.0726  0.0890  0.3873
 2571TIP3    H129128   3.817   4.096   3.846 -0.7008 -0.1815  0.9142
 2571TIP3    H229129   3.916   4.115   3.958  0.3755  0.3064 -0.0959
 2572TIP3   OH229130   1.804   2.058   0.143  0.1864 -0.1557 -0.2714
 2572TIP3    H129131   1.711   2.062   0.164  0.3980  2.0459  0.4547
 2572TIP3    H229132   1.834   1.975   0.181 -1.3755 -0.7118 -0.1898
 2573TIP3   OH229133   2.721   5.452   0.254  0.2029  0.5611  0.2718
 2573TIP3    H129134   2.672   5.509   0.314  0.2530  0.7076  0.1750
 2573TIP3    H229135   2.796   5.421   0.305 -0.6903 -0.7420  0.8608
 2574TIP3   OH229136   1.889   1.637  15.326 -0.0882 -0.7342 -0.3891
 2574TIP3    H129137   1.971   1.663  15.368  0.3999 -1.5179 -0.8233
 2574TIP3    H229138   1.866   1.554  15.369 -1.8232  0.5158  1.2647
 2575TIP3   OH229139   1.726   0.955  13.792  0.1726  0.3515 -0.1384
 2575TIP3    H129140   1.703   0.865  13.769 -1.1532  0.0490  2.0520
 2575TIP3    H229141   1.804   0.974  13.740  0.2278 -1.9071 -0.9882
 2576TIP3   OH229142   4.348   1.818  16.685  0.3107  0.4410 -0.4159
 2576TIP3    H129143   4.258   1.788  16.673  0.7660 -0.5649 -1.4761
 2576TIP3    H229144   4.367   1.869  16.606  0.9936 -0.1814 -0.6629
 2577TIP3   OH229145   6.232   1.798   0.322  0.0491  0.9029  0.2964
 2577TIP3    H129146   6.166   1.812   0.254  0.2609 -1.4134 -0.4850
 2577TIP3    H229147   6.271   1.714   0.300  0.5113  0.3167  3.0130
 2578TIP3   OH229148   6.184   0.340   5.051  0.6234 -0.2805  0.3030
 2578TIP3    H129149   6.190   0.249   5.078  0.1246 -0.0536  1.2185
 2578TIP3    H229150   6.090   0.356   5.043  0.7345 -0.0787 -0.6844
 2579TIP3   OH229151   6.671   3.568  16.104  0.3220 -0.0458 -0.3447
 2579TIP3    H129152   6.658   3.663  16.103  0.0978 -0.0559  0.6536
 2579TIP3    H229153   6.619   3.536  16.030 -0.8927  0.4739  0.2477
 2580TIP3   OH229154   0.779   5.432  13.259  0.5448  0.0427  0.4734
 2580TIP3    H129155   0.719   5.498  13.295 -0.2843  0.0986 -0.9619
 2580TIP3    H229156   0.732   5.349  13.268  0.7468 -0.0774  0.4280
 2581TIP3   OH229157   2.543   2.058   3.883  0.3367 -0.2455 -0.1826
 2581TIP3    H129158   2.472   2.015   3.930 -0.2205  0.7908 -0.0444
 2581TIP3    H229159   2.515   2.058   3.792 -0.0747  0.5539 -0.0719
 2582TIP3   OH229160   2.655   3.728   1.661 -0.5584  0.7542  0.5002
 2582TIP3    H129161   2.578   3.734   1.718  1.1560  0.5179  3.0279
 2582TIP3    H229162   2.726   3.764   1.714  1.2594  0.1022 -1.3701
 2583TIP3   OH229163   3.111   3.887   4.872  0.0426  0.5063 -0.0972
 2583TIP3    H129164   3.131   3.921   4.785  0.0630 -0.6715 -0.5724
 2583TIP3    H229165   3.195   3.890   4.918  0.3319 -0.0849 -0.5617
 2584TIP3   OH229166   2.199   3.168  13.954  0.3809 -0.4440 -0.3127
 2584TIP3    H129167   2.138   3.155  14.026 -0.0444 -2.2306 -0.9199
 2584TIP3    H229168   2.275   3.115  13.977  0.8397  0.1099 -0.5252
 2585TIP3   OH229169   3.568   2.837  13.692 -0.3254  0.0840  0.3686
 2585TIP3    H129170   3.541   2.928  13.705 -2.6043 -0.3748 -0.7098
 2585TIP3    H229171   3.505   2.802  13.629  0.8045 -2.1187  0.3647
 2586TIP3   OH229172   6.336   1.524  16.229 -0.4858  0.0458 -0.6692
 2586TIP3    H129173   6.344   1.573  16.148 -0.9383  1.1162 -0.0892
 2586TIP3    H229174   6.316   1.590  16.295  0.7133 -0.6743  0.4773
 2587TIP3   OH229175   2.108   1.944  13.528 -0.3527 -0.1437  0.0566
 2587TIP3    H129176   2.117   1.898  13.612 -3.1562  0.9416  1.0834
 2587TIP3    H229177   2.187   1.997  13.521  0.0129 -0.3542  1.9637
 2588TIP3   OH229178   4.463   2.511   3.745  0.4100  0.3133 -0.1609
 2588TIP3    H129179   4.496   2.519   3.655  1.6743 -0.8042  0.1760
 2588TIP3    H229180   4.384   2.458   3.738  0.5771  0.1213 -0.5889
 2589TIP3   OH229181   0.427   0.905   4.209 -0.3200  0.2203  0.4485
 2589TIP3    H129182   0.476   0.987   4.208 -2.5667  1.8024  3.3705
 2589TIP3    H229183   0.477   0.847   4.267  1.1430 -0.4737 -1.4265
 2590TIP3   OH229184   2.097   1.352   1.622  0.0058  0.5571  0.3243
 2590TIP3    H129185   2.081   1.276   1.566 -0.9724  1.1555 -0.2208
 2590TIP3    H229186   2.066   1.324   1.708 -0.7378  0.4793  0.0345
 2591TIP3   OH229187   6.314   0.696   1.951 -0.2632  0.1700 -0.2410
 2591TIP3    H129188   6.391   0.752   1.942  0.5903 -0.9281 -0.0707
 2591TIP3    H229189   6.339   0.614   1.909 -0.8142 -0.6998  1.0533
 2592TIP3   OH229190   4.699   3.883  13.382  0.0462  0.1331  0.6140
 2592TIP3    H129191   4.710   3.976  13.364  0.4510  0.0603  0.4678
 2592TIP3    H229192   4.655   3.880  13.467 -2.8555  0.4861 -0.7885
 2593TIP3   OH229193   5.627   6.713   0.735  0.2391  0.3371 -0.1084
 2593TIP3    H129194   5.551   6.688   0.683 -0.1564  0.9355  0.1609
 2593TIP3    H229195   5.665   6.630   0.764  1.3329 -0.0639 -2.5182
 2594TIP3   OH229196   0.775   0.082  10.984  0.1167  0.2420 -0.1388
 2594TIP3    H129197   0.804   0.108  11.072  0.0454 -0.3127  0.0560
 2594TIP3    H229198   0.764   0.164  10.937  1.1760  0.5067  0.0493
 2595TIP3   OH229199   3.031   4.052  13.424 -0.7389  0.0540 -0.0129
 2595TIP3    H129200   2.989   3.992  13.486 -1.3386 -1.8337 -2.0846
 2595TIP3    H229201   3.106   4.088  13.472  1.2170 -4.2970  0.7103
 2596TIP3   OH229202   3.298   3.358  15.486 -0.4724  0.0331  0.2433
 2596TIP3    H129203   3.390   3.331  15.477 -1.0934 -1.8620 -0.8743
 2596TIP3    H229204   3.263   3.354  15.398 -1.4848  1.4849  0.5393
 2597TIP3   OH229205   1.972   0.501   2.566 -0.9769 -0.2969  0.2914
 2597TIP3    H129206   1.979   0.577   2.510  0.8490 -1.1375 -0.7114
 2597TIP3    H229207   1.885   0.466   2.549 -1.7125  1.3498  0.5283
 2598TIP3   OH229208   2.521   2.674  11.260  0.5922 -0.0615 -0.3007
 2598TIP3    H129209   2.608   2.696  11.226  1.4736 -0.6760  1.4560
 2598TIP3    H229210   2.488   2.608  11.199  0.4365  1.6668 -2.1753
 2599TIP3   OH229211   6.212   2.192   1.170  0.0743 -0.2889 -0.4654
 2599TIP3    H129212   6.204   2.233   1.084  0.5187  0.7315 -0.0419
 2599TIP3    H229213   6.260   2.111   1.154 -0.5509 -0.5179 -1.2843
 2600TIP3   OH229214   0.102   1.917  12.536 -0.4633 -0.5978 -0.3188
 2600TIP3    H129215   0.014   1.880  12.533 -0.5873 -0.3215 -0.1218
 2600TIP3    H229216   0.095   2.001  12.492 -0.5510 -0.0775  0.6508
 2601TIP3   OH229217   4.553   0.614   1.679 -0.0085  0.3845  0.1415
 2601TIP3    H129218   4.528   0.698   1.641  0.4529  0.8840  0.9379
 2601TIP3    H229219   4.622   0.582   1.621  0.7720  1.1985  0.5949
 2602TIP3   OH229220   1.572   1.724  12.959 -0.0355 -0.0998  0.1161
 2602TIP3    H129221   1.516   1.655  12.997 -0.0953 -0.4112 -0.5292
 2602TIP3    H229222   1.512   1.778  12.908 -0.2306  1.2484  1.6895
 2603TIP3   OH229223   2.440   5.763  12.514  0.0557  0.4139  0.3027
 2603TIP3    H129224   2.365   5.707  12.496 -0.4695  1.3792 -0.5922
 2603TIP3    H229225   2.504   5.740  12.447 -0.4054  1.3183 -0.4535
 2604TIP3   OH229226   5.593   3.749   0.234 -0.3770 -0.1332 -0.4095
 2604TIP3    H129227   5.535   3.825   0.235  0.2003  0.3564  1.6646
 2604TIP3    H229228   5.615   3.734   0.326  2.4630 -0.5201 -1.0420
 2605TIP3   OH229229   3.618   6.476  14.404  0.1212  0.9599 -0.4806
 2605TIP3    H129230   3.602   6.563  14.368 -1.3774  0.3473 -1.3721
 2605TIP3    H229231   3.550   6.421  14.366  1.1948 -0.6752 -0.1552
 2606TIP3   OH229232   3.569   1.320  16.139  1.2273 -0.7572  0.0294
 2606TIP3    H129233   3.515   1.279  16.206 -0.8143  0.5045 -0.7288
 2606TIP3    H229234   3.593   1.249  16.080 -3.3551 -0.9636 -2.0169
 2607TIP3   OH229235   0.574   1.938   5.310  0.4578 -0.2123  0.6251
 2607TIP3    H129236   0.610   1.850   5.320 -0.8363 -1.1565 -2.1383
 2607TIP3    H229237   0.482   1.924   5.290 -0.1483  1.8845  1.6456
 2608TIP3   OH229238   6.219   2.431  14.179 -0.0005 -0.1355  0.2956
 2608TIP3    H129239   6.259   2.440  14.265  1.6871 -0.4259 -0.4129
 2608TIP3    H229240   6.210   2.521  14.147 -0.8980 -0.0087  0.8616
 2609TIP3   OH229241   0.733   6.270   5.044 -0.0193  0.6249  0.2067
 2609TIP3    H129242   0.823   6.297   5.064  0.1598  1.6355 -1.6583
 2609TIP3    H229243   0.738   6.175   5.033  0.3872  0.4024  1.9972
 2610TIP3   OH229244   3.318   1.901  12.598  0.1330  0.1342  0.6479
 2610TIP3    H129245   3.256   1.848  12.550 -0.0479  1.6021 -0.8101
 2610TIP3    H229246   3.399   1.849  12.599 -0.1157 -0.2844 -0.4814
 2611TIP3   OH229247   1.485   0.412   3.314 -0.8005 -0.2432  0.4113
 2611TIP3    H129248   1.480   0.327   3.357  0.4702 -0.7986 -0.4790
 2611TIP3    H229249   1.449   0.397   3.226  1.6186 -0.5083 -0.6048
 2612TIP3   OH229250   3.162   1.561   3.067 -0.0167  0.0248  0.5686
 2612TIP3    H129251   3.110   1.640   3.082  0.1595  0.2148  0.1910
 2612TIP3    H229252   3.190   1.568   2.976 -3.2370 -2.3250 -0.7936
 2613TIP3   OH229253   2.903   5.771  12.322 -0.0701  0.3488  0.5960
 2613TIP3    H129254   2.987   5.751  12.363  0.3405  2.6212  1.0003
 2613TIP3    H229255   2.925   5.800  12.234 -0.6244 -0.8325  0.0443
 2614TIP3   OH229256   3.579   2.160  15.223 -0.4274  0.2098 -0.6728
 2614TIP3    H129257   3.488   2.168  15.195 -0.8341 -1.9571 -0.2141
 2614TIP3    H229258   3.617   2.097  15.161  0.0349 -0.7873  0.5844
 2615TIP3   OH229259   4.345   4.056   1.191  0.2201 -0.2017 -0.7605
 2615TIP3    H129260   4.423   4.112   1.196  0.2278 -0.2450 -0.3510
 2615TIP3    H229261   4.275   4.109   1.229  0.1238 -0.2915 -0.8130
 2616TIP3   OH229262   1.019   2.756   4.021  0.2267  0.2042 -0.5859
 2616TIP3    H129263   0.985   2.843   4.045  0.6682  0.2293 -0.0548
 2616TIP3    H229264   0.983   2.741   3.933  1.6769  1.7659 -1.5168
 2617TIP3   OH229265   1.456   6.331   4.041 -1.0371  0.2908  0.4239
 2617TIP3    H129266   1.462   6.249   4.090  0.0387  0.4540  0.5826
 2617TIP3    H229267   1.371   6.368   4.066 -0.8666 -0.0416  1.5173
 2618TIP3   OH229268   1.315   2.402   3.087  0.3709 -0.2370 -0.5983
 2618TIP3    H129269   1.315   2.463   3.013  0.6718  0.3891 -0.0960
 2618TIP3    H229270   1.406   2.401   3.116  0.1109  0.1534  0.2652
 2619TIP3   OH229271   4.717   5.238   1.861 -0.2678  0.0033 -0.0279
 2619TIP3    H129272   4.742   5.181   1.788 -0.7525 -0.2353 -0.0080
 2619TIP3    H229273   4.721   5.327   1.824 -1.6752 -0.1844 -0.7076
 2620TIP3   OH229274   3.733   4.267   3.803  0.7994  0.7157  0.2123
 2620TIP3    H129275   3.780   4.332   3.750 -0.5351 -0.1523 -2.2017
 2620TIP3    H229276   3.701   4.316   3.878  2.1279  2.2091 -0.1326
 2621TIP3   OH229277   0.917   2.841  14.547 -0.0418 -0.2955  0.4150
 2621TIP3    H129278   0.965   2.920  14.524 -1.5578  2.1396  4.4945
 2621TIP3    H229279   0.966   2.802  14.619 -0.8286 -1.4672  0.3561
 2622TIP3   OH229280   3.387   5.768   0.316 -0.1908 -0.0529 -0.1521
 2622TIP3    H129281   3.445   5.722   0.256  0.6995  1.0829 -0.1982
 2622TIP3    H229282   3.299   5.749   0.283  0.2068 -0.7262 -0.8693
 2623TIP3   OH229283   2.586   1.044   4.938 -0.5859  0.2092 -0.2968
 2623TIP3    H129284   2.557   1.043   4.846  0.0487  1.9955 -0.5513
 2623TIP3    H229285   2.673   1.084   4.935 -0.6704  0.5243  1.1085
 2624TIP3   OH229286   2.578   0.835  14.697 -0.2474 -0.1589 -0.0030
 2624TIP3    H129287   2.635   0.911  14.709  0.4163 -0.5124 -0.7832
 2624TIP3    H229288   2.491   0.871  14.685  0.0910  0.4921 -0.5356
 2625TIP3   OH229289   1.248   1.518  15.944 -0.1049 -0.1455  0.3350
 2625TIP3    H129290   1.178   1.478  15.893  1.1926  0.8279 -2.4350
 2625TIP3    H229291   1.210   1.598  15.980 -0.7310 -0.2152 -0.1625
 2626TIP3   OH229292   0.425   4.750  16.302  0.5205 -0.3189  0.6039
 2626TIP3    H129293   0.508   4.714  16.273  1.7824  1.7385  1.4441
 2626TIP3    H229294   0.393   4.800  16.227 -0.5212 -1.9337 -0.0742
 2627TIP3   OH229295   4.356   5.173  11.380  0.0967 -0.4545 -0.3632
 2627TIP3    H129296   4.333   5.144  11.292 -1.5568 -2.8991  0.7756
 2627TIP3    H229297   4.273   5.197  11.420  0.9541  1.8562  0.2193
 2628TIP3   OH229298   2.722   6.597   5.473  0.3463 -0.0535  0.2073
 2628TIP3    H129299   2.774   6.676   5.455  2.1999 -0.8225  1.8711
 2628TIP3    H229300   2.643   6.630   5.514  0.6103  1.0139 -0.1002
 2629TIP3   OH229301   2.820   2.121  14.231  0.0468  0.6162 -0.3165
 2629TIP3    H129302   2.867   2.144  14.150 -0.1672  1.4347 -0.2228
 2629TIP3    H229303   2.850   2.186  14.294  1.4086 -0.9479  0.7312
 2630TIP3   OH229304   4.927   2.222   1.347 -0.0677  0.2515 -0.2669
 2630TIP3    H129305   4.946   2.306   1.304  0.3789  0.3097  0.0414
 2630TIP3    H229306   4.998   2.165   1.318  0.1893  0.2678  0.3285
 2631TIP3   OH229307   4.032   1.504  12.625  0.4147  0.6598 -0.4165
 2631TIP3    H129308   3.971   1.541  12.688  0.1636 -0.9750  0.3349
 2631TIP3    H229309   4.101   1.570  12.617 -2.1663  3.3740 -2.5907
 2632TIP3   OH229310   1.880   0.183   4.828 -0.0573 -0.3018 -0.1588
 2632TIP3    H129311   1.823   0.188   4.751  0.8866 -1.9514 -1.0361
 2632TIP3    H229312   1.963   0.221   4.799 -0.0238  0.0307  0.3754
 2633TIP3   OH229313   2.521   2.956   2.917  0.1646 -0.4668  0.2848
 2633TIP3    H129314   2.487   3.023   2.976  0.6189  0.4105 -0.4216
 2633TIP3    H229315   2.587   2.910   2.968  1.0425  0.7238  0.2847
 2634TIP3   OH229316   4.889   6.145  14.779  0.1564  0.1403 -0.2420
 2634TIP3    H129317   4.902   6.220  14.722  0.7957 -0.8343 -1.4142
 2634TIP3    H229318   4.794   6.138  14.790  0.0962  1.0964 -0.1280
 2635TIP3   OH229319   6.677   4.670  11.393 -0.3860  0.3336  0.0672
 2635TIP3    H129320   6.646   4.751  11.435 -1.4124  0.8955 -1.6773
 2635TIP3    H229321   6.604   4.642  11.338  0.1175 -1.5860  0.3114
 2636TIP3   OH229322   2.879   6.025  14.124 -0.0706 -0.0328 -0.4051
 2636TIP3    H129323   2.936   5.980  14.062  1.4689 -0.0016  0.9562
 2636TIP3    H229324   2.938   6.065  14.188 -1.5851  0.5208  0.7120
 2637TIP3   OH229325   3.199   1.190   3.327  0.0611 -0.4901  0.0684
 2637TIP3    H129326   3.242   1.113   3.288  0.3524  0.8187 -2.4540
 2637TIP3    H229327   3.119   1.201   3.275 -0.8272 -0.0149  1.4838
 2638TIP3   OH229328   1.472   2.706   4.756 -0.2543 -0.4854 -0.2051
 2638TIP3    H129329   1.549   2.649   4.746 -0.7011 -1.7411  2.5386
 2638TIP3    H229330   1.398   2.646   4.752 -0.8413  0.1164  1.0292
 2639TIP3   OH229331   3.272   0.149  17.031  0.1270 -0.4334 -0.7258
 2639TIP3    H129332   3.184   0.143  16.992  0.5499 -0.1460 -1.7626
 2639TIP3    H229333   3.328   0.100  16.971  0.8823  0.4376 -0.7586
 2640TIP3   OH229334   5.486   0.070  16.095 -0.0172 -0.0945 -0.1371
 2640TIP3    H129335   5.430   0.147  16.086  2.7941  2.5997  2.6795
 2640TIP3    H229336   5.432   0.006  16.141 -2.5268 -0.0631 -2.8138
 2641TIP3   OH229337   4.889   5.709  11.491  0.2130 -0.6693 -0.7671
 2641TIP3    H129338   4.805   5.702  11.536 -0.4846  0.7545 -1.7507
 2641TIP3    H229339   4.903   5.623  11.453 -0.4119 -1.1553  0.0608
 2642TIP3   OH229340   3.765   4.649   2.788  0.0153 -0.0775 -0.5756
 2642TIP3    H129341   3.736   4.630   2.877 -2.5197 -1.6800 -1.6234
 2642TIP3    H229342   3.860   4.634   2.789 -0.2899 -2.5358  1.2973
 2643TIP3   OH229343   4.016   5.919  12.205  0.0249 -0.1271 -0.1084
 2643TIP3    H129344   3.921   5.922  12.203  0.0348  2.3045  0.1558
 2643TIP3    H229345   4.037   5.871  12.285 -0.9604 -0.4620 -0.0377
 2644TIP3   OH229346   1.997   2.411  12.946  0.2058 -0.0769  0.3026
 2644TIP3    H129347   1.958   2.344  13.003  0.6300  0.5708  1.3947
 2644TIP3    H229348   1.929   2.478  12.938 -0.3820 -0.8130 -1.1504
 2645TIP3   OH229349   3.258   6.287  13.568 -0.2884  0.2724  0.5799
 2645TIP3    H129350   3.213   6.367  13.593  0.7647  1.2193 -0.4384
 2645TIP3    H229351   3.333   6.282  13.628  0.6785  1.0654 -0.5169
 2646TIP3   OH229352   3.279   0.218   1.821 -0.2807 -0.1135 -0.9881
 2646TIP3    H129353   3.361   0.253   1.788 -0.0996 -0.1604 -0.5914
 2646TIP3    H229354   3.249   0.159   1.752  0.8559 -1.3732 -0.4408
 2647TIP3   OH229355   1.035   3.000  12.941  0.6365  0.0902 -0.0765
 2647TIP3    H129356   0.962   2.937  12.941  0.7487 -0.0523  0.8308
 2647TIP3    H229357   1.094   2.967  12.873 -0.1522  0.2377 -0.8647
 2648TIP3   OH229358   1.837   1.332  10.768  0.1232 -0.4530  0.2537
 2648TIP3    H129359   1.898   1.406  10.767 -0.5249  0.1090 -1.2313
 2648TIP3    H229360   1.887   1.259  10.733  0.9365 -0.9116  2.2455
 2649TIP3   OH229361   2.417   4.852   0.603 -0.3049  0.3900  0.2515
 2649TIP3    H129362   2.406   4.924   0.541  1.1062 -1.3059 -2.1173
 2649TIP3    H229363   2.341   4.860   0.661 -1.6155  2.2126 -1.5310
 2650TIP3   OH229364   1.631   2.085   1.887 -0.4865  0.4915 -0.0795
 2650TIP3    H129365   1.646   2.179   1.874  3.5434  0.0216 -0.0695
 2650TIP3    H229366   1.613   2.076   1.980 -3.1178  1.3768 -0.4348
 2651TIP3   OH229367   2.434   0.728  15.171  0.7735 -0.1926 -0.6076
 2651TIP3    H129368   2.483   0.770  15.242  2.3098 -1.1976 -1.0188
 2651TIP3    H229369   2.429   0.795  15.103 -0.1678  0.5679  0.1817
 2652TIP3   OH229370   2.749   6.422  13.225  0.3409  0.5716 -0.4454
 2652TIP3    H129371   2.784   6.431  13.136 -0.2818  0.5985 -0.6933
 2652TIP3    H229372   2.660   6.389  13.213  0.0624  1.0845  0.1468
 2653TIP3   OH229373   1.538   1.382   4.140  0.2993 -0.1192 -0.2388
 2653TIP3    H129374   1.533   1.296   4.099 -0.8180 -0.9102  1.4389
 2653TIP3    H229375   1.489   1.440   4.082 -1.8369 -1.3428  0.2458
 2654TIP3   OH229376   6.525   3.417  11.453  0.2396 -0.2331  0.7035
 2654TIP3    H129377   6.504   3.456  11.368  1.4601 -1.5939 -0.2613
 2654TIP3    H229378   6.440   3.392  11.490 -0.3396  0.8515  0.1361
 2655TIP3   OH229379   4.479   0.297   0.463  0.0634  0.4666  0.5399
 2655TIP3    H129380   4.397   0.319   0.507  1.2377  1.5666  2.3244
 2655TIP3    H229381   4.465   0.324   0.372 -1.4349  0.9563  0.8836
 2656TIP3   OH229382   3.081   2.568  13.918 -0.0568 -0.1274 -0.0483
 2656TIP3    H129383   3.110   2.527  13.836 -1.9967 -1.8235  0.0181
 2656TIP3    H229384   3.007   2.624  13.891  1.1288  1.6245  0.1899
 2657TIP3   OH229385   3.465   1.656  12.554  0.4767  0.3303  0.2464
 2657TIP3    H129386   3.468   1.698  12.467  0.5597  3.4318  1.5957
 2657TIP3    H229387   3.554   1.665  12.587 -0.1705  1.9006  1.7295
 2658TIP3   OH229388   4.076   0.002   2.049 -0.3024 -0.0182 -0.5887
 2658TIP3    H129389   4.005  -0.055   2.021 -0.9664  1.3923 -1.9277
 2658TIP3    H229390   4.077   0.073   1.984  0.3513  1.5998  1.0849
 2659TIP3   OH229391   3.346   4.873   5.337  0.0410 -0.7422  0.3541
 2659TIP3    H129392   3.351   4.778   5.340  3.0521 -0.6458  1.8773
 2659TIP3    H229393   3.341   4.900   5.429  0.3692  0.5871  0.0095
 2660TIP3   OH229394   2.213   3.461  12.854 -0.4293 -0.3214  0.2147
 2660TIP3    H129395   2.158   3.505  12.919 -0.4807  1.1971 -0.8071
 2660TIP3    H229396   2.199   3.510  12.773  0.2834 -1.6466 -0.7470
 2661TIP3   OH229397   1.737   3.351  11.044 -0.0558 -0.1730  0.3020
 2661TIP3    H129398   1.798   3.422  11.064  1.7789 -1.4680 -0.3534
 2661TIP3    H229399   1.707   3.369  10.955  0.2292 -0.0856  0.2216
 2662TIP3   OH229400   3.382   6.431  13.084  0.1111  0.0449  0.7516
 2662TIP3    H129401   3.391   6.523  13.062  1.8501 -0.5794 -1.4878
 2662TIP3    H229402   3.428   6.422  13.168  2.4452  0.7938 -0.3452
 2663TIP3   OH229403   1.625   3.782   0.325 -0.7964  0.6830  0.1637
 2663TIP3    H129404   1.575   3.837   0.265 -0.5108  0.5097 -0.2394
 2663TIP3    H229405   1.673   3.844   0.380 -0.5163  0.8413 -0.2521
 2664TIP3   OH229406   4.326   0.439  12.609  0.4460 -0.4034 -0.0949
 2664TIP3    H129407   4.262   0.371  12.631  1.2596 -0.4593  2.3836
 2664TIP3    H229408   4.410   0.400  12.633  1.1901  0.5175 -1.1522
 2665TIP3   OH229409   1.704   1.096  11.237 -0.2598  0.1738 -0.3553
 2665TIP3    H129410   1.694   1.008  11.199  1.4432 -0.3308  0.2585
 2665TIP3    H229411   1.722   1.153  11.162  2.5532 -0.7228 -0.4790
 2666TIP3   OH229412   3.146   5.064  11.995 -0.4024  0.3940 -0.4149
 2666TIP3    H129413   3.072   5.106  12.039 -1.0801 -0.7552 -0.4133
 2666TIP3    H229414   3.222   5.117  12.019 -0.5111 -0.8030  3.2498
 2667TIP3   OH229415   3.943   4.336   1.145  0.1296  0.2499 -0.0355
 2667TIP3    H129416   3.949   4.328   1.241  1.1229  0.4759 -0.0756
 2667TIP3    H229417   4.031   4.358   1.117  0.0462 -0.7011 -1.1054
 2668TIP3   OH229418   5.221   5.955  14.099 -0.0378 -0.1217 -0.3193
 2668TIP3    H129419   5.181   5.966  14.013 -0.9051  1.4443  0.2445
 2668TIP3    H229420   5.148   5.953  14.160  0.3629 -3.8305  0.2768
 2669TIP3   OH229421   4.590   1.701  16.509 -0.1283 -0.5499  0.7034
 2669TIP3    H129422   4.608   1.700  16.603 -0.4795  0.5073  0.7975
 2669TIP3    H229423   4.565   1.611  16.488  2.2525 -1.4053  1.1455
 2670TIP3   OH229424   5.066   0.983  14.213  0.7325  0.5937 -0.8251
 2670TIP3    H129425   5.052   0.892  14.188  1.3480  0.7574 -1.8028
 2670TIP3    H229426   5.109   0.978  14.299 -0.6012  0.0137 -0.1475
 2671TIP3   OH229427   5.699   4.684   3.576  0.0289 -0.6161  0.4161
 2671TIP3    H129428   5.662   4.644   3.655  0.7493  0.4255  1.3095
 2671TIP3    H229429   5.788   4.708   3.601 -0.2789  1.2751 -0.1516
 2672TIP3   OH229430   3.004   3.720   1.082 -0.0002 -0.0595 -0.2193
 2672TIP3    H129431   2.973   3.782   1.147 -0.7893 -0.4356 -0.2241
 2672TIP3    H229432   2.981   3.634   1.117  2.2271 -0.4671  0.4001
 2673TIP3   OH229433   0.473   5.835  16.886 -0.3498 -0.0181 -0.1213
 2673TIP3    H129434   0.481   5.908  16.948 -0.7977  1.2294 -1.4582
 2673TIP3    H229435   0.563   5.813  16.864 -0.2053  0.6338 -0.2288
 2674TIP3   OH229436   3.709   6.047  11.509  0.2903 -0.4283  0.0376
 2674TIP3    H129437   3.631   6.102  11.520  0.5318 -0.3399  1.7281
 2674TIP3    H229438   3.704   6.014  11.420 -0.8502  0.8416 -0.4008
 2675TIP3   OH229439   6.273   5.363   6.252 -0.2765  0.6856  0.1944
 2675TIP3    H129440   6.294   5.415   6.174  1.6244  0.0087  0.1903
 2675TIP3    H229441   6.214   5.294   6.220  0.0968  0.7019 -0.5555
 2676TIP3   OH229442   1.725   3.067  15.270  0.2310  0.0004  0.0659
 2676TIP3    H129443   1.703   3.023  15.353  0.3892 -0.3961 -0.0979
 2676TIP3    H229444   1.641   3.096  15.235  0.1219 -0.1943  0.1647
 2677TIP3   OH229445   6.103   3.555  11.557  0.1573 -0.3295 -0.8286
 2677TIP3    H129446   6.011   3.580  11.557  0.8336  2.4497 -1.3684
 2677TIP3    H229447   6.134   3.576  11.469  1.8087  0.9328  0.0075
 2678TIP3   OH229448   1.768   0.602  16.812 -0.0378  0.1277 -0.6742
 2678TIP3    H129449   1.785   0.517  16.773  0.9967 -0.8300  1.6521
 2678TIP3    H229450   1.854   0.640  16.828 -0.4848  2.0730 -2.4799
 2679TIP3   OH229451   1.123   6.085  14.780  0.2144 -0.4509 -0.2159
 2679TIP3    H129452   1.074   6.006  14.803  0.8030 -0.5973  0.5859
 2679TIP3    H229453   1.111   6.143  14.855  0.7800 -0.2623 -0.2658
 2680TIP3   OH229454   5.625   3.966   3.451  0.1874  0.0093 -0.3012
 2680TIP3    H129455   5.661   3.946   3.365  0.0472 -0.7473 -0.1926
 2680TIP3    H229456   5.532   3.945   3.444  0.4766 -1.7456  0.5144
 2681TIP3   OH229457   0.300   0.244   5.074  0.2472  0.9606 -0.3704
 2681TIP3    H129458   0.298   0.202   4.988  1.3432 -0.5421  0.2783
 2681TIP3    H229459   0.393   0.262   5.089  0.5000 -1.4207  1.6242
 2682TIP3   OH229460   2.126   5.882   1.421  0.3022  0.5357 -0.5562
 2682TIP3    H129461   2.171   5.901   1.338 -0.2937 -1.1893 -1.3268
 2682TIP3    H229462   2.091   5.966   1.449 -1.0132  0.8993 -3.0004
 2683TIP3   OH229463   6.544   6.074  15.916 -0.0256  0.3282 -0.0497
 2683TIP3    H129464   6.527   6.066  15.822 -0.5818 -1.5256  0.1717
 2683TIP3    H229465   6.558   6.168  15.930 -0.9598  0.7749 -1.8058
 2684TIP3   OH229466   1.000   5.195  14.191  0.0577 -0.2998 -0.6734
 2684TIP3    H129467   0.971   5.160  14.275  0.0014  1.2295 -0.0206
 2684TIP3    H229468   1.093   5.177  14.188  0.3965  1.1004  0.5058
 2685TIP3   OH229469   1.018   5.351  16.674 -0.3047 -0.0626  0.2098
 2685TIP3    H129470   0.955   5.309  16.733 -1.6144  0.8487 -0.5097
 2685TIP3    H229471   1.034   5.437  16.712  0.6497 -0.3378  0.4676
 2686TIP3   OH229472   0.846   5.155  16.843 -0.0636 -0.1921  0.5095
 2686TIP3    H129473   0.870   5.062  16.837 -2.0529 -0.9744  2.9057
 2686TIP3    H229474   0.911   5.192  16.903  1.7009  0.4392 -1.6678
 2687TIP3   OH229475   0.112   1.342  16.794  0.6013  0.6103 -0.0488
 2687TIP3    H129476   0.201   1.307  16.785  1.0059  1.7057 -0.5196
 2687TIP3    H229477   0.108   1.375  16.883  0.2965 -0.3940  0.3206
 2688TIP3   OH229478   4.291   5.503  12.620 -0.0870  0.2297  0.2676
 2688TIP3    H129479   4.318   5.504  12.712  1.1544  1.4316 -0.0731
 2688TIP3    H229480   4.302   5.593  12.590 -0.4276 -0.1448 -1.0798
 2689TIP3   OH229481   3.940   3.115   6.924  0.0856 -0.4011 -0.3800
 2689TIP3    H129482   3.845   3.106   6.935  0.0874 -1.0626 -0.8096
 2689TIP3    H229483   3.951   3.203   6.887 -0.2598  0.1119  0.7022
 2690TIP3   OH229484   0.216   3.745   1.712  0.1657 -0.0059  0.2024
 2690TIP3    H129485   0.187   3.654   1.716  0.4272 -0.1141 -0.2648
 2690TIP3    H229486   0.136   3.796   1.699  0.0191 -0.1669  0.4662
 2691TIP3   OH229487   4.186   6.543   5.306  0.1709  0.2016  0.1617
 2691TIP3    H129488   4.193   6.450   5.328  1.1394  0.0497 -0.7258
 2691TIP3    H229489   4.159   6.585   5.388  0.9848 -0.6892  0.9070
 2692TIP3   OH229490   4.188   5.006  10.285 -0.7126 -0.2358 -0.0069
 2692TIP3    H129491   4.108   5.023  10.236 -0.4707 -1.1766 -0.7614
 2692TIP3    H229492   4.161   4.954  10.360 -0.9483  0.3753  0.3396
 2693TIP3   OH229493   0.824   5.391   1.055 -0.3365  0.0785 -0.0102
 2693TIP3    H129494   0.875   5.468   1.031  0.6430 -0.5922 -0.1706
 2693TIP3    H229495   0.890   5.327   1.084 -1.2295 -0.2232  1.4522
 2694TIP3   OH229496   3.671   3.185  14.133 -0.4017 -0.1045  0.2726
 2694TIP3    H129497   3.760   3.168  14.101 -0.4179  0.6131 -0.1688
 2694TIP3    H229498   3.679   3.181  14.228  0.9444  3.6025  0.4947
 2695TIP3   OH229499   5.895   3.900   2.826  0.5552  0.1390  0.0710
 2695TIP3    H129500   5.851   3.822   2.857 -0.5845  0.7739  0.0951
 2695TIP3    H229501   5.938   3.872   2.744  1.4384 -0.8714  0.8520
 2696TIP3   OH229502   2.076   1.156   5.630  0.5331 -0.5369  0.3955
 2696TIP3    H129503   2.102   1.200   5.549  2.2652  0.2143  1.3096
 2696TIP3    H229504   2.039   1.225   5.685  0.6595 -0.7622  0.7705
 2697TIP3   OH229505   1.558   2.993  14.866 -0.7383  0.1271  0.3462
 2697TIP3    H129506   1.532   2.941  14.942  1.9938 -0.7394  0.7963
 2697TIP3    H229507   1.550   2.933  14.792  3.0269 -1.3901  0.9444
 2698TIP3   OH229508   1.107   3.807  12.731  0.3230 -0.3775  0.1297
 2698TIP3    H129509   1.117   3.816  12.826  0.4990  0.3959  0.0464
 2698TIP3    H229510   1.095   3.713  12.717  0.7159 -0.5475  0.8758
 2699TIP3   OH229511   2.539   6.466   3.660  0.1980  0.2970 -0.1343
 2699TIP3    H129512   2.472   6.463   3.592  1.6618  2.9674 -1.9254
 2699TIP3    H229513   2.503   6.524   3.727 -0.0969  0.0490 -0.0790
 2700TIP3   OH229514   1.871   4.241  14.307  0.3540 -0.0675  0.6240
 2700TIP3    H129515   1.870   4.249  14.403  1.5750 -0.6971  0.7085
 2700TIP3    H229516   1.932   4.169  14.290  0.0116 -0.0731 -0.6239
 2701TIP3   OH229517   0.219   2.382  16.715 -0.2934 -0.3334 -0.0767
 2701TIP3    H129518   0.240   2.329  16.638  1.2815  1.2844 -0.8289
 2701TIP3    H229519   0.292   2.369  16.775 -0.0892  0.6163 -0.0918
 2702TIP3   OH229520   4.686   4.328   4.682 -0.7950  0.4337 -0.2399
 2702TIP3    H129521   4.642   4.387   4.621 -1.7225  0.1384  0.1262
 2702TIP3    H229522   4.621   4.261   4.702 -0.4579  0.4350  0.9525
 2703TIP3   OH229523   1.709   5.587   2.198 -0.1282 -0.0515 -0.0432
 2703TIP3    H129524   1.801   5.603   2.174 -0.8945  1.4951 -2.2854
 2703TIP3    H229525   1.670   5.674   2.202 -1.7311 -0.7263 -0.1639
 2704TIP3   OH229526   6.308   3.567   5.416 -0.4545 -0.5970 -0.4601
 2704TIP3    H129527   6.221   3.596   5.443  0.2363  0.3635  0.8584
 2704TIP3    H229528   6.306   3.472   5.426 -0.9804 -0.4786  0.8192
 2705TIP3   OH229529   3.441   3.292   1.158  0.5513 -0.1410 -0.0353
 2705TIP3    H129530   3.525   3.248   1.169  1.0540  1.2426  2.3748
 2705TIP3    H229531   3.461   3.372   1.108  0.5983  0.0191  0.2412
 2706TIP3   OH229532   1.226   4.382   0.453  0.0065  0.2083  0.4617
 2706TIP3    H129533   1.163   4.406   0.385  0.1474  0.8545  0.5499
 2706TIP3    H229534   1.273   4.463   0.471  1.4779 -0.4588 -0.2284
 2707TIP3   OH229535   3.012   5.569   2.797 -0.0056 -0.5164 -0.1200
 2707TIP3    H129536   2.986   5.642   2.853  0.7222  0.1268 -0.5930
 2707TIP3    H229537   3.003   5.491   2.852 -0.5560 -0.0479  0.4705
 2708TIP3   OH229538   0.700   1.324  15.815  0.4240 -0.6587 -0.2426
 2708TIP3    H129539   0.732   1.369  15.737 -0.9736 -1.6183 -1.4199
 2708TIP3    H229540   0.629   1.379  15.848  0.3633 -0.7453 -0.2267
 2709TIP3   OH229541   4.019   1.330  13.021 -0.2811  0.0306  0.2812
 2709TIP3    H129542   4.055   1.242  13.034 -0.1626  0.1193  0.5617
 2709TIP3    H229543   3.934   1.327  13.064 -0.4039 -0.0357  0.0328
 2710TIP3   OH229544   1.720   6.021  12.609  0.1094  0.1785  0.2631
 2710TIP3    H129545   1.739   5.939  12.656  0.7807  0.7454  1.0127
 2710TIP3    H229546   1.787   6.025  12.540 -0.6111 -0.4424 -0.4872
 2711TIP3   OH229547   1.310   5.794   3.166 -0.1804  0.1601  0.2093
 2711TIP3    H129548   1.287   5.737   3.093 -0.5898 -0.1154  0.5419
 2711TIP3    H229549   1.370   5.741   3.219  0.0129  0.3094  0.1386
 2712TIP3   OH229550   3.574   5.703   5.805  0.3139  0.5043 -0.8081
 2712TIP3    H129551   3.664   5.729   5.784 -0.3622  1.3593 -2.8897
 2712TIP3    H229552   3.519   5.771   5.766 -1.2953 -0.8390 -1.0068
 2713TIP3   OH229553   3.807   0.514  16.530 -0.6160 -0.5590 -0.5673
 2713TIP3    H129554   3.793   0.556  16.445 -1.8555 -1.0189 -0.6118
 2713TIP3    H229555   3.828   0.587  16.589 -2.1566  0.1039 -0.7758
 2714TIP3   OH229556   2.614   0.980   4.659 -0.5485  0.1915 -0.1732
 2714TIP3    H129557   2.667   1.058   4.675  1.8793 -1.3628 -0.1307
 2714TIP3    H229558   2.586   0.989   4.568 -0.6306  1.2843 -0.0555
 2715TIP3   OH229559   5.597   2.637  11.994  0.1996 -0.1034 -0.0289
 2715TIP3    H129560   5.645   2.558  12.019  2.4115  0.8165 -1.1330
 2715TIP3    H229561   5.579   2.625  11.901 -1.4208 -0.2205  0.2592
 2716TIP3   OH229562   4.592   0.680  10.567  0.1948  0.6019 -0.1325
 2716TIP3    H129563   4.584   0.605  10.626 -0.1387 -0.3981 -1.3975
 2716TIP3    H229564   4.564   0.755  10.620  0.4555 -0.1610  1.1375
 2717TIP3   OH229565   2.525   3.017   4.473  0.1828 -0.1006 -0.1786
 2717TIP3    H129566   2.525   3.095   4.528  0.8950  0.0675 -0.4034
 2717TIP3    H229567   2.601   2.967   4.502 -0.3597 -0.7948  0.0697
 2718TIP3   OH229568   0.798   0.374   2.825  0.1886 -0.3000 -0.3152
 2718TIP3    H129569   0.773   0.464   2.848  0.4166 -0.7132  1.6624
 2718TIP3    H229570   0.715   0.331   2.806 -0.0461 -0.0032  0.0197
 2719TIP3   OH229571   2.019   1.676   4.019 -0.1124  0.1899 -0.6857
 2719TIP3    H129572   2.033   1.750   3.960  1.3887 -0.7737 -1.6161
 2719TIP3    H229573   2.107   1.647   4.043 -0.6156 -1.6258 -0.8180
 2720TIP3   OH229574   1.625   1.174   5.770  0.0267 -0.3262  0.2700
 2720TIP3    H129575   1.691   1.105   5.784 -0.0325 -0.1000  1.9018
 2720TIP3    H229576   1.675   1.248   5.736 -0.1497 -1.6210 -3.1283
 2721TIP3   OH229577   0.334   4.852  16.956  0.0630 -0.7587  0.1952
 2721TIP3    H129578   0.302   4.782  16.900  0.8477  0.3560 -1.7389
 2721TIP3    H229579   0.284   4.843  17.037 -1.2087 -2.3454 -0.7154
 2722TIP3   OH229580   0.492   6.364   2.464  0.4050 -0.4945  0.5056
 2722TIP3    H129581   0.582   6.330   2.464  0.0591 -1.4668  0.9873
 2722TIP3    H229582   0.488   6.422   2.388  2.0531  1.3084  1.6986
 2723TIP3   OH229583   2.894   3.838   1.780 -0.2241 -0.7133  0.3552
 2723TIP3    H129584   2.921   3.903   1.846 -1.6334  1.0986 -0.7507
 2723TIP3    H229585   2.977   3.804   1.745  0.6428  1.4824  0.0682
 2724TIP3   OH229586   0.940   1.527  15.349  0.3689  0.0647  0.5666
 2724TIP3    H129587   0.938   1.622  15.361  0.1083  0.1032  0.2178
 2724TIP3    H229588   0.906   1.513  15.261  0.3021 -0.3612  0.6581
 2725TIP3   OH229589   2.720   1.380   5.144  0.4148  0.1937 -0.0082
 2725TIP3    H129590   2.649   1.428   5.185  0.4014  1.0919 -1.0514
 2725TIP3    H229591   2.727   1.416   5.056 -0.6260 -2.7236 -1.4418
 2726TIP3   OH229592   0.659   1.250   0.891  0.5709 -0.3473  0.2214
 2726TIP3    H129593   0.723   1.216   0.828  0.3120 -1.7036  0.6435
 2726TIP3    H229594   0.588   1.185   0.890 -0.7882  1.0931 -0.1928
 2727TIP3   OH229595   3.393   4.134   6.748 -0.2624 -0.5245 -0.0820
 2727TIP3    H129596   3.353   4.213   6.714 -0.2645 -0.8680 -0.9168
 2727TIP3    H229597   3.366   4.065   6.687  1.1612 -0.8555 -0.3829
 2728TIP3   OH229598   3.947   2.735   5.372  0.6311 -0.0656 -0.2210
 2728TIP3    H129599   4.027   2.701   5.330  1.1335  1.1963 -0.3465
 2728TIP3    H229600   3.915   2.801   5.311  1.7713  2.3397  1.6122
 2729TIP3   OH229601   3.769   3.990   4.883  0.6359  0.0400  0.0079
 2729TIP3    H129602   3.837   4.008   4.948 -0.1494 -0.7545  1.0969
 2729TIP3    H229603   3.765   3.894   4.879 -0.6458  0.0707  0.2317
 2730TIP3   OH229604   0.004   3.856  13.562  0.1460  0.2809 -0.7553
 2730TIP3    H129605  -0.080   3.845  13.517  0.6803 -0.0084 -1.7209
 2730TIP3    H229606  -0.018   3.901  13.643 -1.1888 -1.3664 -0.1400
 2731TIP3   OH229607   1.686   3.073  13.381  0.0334  0.3596 -0.2299
 2731TIP3    H129608   1.730   3.005  13.328 -0.3494 -0.6623  0.7190
 2731TIP3    H229609   1.681   3.149  13.323  0.8762 -0.2804 -1.1817
 2732TIP3   OH229610   2.535   1.145  14.201  0.0436  0.1254  0.0480
 2732TIP3    H129611   2.601   1.208  14.171  0.5630 -0.4792 -0.0817
 2732TIP3    H229612   2.485   1.194  14.266  1.4715  0.2064  1.1503
 2733TIP3   OH229613   5.714   0.515   5.307  0.4427  0.3630 -1.1198
 2733TIP3    H129614   5.626   0.504   5.343  1.2833  1.8171  1.6738
 2733TIP3    H229615   5.767   0.450   5.353  1.4455  1.8301 -0.1068
 2734TIP3   OH229616   6.375   0.378   2.099  0.0736  0.3707  0.0149
 2734TIP3    H129617   6.406   0.434   2.028 -2.3935  1.1208 -0.5439
 2734TIP3    H229618   6.304   0.327   2.061  0.2523 -0.9588  1.3481
 2735TIP3   OH229619   4.257   6.059   3.072  0.1894 -0.0001  0.3623
 2735TIP3    H129620   4.246   6.058   2.977 -1.6430 -0.9242  0.5383
 2735TIP3    H229621   4.176   6.020   3.106  2.0236 -2.6029  2.1780
 2736TIP3   OH229622   2.903   5.474  12.836  0.1520  0.2919  0.6871
 2736TIP3    H129623   2.863   5.387  12.831 -2.3466  1.2722  1.8258
 2736TIP3    H229624   2.925   5.484  12.929  0.8818  0.6976  0.4727
 2737TIP3   OH229625   2.623   0.736  12.519  0.0686  0.1798 -0.1912
 2737TIP3    H129626   2.623   0.640  12.525 -2.4112  0.2064  2.5527
 2737TIP3    H229627   2.714   0.761  12.533  1.2031 -1.7506 -3.1547
 2738TIP3   OH229628   1.188   5.845   3.774  0.0951 -0.8464  0.0079
 2738TIP3    H129629   1.154   5.923   3.730 -0.0196 -0.2416  1.1190
 2738TIP3    H229630   1.241   5.800   3.708  0.8315  0.6014 -0.4120
 2739TIP3   OH229631   6.594   3.973   1.904 -0.5498 -0.1441 -0.0465
 2739TIP3    H129632   6.595   3.891   1.953  0.9977 -1.0292 -1.4492
 2739TIP3    H229633   6.683   4.007   1.912  0.2662 -1.1117 -3.3467
 2740TIP3   OH229634   5.479   5.442   2.881 -0.1475 -0.1750  0.1113
 2740TIP3    H129635   5.568   5.469   2.900 -0.9383  2.8243  0.0431
 2740TIP3    H229636   5.431   5.457   2.962 -0.4830 -2.7181  0.4684
 2741TIP3   OH229637   4.705   6.096   4.189 -0.8002 -0.1079  0.4181
 2741TIP3    H129638   4.779   6.122   4.135 -0.0082 -0.7697  1.1469
 2741TIP3    H229639   4.718   6.141   4.272 -1.6476  0.3871  0.2878
 2742TIP3   OH229640   3.777   5.687  12.985 -0.2970  0.1395  0.2283
 2742TIP3    H129641   3.753   5.761  13.042 -2.0437 -0.8340  0.8202
 2742TIP3    H229642   3.740   5.710  12.900 -0.3296  0.2220  0.2636
 2743TIP3   OH229643   0.780   2.070   2.404  0.2302 -0.2949  0.3533
 2743TIP3    H129644   0.777   1.982   2.366 -1.2223 -0.0700 -0.1059
 2743TIP3    H229645   0.735   2.061   2.488 -0.9534  0.2366 -0.2122
 2744TIP3   OH229646   1.911   5.576  12.290 -0.0022 -0.0240  0.9867
 2744TIP3    H129647   1.927   5.529  12.372  1.2277 -0.7380  0.3721
 2744TIP3    H229648   1.891   5.507  12.227  1.0394  0.3228  0.2489
 2745TIP3   OH229649   0.281   4.680   2.352 -0.0786 -0.4517  0.0640
 2745TIP3    H129650   0.241   4.719   2.430 -0.6571 -0.1255 -0.3912
 2745TIP3    H229651   0.257   4.738   2.281  1.7675  0.1352 -0.1432
 2746TIP3   OH229652   4.526   0.203   1.515 -0.3798 -0.6464  0.3079
 2746TIP3    H129653   4.539   0.257   1.436 -0.8675 -1.3084 -0.2364
 2746TIP3    H229654   4.585   0.129   1.503  0.3082 -0.2392  1.0685
 2747TIP3   OH229655   2.983   2.145   4.241 -0.0515  0.2830 -0.1301
 2747TIP3    H129656   2.945   2.204   4.177 -1.9620 -2.7819 -2.0713
 2747TIP3    H229657   2.911   2.124   4.300  1.1933  1.5489  1.9739
 2748TIP3   OH229658   2.226   4.095  12.809 -0.0932 -0.3303  0.1300
 2748TIP3    H129659   2.202   4.009  12.776  1.6470 -2.5229  3.8844
 2748TIP3    H229660   2.182   4.101  12.894  0.4753  2.1612  0.3255
 2749TIP3   OH229661   2.820   1.670  14.426  0.2340  0.0107 -0.4324
 2749TIP3    H129662   2.809   1.755  14.469  0.4651 -0.8402  1.4148
 2749TIP3    H229663   2.739   1.622  14.445 -1.0563  0.6462 -3.6783
 2750TIP3   OH229664   0.611   0.288   5.426 -0.3769 -0.4456 -0.4428
 2750TIP3    H129665   0.641   0.208   5.469  1.6421  0.3327 -0.2954
 2750TIP3    H229666   0.516   0.288   5.437 -0.7655 -3.9210 -2.3426
 2751TIP3   OH229667   0.622   0.965   5.854  0.0609 -0.0171  0.4060
 2751TIP3    H129668   0.575   0.967   5.937 -0.1621 -1.4977  0.3510
 2751TIP3    H229669   0.661   0.878   5.850  1.9255  0.7831 -0.0604
 2752TIP3   OH229670   0.887   1.002  16.748  0.3018  0.2935 -0.4314
 2752TIP3    H129671   0.866   1.037  16.834  0.5480 -1.2628  0.2837
 2752TIP3    H229672   0.978   0.973  16.755  0.3562  0.2429 -1.2423
 2753TIP3   OH229673   1.224   0.866   4.900 -0.3415  0.1054  0.1344
 2753TIP3    H129674   1.175   0.785   4.887  0.5135 -0.3298 -0.3979
 2753TIP3    H229675   1.307   0.839   4.938  0.1544  0.6815 -0.5167
 2754TIP3   OH229676   0.810   4.337   3.795 -0.7729 -0.3649 -0.1732
 2754TIP3    H129677   0.844   4.310   3.880  1.0636  0.6935 -0.5141
 2754TIP3    H229678   0.863   4.287   3.732 -1.8381 -0.8370 -0.7272
 2755TIP3   OH229679   1.339   3.080   5.328 -0.3912  0.0556  0.1872
 2755TIP3    H129680   1.378   2.999   5.293  1.1345  0.9239 -0.2391
 2755TIP3    H229681   1.245   3.066   5.321 -0.1740 -0.9045 -1.7893
 2756TIP3   OH229682   3.384   0.942  15.745  0.0085  0.5335  0.4200
 2756TIP3    H129683   3.331   1.021  15.733  0.2220  0.5774 -0.2968
 2756TIP3    H229684   3.375   0.894  15.663  0.1846 -0.0056  0.7098
 2757TIP3   OH229685   6.241   3.549   0.483 -0.4241  0.3318  0.2486
 2757TIP3    H129686   6.196   3.633   0.480  0.9564  1.1168  0.8367
 2757TIP3    H229687   6.313   3.558   0.421 -1.2906 -1.0739 -1.0410
 2758TIP3   OH229688   2.977   4.630   0.653 -0.5916  0.1156  0.3097
 2758TIP3    H129689   2.999   4.688   0.726 -2.0207 -0.1360  0.9685
 2758TIP3    H229690   3.062   4.603   0.618  0.1261  0.6419  1.5663
 2759TIP3   OH229691   5.754   5.684  11.476 -0.5198 -0.1246  0.1582
 2759TIP3    H129692   5.837   5.655  11.513  0.0310  2.1085  0.7878
 2759TIP3    H229693   5.696   5.694  11.552 -0.9534 -0.3962 -0.1345
 2760TIP3   OH229694   2.623   3.318  15.062 -0.3649  0.2169  0.1267
 2760TIP3    H129695   2.537   3.352  15.037  0.2047  2.3913  0.9399
 2760TIP3    H229696   2.683   3.357  14.999  0.1963 -0.1866  0.4083
 2761TIP3   OH229697   5.318   3.789   5.643 -0.1975 -0.3295  0.0467
 2761TIP3    H129698   5.339   3.876   5.676  1.2649  0.7688 -3.3237
 2761TIP3    H229699   5.235   3.766   5.685  0.9275  1.2037  3.4856
 2762TIP3   OH229700   3.798   2.048   3.750 -0.0457  0.4255  0.0001
 2762TIP3    H129701   3.778   2.019   3.661  1.3756  0.6766 -0.4164
 2762TIP3    H229702   3.716   2.087   3.781  0.1735  3.0624 -2.3038
 2763TIP3   OH229703   4.826   2.795   3.636 -0.2427  0.2329  0.1269
 2763TIP3    H129704   4.795   2.852   3.706  0.4193  2.1294 -1.0330
 2763TIP3    H229705   4.921   2.801   3.640 -0.0865 -1.9510  0.8357
 2764TIP3   OH229706   3.514   6.638  11.423  0.5166  0.4343 -0.1579
 2764TIP3    H129707   3.573   6.563  11.422 -1.3951 -1.3396  2.8298
 2764TIP3    H229708   3.541   6.689  11.499 -0.3119  0.8903 -0.1529
 2765TIP3   OH229709   3.982   5.486   2.156 -0.2436  0.5424 -0.7826
 2765TIP3    H129710   3.909   5.512   2.100  0.5584 -0.0583 -2.1462
 2765TIP3    H229711   3.970   5.392   2.168 -1.6504  0.9734  1.9529
 2766TIP3   OH229712   4.196   5.370   0.850  0.5716 -0.5603 -0.0084
 2766TIP3    H129713   4.135   5.426   0.898 -0.6382 -1.6755 -0.2002
 2766TIP3    H229714   4.148   5.344   0.771  1.8847 -0.1872 -0.9605
 2767TIP3   OH229715   3.166   0.783  16.114 -0.1166  0.8541 -0.0940
 2767TIP3    H129716   3.238   0.721  16.131 -2.5502 -2.9852 -2.3835
 2767TIP3    H229717   3.115   0.782  16.195 -0.9466 -1.5292 -0.5644
 2768TIP3   OH229718   0.811   2.717  11.852 -0.5604  0.2055 -0.1899
 2768TIP3    H129719   0.869   2.644  11.872 -0.0675  0.2700 -1.3044
 2768TIP3    H229720   0.820   2.730  11.757 -0.0959  2.1406  0.0697
 2769TIP3   OH229721   1.201   3.796  13.573  0.1482  0.2685 -0.5685
 2769TIP3    H129722   1.167   3.886  13.577 -1.3397 -0.2920 -0.0673
 2769TIP3    H229723   1.153   3.757  13.500 -1.9604 -1.1740  1.4719
 2770TIP3   OH229724   4.540   1.632   3.533  0.6148  0.1149 -0.5900
 2770TIP3    H129725   4.580   1.660   3.615 -1.0351 -0.1064  0.3426
 2770TIP3    H229726   4.567   1.541   3.522  0.7547  0.1088 -0.2192
 2771TIP3   OH229727   2.094   6.681   2.828  0.6315 -0.2066  0.4612
 2771TIP3    H129728   2.029   6.637   2.882 -0.0379  1.1783  0.8555
 2771TIP3    H229729   2.161   6.711   2.890  0.7825 -0.1815  0.2873
 2772TIP3   OH229730   0.493   5.736   0.144 -0.1819 -0.2234  0.5676
 2772TIP3    H129731   0.404   5.709   0.122 -0.4563  0.4424  0.8531
 2772TIP3    H229732   0.544   5.717   0.065 -0.7049  0.0057  0.1696
 2773TIP3   OH229733   6.131   3.765  13.924 -0.1052  0.0140  0.1608
 2773TIP3    H129734   6.159   3.746  13.834 -1.6252 -1.2024 -0.0858
 2773TIP3    H229735   6.073   3.840  13.916 -1.1011 -0.7594 -0.0404
 2774TIP3   OH229736   6.404   4.064  16.532  0.6105  0.4400 -0.1752
 2774TIP3    H129737   6.424   4.121  16.606  2.2327 -1.0506  0.6060
 2774TIP3    H229738   6.379   3.980  16.571  0.5367 -0.0904 -1.3003
 2775TIP3   OH229739   3.464   5.972   6.262  0.1966  0.0129  0.0832
 2775TIP3    H129740   3.467   5.935   6.350 -1.4656  0.9192  0.5705
 2775TIP3    H229741   3.468   6.067   6.276 -0.7252  0.1873 -0.7735
 2776TIP3   OH229742   4.154   0.977  13.526 -0.4724 -0.2925  0.0943
 2776TIP3    H129743   4.062   0.971  13.501 -0.7527 -1.6780  1.3039
 2776TIP3    H229744   4.151   1.010  13.617  0.2564  0.0747 -0.0085
 2777TIP3   OH229745   5.306   6.557  14.326 -0.3631  0.3246 -0.1207
 2777TIP3    H129746   5.312   6.491  14.257 -0.7826  1.6404 -1.4616
 2777TIP3    H229747   5.334   6.638  14.284 -0.8847  1.2071  1.1879
 2778TIP3   OH229748   4.533   0.346  10.492 -0.3799  0.2664  0.1226
 2778TIP3    H129749   4.555   0.427  10.445 -0.4126 -0.3077 -0.9054
 2778TIP3    H229750   4.614   0.296  10.493 -0.6256 -0.1471 -0.1943
 2779TIP3   OH229751   3.301   2.645   1.623  0.4183  0.4275  0.1687
 2779TIP3    H129752   3.372   2.683   1.571  0.7609 -1.8497 -1.1405
 2779TIP3    H229753   3.345   2.602   1.696  0.3569 -0.4464 -0.2975
 2780TIP3   OH229754   4.214   0.655   1.861  0.0823 -0.2489  0.0800
 2780TIP3    H129755   4.185   0.612   1.781 -0.9687  0.0346  0.3030
 2780TIP3    H229756   4.238   0.744   1.834 -0.7438  0.0044  0.1510
 2781TIP3   OH229757   3.993   2.763  15.937 -0.0048 -0.7079 -0.1266
 2781TIP3    H129758   3.913   2.814  15.946 -0.9398 -2.2829  0.7177
 2781TIP3    H229759   3.966   2.680  15.898  1.2198 -1.2236  0.0527
 2782TIP3   OH229760   0.927   5.199  15.548 -0.0893  0.6655 -0.3114
 2782TIP3    H129761   0.938   5.200  15.453  3.6491 -0.7761 -0.0766
 2782TIP3    H229762   0.997   5.256  15.581  0.1133 -0.5772  1.5720
 2783TIP3   OH229763   4.028   1.267  11.863  0.0991  0.4170  0.2982
 2783TIP3    H129764   4.012   1.359  11.885  0.4456  0.1358  1.8868
 2783TIP3    H229765   4.058   1.228  11.946 -0.5690 -1.2429 -0.2041
 2784TIP3   OH229766   2.079   0.253   5.060 -0.1732 -0.0352 -0.6248
 2784TIP3    H129767   2.032   0.190   5.006  2.1938 -3.0956  0.5753
 2784TIP3    H229768   2.102   0.204   5.139  1.1943  2.5847  0.7175
 2785TIP3   OH229769   6.208   2.433   6.448 -0.3536 -0.1840  0.3246
 2785TIP3    H129770   6.188   2.367   6.381 -2.0099  0.6191 -0.0362
 2785TIP3    H229771   6.172   2.514   6.413  0.6823  0.7116  1.2459
 2786TIP3   OH229772   5.570   2.893   3.728  0.6409  0.1196 -0.0579
 2786TIP3    H129773   5.488   2.942   3.718  1.4765  1.4652 -0.7022
 2786TIP3    H229774   5.558   2.843   3.808 -1.3204 -0.7645 -0.8317
 2787TIP3   OH229775   6.726   4.886  13.588  0.5243 -0.1094 -0.2975
 2787TIP3    H129776   6.633   4.866  13.596  0.1822  1.2724 -0.6463
 2787TIP3    H229777   6.768   4.800  13.576 -0.8582 -0.6297 -1.6846
 2788TIP3   OH229778   2.898   3.774  13.310  0.4018 -0.5716  0.6391
 2788TIP3    H129779   2.902   3.842  13.243  1.9967 -0.0401  1.2509
 2788TIP3    H229780   2.952   3.703  13.275 -2.0939 -2.0746 -0.4995
 2789TIP3   OH229781   6.043   4.184   3.821 -0.1284 -0.6387  0.4672
 2789TIP3    H129782   6.059   4.267   3.866  0.0452 -0.5650  0.2669
 2789TIP3    H229783   6.024   4.208   3.731  1.0493 -0.8918  0.1378
 2790TIP3   OH229784   0.137   3.207  12.857  0.5503  0.8519 -0.3815
 2790TIP3    H129785   0.202   3.154  12.810 -0.5706 -0.3855 -0.5972
 2790TIP3    H229786   0.084   3.247  12.788 -0.5947 -0.3303 -0.2381
 2791TIP3   OH229787   0.874   4.336   0.084  0.6270  0.3794  0.0699
 2791TIP3    H129788   0.965   4.339   0.056 -0.0507  2.3622 -2.2183
 2791TIP3    H229789   0.828   4.396   0.025 -2.0499  0.0245  1.6159
 2792TIP3   OH229790   6.659   0.079  17.170  0.1858 -0.1999  0.2432
 2792TIP3    H129791   6.690   0.103  17.083 -0.8689  0.1594 -0.0422
 2792TIP3    H229792   6.614   0.157  17.202 -1.9978 -1.2439 -0.0971
 2793TIP3   OH229793   1.173   0.505  11.334 -0.4061  0.0746 -0.0505
 2793TIP3    H129794   1.184   0.570  11.403 -0.4083 -0.4692  0.4647
 2793TIP3    H229795   1.136   0.428  11.378  1.3434 -0.9556 -0.2772
 2794TIP3   OH229796   0.516   4.859  10.767  0.1395 -0.4060  0.1998
 2794TIP3    H129797   0.587   4.923  10.765  0.9576 -1.0127  3.2788
 2794TIP3    H229798   0.464   4.877  10.689  1.7342  2.3351 -0.3522
 2795TIP3   OH229799   0.904   5.748  14.131  0.3976 -0.8960 -0.2495
 2795TIP3    H129800   0.884   5.834  14.167  0.6462 -1.3036  0.8871
 2795TIP3    H229801   0.819   5.708  14.114  0.2177 -1.5365  1.9436
 2796TIP3   OH229802   2.884   5.522   4.774  0.5264 -0.6030  0.3959
 2796TIP3    H129803   2.903   5.463   4.700 -0.4193 -0.4310  0.0026
 2796TIP3    H229804   2.811   5.575   4.743  0.7286  0.1037  1.1241
 2797TIP3   OH229805   2.822   6.365   4.979 -0.0589 -0.0828 -0.4655
 2797TIP3    H129806   2.797   6.449   5.019  0.9253  0.3936 -0.8231
 2797TIP3    H229807   2.782   6.367   4.892  4.2332  2.4985 -2.7302
 2798TIP3   OH229808   2.451   5.210  12.132 -0.2384 -0.1526 -0.6851
 2798TIP3    H129809   2.451   5.124  12.090 -2.9087  0.3048 -1.8112
 2798TIP3    H229810   2.361   5.240  12.126  0.0862  1.6888  1.9391
 2799TIP3   OH229811   4.328   1.630  11.873  0.1396 -0.4427  0.2897
 2799TIP3    H129812   4.407   1.602  11.919 -0.4072 -2.1838  0.2636
 2799TIP3    H229813   4.256   1.599  11.928 -0.5371 -2.3842 -1.5454
 2800TIP3   OH229814   6.003   0.766   0.765  0.5242 -0.5228  0.2483
 2800TIP3    H129815   5.979   0.794   0.853  2.1357  1.3595  0.1686
 2800TIP3    H229816   6.019   0.672   0.774  0.8361 -0.3466  2.0180
 2801TIP3   OH229817   3.554   0.680   3.142 -0.1813 -0.4258  0.2229
 2801TIP3    H129818   3.641   0.711   3.170 -0.4384  0.3665  0.1724
 2801TIP3    H229819   3.534   0.733   3.065  0.3735 -2.3451 -1.3241
 2802TIP3   OH229820   1.478   0.196  14.581  0.1498  0.0292 -0.4788
 2802TIP3    H129821   1.545   0.235  14.525  0.3065  0.0027 -0.3131
 2802TIP3    H229822   1.396   0.236  14.552  0.6406  3.2194  1.9611
 2803TIP3   OH229823   6.333   3.908  12.221 -0.8232 -0.0967 -0.2588
 2803TIP3    H129824   6.395   3.860  12.276 -3.0620 -1.5453  1.1603
 2803TIP3    H229825   6.353   3.881  12.132  0.9689 -0.0225  0.0886
 2804TIP3   OH229826   0.495   2.956  11.199  0.3261  0.3945  0.5174
 2804TIP3    H129827   0.573   2.907  11.227  0.8104  1.0167  0.2650
 2804TIP3    H229828   0.513   3.046  11.226 -1.1808  0.2324  2.2973
 2805TIP3   OH229829   2.234   4.417   4.358  0.4743  0.8665  0.3153
 2805TIP3    H129830   2.215   4.386   4.447  1.6125  2.8578  1.3478
 2805TIP3    H229831   2.330   4.425   4.356  0.8436 -2.1666 -2.2584
 2806TIP3   OH229832   1.676   1.270   3.720  0.9709 -0.0099 -0.2187
 2806TIP3    H129833   1.753   1.216   3.700  0.5117  0.2229 -2.9870
 2806TIP3    H229834   1.706   1.329   3.789  3.0111 -0.5457 -0.5693
 2807TIP3   OH229835   0.609   4.687  14.153  0.4844 -0.6612  0.0133
 2807TIP3    H129836   0.637   4.666  14.242  1.3636  0.9426  0.1661
 2807TIP3    H229837   0.529   4.739  14.165  0.7777 -0.1763 -0.0973
 2808TIP3   OH229838   5.392   0.370   3.999 -0.1791 -0.2942  0.5995
 2808TIP3    H129839   5.482   0.340   4.012 -0.0528 -0.0363  0.3220
 2808TIP3    H229840   5.358   0.315   3.928  0.3534  0.8147 -0.5588
 2809TIP3   OH229841   3.671   6.178  13.864 -0.6001 -0.2193  0.4139
 2809TIP3    H129842   3.644   6.092  13.831 -1.4823  0.5546 -0.9473
 2809TIP3    H229843   3.615   6.192  13.941 -0.8953 -0.5884  0.2712
 2810TIP3   OH229844   3.582   2.665   4.666 -0.6018 -0.1857  0.1152
 2810TIP3    H129845   3.579   2.729   4.736 -1.0190  0.3891 -0.4152
 2810TIP3    H229846   3.625   2.711   4.593  0.3010 -0.9387  0.1508
 2811TIP3   OH229847   6.206   2.227   0.888 -0.3392  0.0228 -0.3913
 2811TIP3    H129848   6.185   2.138   0.863  2.7201 -1.6055  2.0886
 2811TIP3    H229849   6.274   2.254   0.827  1.2762 -0.8044  0.9677
 2812TIP3   OH229850   1.428   3.125  16.619  0.0504  0.2454 -0.1604
 2812TIP3    H129851   1.397   3.086  16.701 -0.6985  1.5746  0.2175
 2812TIP3    H229852   1.515   3.088  16.606  0.9382  1.3008  2.1895
 2813TIP3   OH229853   1.418   2.113  17.236  0.8079 -0.4522 -0.3801
 2813TIP3    H129854   1.334   2.069  17.249  1.1096 -1.1199 -0.6420
 2813TIP3    H229855   1.478   2.070  17.297  0.9733 -0.0333 -0.2499
 2814TIP3   OH229856   2.284   5.371   5.076  0.0369  0.2629  0.0271
 2814TIP3    H129857   2.204   5.319   5.090  0.2974 -0.4293 -0.9137
 2814TIP3    H229858   2.354   5.320   5.117  0.3547 -0.3630 -1.2358
 2815TIP3   OH229859   1.018   3.974  16.393 -0.4477 -0.1444 -0.4839
 2815TIP3    H129860   0.970   4.028  16.455 -0.2251  0.6640 -1.0013
 2815TIP3    H229861   1.104   4.015  16.386 -0.2364 -0.6280 -0.7948
 2816TIP3   OH229862   4.640   0.751  14.051 -0.5306 -0.6110  0.5796
 2816TIP3    H129863   4.581   0.675  14.058 -0.5404 -0.5678  0.9507
 2816TIP3    H229864   4.705   0.737  14.119  0.1185 -0.8540 -0.0802
 2817TIP3   OH229865   0.872   3.846   2.777  0.2533 -0.5264 -0.2385
 2817TIP3    H129866   0.836   3.916   2.723  1.5010  0.3014 -0.0218
 2817TIP3    H229867   0.940   3.806   2.723  1.0294 -0.1471  0.4213
 2818TIP3   OH229868   6.453   3.143   3.313  0.0591 -0.2119  0.2634
 2818TIP3    H129869   6.481   3.101   3.232  1.2839  0.9143  0.0504
 2818TIP3    H229870   6.488   3.088   3.383  0.6745 -0.1720 -0.0041
 2819TIP3   OH229871   5.859   4.519  13.174  0.2763 -0.0600 -0.4206
 2819TIP3    H129872   5.819   4.575  13.108  0.8716 -1.6477 -2.2024
 2819TIP3    H229873   5.803   4.442  13.178 -0.0441  0.2177  1.3580
 2820TIP3   OH229874   1.833   6.267   2.113 -0.0794 -0.2559 -0.2452
 2820TIP3    H129875   1.864   6.354   2.085  0.7918 -0.1975  0.8376
 2820TIP3    H229876   1.913   6.215   2.122 -0.3733 -0.5099  1.2445
 2821TIP3   OH229877   4.697   5.472   3.434 -0.9251  0.6013 -0.0843
 2821TIP3    H129878   4.761   5.441   3.498  0.3182  1.0638 -1.0708
 2821TIP3    H229879   4.650   5.393   3.408  0.0998  0.0309 -0.2721
 2822TIP3   OH229880   1.354   1.699  12.672  0.3858  0.6224  0.3596
 2822TIP3    H129881   1.363   1.636  12.743 -1.8837 -0.8231 -0.5233
 2822TIP3    H229882   1.285   1.758  12.701  0.5448  0.9842  0.0121
 2823TIP3   OH229883   3.242   1.122  13.730  0.1325  0.0270  0.1063
 2823TIP3    H129884   3.174   1.064  13.764  0.2804 -0.9448 -1.1843
 2823TIP3    H229885   3.194   1.196  13.693 -0.0632  0.7230  1.6570
 2824TIP3   OH229886   0.644   2.591  15.328  0.0725  0.4915  0.3594
 2824TIP3    H129887   0.575   2.559  15.269 -0.2531  0.0829  0.9481
 2824TIP3    H229888   0.722   2.595  15.274 -0.1594 -0.1457 -0.0288
 2825TIP3   OH229889   1.967   2.751   1.838  0.1263  0.1671 -0.8176
 2825TIP3    H129890   2.035   2.770   1.774  0.2218  0.9578 -0.4906
 2825TIP3    H229891   1.924   2.835   1.854  0.4478  0.0969  0.5416
 2826TIP3   OH229892   1.170   4.072  14.985 -0.3327 -0.0935  0.0306
 2826TIP3    H129893   1.264   4.054  14.978  0.0675  1.5720  0.4729
 2826TIP3    H229894   1.133   3.994  15.025  0.6632 -1.2440 -1.2041
 2827TIP3   OH229895   2.658   5.207  16.228 -0.5351  0.3694  0.0931
 2827TIP3    H129896   2.591   5.273  16.246 -0.1538 -0.0015  3.6188
 2827TIP3    H229897   2.638   5.135  16.287  0.6688 -1.5466 -1.6708
 2828TIP3   OH229898   4.925   3.103  13.574  0.2954  0.1575  0.0546
 2828TIP3    H129899   4.991   3.075  13.638 -1.7999 -0.7548  1.9542
 2828TIP3    H229900   4.920   3.198  13.584  0.1441  0.0465  1.1299
 2829TIP3   OH229901   3.025   3.459  12.083 -0.0547  0.4714  0.4379
 2829TIP3    H129902   3.009   3.502  11.999  0.0184 -1.0047 -0.3723
 2829TIP3    H229903   3.119   3.466  12.096 -0.1587  1.3641  0.7923
 2830TIP3   OH229904   1.156   3.255  13.030  0.4097 -0.1877 -0.2073
 2830TIP3    H129905   1.107   3.174  13.045 -0.2325  0.2647  0.1294
 2830TIP3    H229906   1.196   3.242  12.944 -0.0492 -0.6823 -0.3537
 2831TIP3   OH229907   0.439   2.841   1.309  0.5160  0.0970  0.1735
 2831TIP3    H129908   0.404   2.901   1.243 -0.7223 -0.8149 -0.0442
 2831TIP3    H229909   0.415   2.880   1.393 -2.5864 -1.2365  0.0585
 2832TIP3   OH229910   5.517   2.643  12.620  1.1274 -0.3749  0.0054
 2832TIP3    H129911   5.555   2.644  12.707  2.9729  0.9064 -0.7460
 2832TIP3    H229912   5.472   2.559  12.613 -0.5980  0.1927  2.7790
 2833TIP3   OH229913   0.090   4.249   4.529  0.2875  0.1647  0.6496
 2833TIP3    H129914   0.106   4.343   4.538 -1.0523  0.4574  0.2634
 2833TIP3    H229915   0.066   4.237   4.437  4.5629 -1.2756 -0.5343
 2834TIP3   OH229916   5.692   2.242   4.085 -0.3252  0.1437 -0.3037
 2834TIP3    H129917   5.647   2.279   4.161 -0.0199  0.4897 -0.2843
 2834TIP3    H229918   5.747   2.173   4.121  0.1959  0.6373 -0.1337
 2835TIP3   OH229919   4.988   3.775   2.366 -0.5986 -0.3141  0.7180
 2835TIP3    H129920   4.923   3.846   2.366 -0.7534 -0.3957 -1.6718
 2835TIP3    H229921   5.002   3.756   2.459 -2.1805  1.3546  1.3562
 2836TIP3   OH229922   2.926   4.443  13.117 -0.1694  0.3810  0.1886
 2836TIP3    H129923   2.854   4.471  13.060  0.6248 -0.1371 -1.1167
 2836TIP3    H229924   2.894   4.364  13.160 -0.9185  0.9871  0.7672
 2837TIP3   OH229925   5.618   3.463   3.977 -0.1454  0.0305 -0.2596
 2837TIP3    H129926   5.667   3.529   4.026 -0.4774 -0.9392  1.4559
 2837TIP3    H229927   5.655   3.379   4.005  0.8131 -0.5785 -2.9623
 2838TIP3   OH229928   2.223   2.115   0.949 -0.0104 -0.3173 -0.6421
 2838TIP3    H129929   2.300   2.107   1.005  1.2909 -1.4494 -2.4878
 2838TIP3    H229930   2.205   2.025   0.921 -1.3695  0.0711 -1.0738
 2839TIP3   OH229931   4.727   0.201   3.170  0.0974 -0.7588 -0.0306
 2839TIP3    H129932   4.710   0.245   3.253  0.4201 -1.9487  0.6918
 2839TIP3    H229933   4.752   0.271   3.110 -0.8212  0.2010  0.6800
 2840TIP3   OH229934   0.117   3.185   0.791 -0.1327 -0.4000 -0.4327
 2840TIP3    H129935   0.082   3.188   0.702  0.5236  0.1482 -0.6813
 2840TIP3    H229936   0.057   3.239   0.842  0.1229  0.2175 -0.7753
 2841TIP3   OH229937   1.102   1.480  13.114  0.6822 -0.5385 -0.3290
 2841TIP3    H129938   1.091   1.570  13.146 -0.3485 -0.6475 -0.3503
 2841TIP3    H229939   1.116   1.428  13.193 -0.1489 -0.5605 -0.1915
 2842TIP3   OH229940   1.254   2.749  14.413  0.5317 -0.3980  0.0485
 2842TIP3    H129941   1.323   2.775  14.474  0.7496  0.7320 -0.6477
 2842TIP3    H229942   1.181   2.724  14.468  0.4273  1.4145  0.8058
 2843TIP3   OH229943   5.807   2.680   5.729 -0.3701  0.1672 -0.0463
 2843TIP3    H129944   5.892   2.638   5.717 -0.5967 -0.4790  0.5301
 2843TIP3    H229945   5.818   2.735   5.807  0.3064  2.2463 -1.5103
 2844TIP3   OH229946   1.852   5.657   4.684  0.8881 -0.4553  0.7246
 2844TIP3    H129947   1.766   5.646   4.726  0.8739 -2.0440  0.3339
 2844TIP3    H229948   1.913   5.666   4.756  0.6353 -1.3262  1.0557
 2845TIP3   OH229949   3.021   1.648  13.141 -0.0637  0.3832  0.1895
 2845TIP3    H129950   3.065   1.713  13.195 -0.9385  0.7774  0.4442
 2845TIP3    H229951   3.086   1.578  13.130  1.1509  1.5948 -0.6867
 2846TIP3   OH229952   6.032   5.894  10.598 -0.3070  0.3788 -0.4895
 2846TIP3    H129953   6.103   5.833  10.577  1.2965  1.5253  1.2613
 2846TIP3    H229954   6.059   5.977  10.560 -2.6930  0.0315 -3.2450
 2847TIP3   OH229955   3.205   0.150   3.962  0.1243 -1.0172  0.1783
 2847TIP3    H129956   3.142   0.203   4.011  1.0471 -0.4740  0.8057
 2847TIP3    H229957   3.198   0.182   3.872 -0.8864 -1.3598  0.1113
 2848TIP3   OH229958   3.725   1.932  13.782 -0.0295 -0.2316  0.6307
 2848TIP3    H129959   3.733   1.985  13.702 -0.7334 -0.0208  0.6979
 2848TIP3    H229960   3.811   1.941  13.824  0.0611  0.3708  0.3353
 2849TIP3   OH229961   0.718   5.460  15.734  0.4455 -0.0649 -0.2349
 2849TIP3    H129962   0.689   5.549  15.755  2.5580  0.5983  0.0825
 2849TIP3    H229963   0.720   5.415  15.819  2.3601  0.5621  0.1021
 2850TIP3   OH229964   4.734   2.829  12.185  0.4162 -0.2678  0.3852
 2850TIP3    H129965   4.811   2.878  12.157  1.3875 -1.1409  1.4244
 2850TIP3    H229966   4.697   2.880  12.257  0.6893 -0.3927  0.6204
 2851TIP3   OH229967   2.066   4.636   2.239 -0.3549 -0.6212  0.4148
 2851TIP3    H129968   2.127   4.709   2.248  0.4591 -0.7335 -2.8550
 2851TIP3    H229969   1.979   4.675   2.252  0.2066  0.1648  2.0662
 2852TIP3   OH229970   2.869   1.062   0.751 -0.9920 -0.1793 -0.7550
 2852TIP3    H129971   2.834   1.151   0.753  0.6121  0.4807 -0.0836
 2852TIP3    H229972   2.893   1.043   0.841 -0.5182 -0.9565 -1.0311
 2853TIP3   OH229973   3.143   0.980   3.588  0.2359 -0.4012  0.0687
 2853TIP3    H129974   3.197   1.043   3.636 -0.7509  0.5588 -0.0446
 2853TIP3    H229975   3.070   0.963   3.647 -1.3160  1.2629 -1.2589
 2854TIP3   OH229976   6.122   2.309   3.432 -0.3134 -0.0346 -0.0024
 2854TIP3    H129977   6.094   2.321   3.523  0.0619 -0.5443  0.1920
 2854TIP3    H229978   6.105   2.216   3.414 -0.0339 -0.0256 -0.3248
 2855TIP3   OH229979   4.268   2.384  13.918  0.1731  0.0514 -0.0828
 2855TIP3    H129980   4.193   2.368  13.976 -0.9291  0.2338 -1.4189
 2855TIP3    H229981   4.335   2.324  13.950 -0.6327 -0.3237  0.9792
 2856TIP3   OH229982   6.434   4.419   3.329  0.0739 -0.5629 -0.5865
 2856TIP3    H129983   6.380   4.429   3.408  0.5471  0.2723 -0.3502
 2856TIP3    H229984   6.435   4.507   3.290  0.9263 -0.6579 -0.8039
 2857TIP3   OH229985   4.194   1.969  11.873  0.0018 -0.4695 -0.3453
 2857TIP3    H129986   4.246   2.033  11.824 -0.7706  0.9473  0.6160
 2857TIP3    H229987   4.119   2.019  11.906  0.2503 -1.4479  1.8938
 2858TIP3   OH229988   6.271   5.604   3.498  0.0087 -0.1380 -0.0536
 2858TIP3    H129989   6.293   5.521   3.455  0.3204  0.1649 -0.4977
 2858TIP3    H229990   6.308   5.671   3.439 -1.4959  0.3670 -0.4641
 2859TIP3   OH229991   5.445   3.982   2.404  0.5511  0.5784  0.0180
 2859TIP3    H129992   5.391   3.965   2.327  0.9286  2.0436 -0.5951
 2859TIP3    H229993   5.422   4.071   2.431  0.7338  0.2479  1.3564
 2860TIP3   OH229994   1.601   4.067  12.925  0.3096 -0.6525  0.0650
 2860TIP3    H129995   1.526   4.051  12.982  0.4039 -1.2065  0.0385
 2860TIP3    H229996   1.602   3.993  12.864  0.2107 -0.0714 -0.6571
 2861TIP3   OH229997   5.801   5.892  15.207  0.1061  0.4287  0.0685
 2861TIP3    H129998   5.775   5.903  15.116  2.1557 -1.3854 -0.8178
 2861TIP3    H229999   5.775   5.802  15.229  1.0378  0.3125  0.7491
 2862TIP3   OH230000   0.516   1.467  10.343 -0.0070  0.1279  0.3279
 2862TIP3    H130001   0.585   1.444  10.405  2.0082  0.3541 -1.7378
 2862TIP3    H230002   0.488   1.383  10.306 -0.4620  0.0922  0.7371
 2863TIP3   OH230003   5.510   5.357   4.717  0.1713 -0.9212  0.3765
 2863TIP3    H130004   5.485   5.310   4.796  0.4448  0.4665  1.3411
 2863TIP3    H230005   5.589   5.406   4.743 -0.9921  1.3150 -0.0252
 2864TIP3   OH230006   4.888   0.577  13.628 -0.1157 -0.3436 -0.1956
 2864TIP3    H130007   4.854   0.599  13.541  0.2269 -2.0103 -0.7905
 2864TIP3    H230008   4.822   0.609  13.688 -0.9500 -0.2319 -1.1425
 2865TIP3   OH230009   1.637   6.015  15.616 -0.6160 -0.1310  0.5211
 2865TIP3    H130010   1.717   6.056  15.585 -0.4238 -1.2753 -0.5718
 2865TIP3    H230011   1.586   6.086  15.654  0.5853  0.7348  0.5520
 2866TIP3   OH230012   4.746   1.444   4.490  0.5976 -0.3604 -0.3296
 2866TIP3    H130013   4.654   1.462   4.471  0.6407  0.2416 -0.0033
 2866TIP3    H230014   4.793   1.518   4.453  0.7381  0.5033  1.4519
 2867TIP3   OH230015   4.688   2.252  13.351  0.5775  0.3889  1.1135
 2867TIP3    H130016   4.599   2.286  13.339  0.4839  0.5854  2.2459
 2867TIP3    H230017   4.727   2.256  13.264 -1.1363 -1.4877  0.1725
 2868TIP3   OH230018   6.043   1.782   0.128  0.4786 -0.0741  0.0004
 2868TIP3    H130019   5.964   1.832   0.149 -0.1063 -0.6086 -0.8207
 2868TIP3    H230020   6.055   1.795   0.033  2.3758  1.3815  0.3695
 2869TIP3   OH230021   3.629   6.276   3.419  0.6878  0.4703 -0.2084
 2869TIP3    H130022   3.546   6.239   3.449  0.0155  2.0231 -0.0806
 2869TIP3    H230023   3.635   6.361   3.462  0.4352  2.1154 -3.0998
 2870TIP3   OH230024   5.117   0.960  11.957  0.1842  0.5617  0.0612
 2870TIP3    H130025   5.153   0.874  11.936  2.9709  1.2236  1.7130
 2870TIP3    H230026   5.071   0.948  12.040  0.3588  0.6318  0.1667
 2871TIP3   OH230027   0.488   2.563  16.383  0.5192 -0.6416 -0.2221
 2871TIP3    H130028   0.478   2.481  16.334 -3.2720 -0.8209  0.4997
 2871TIP3    H230029   0.464   2.631  16.321 -1.3411 -0.6181  0.4429
 2872TIP3   OH230030   3.257   2.676   3.793  0.2103 -0.3347 -0.8486
 2872TIP3    H130031   3.291   2.602   3.844 -0.9244 -1.1125 -1.1920
 2872TIP3    H230032   3.219   2.735   3.859  1.4763  0.1608 -0.5354
 2873TIP3   OH230033   3.451   3.178   0.292 -0.1950 -0.1567 -0.5161
 2873TIP3    H130034   3.461   3.207   0.201  0.7708  0.9578 -0.0867
 2873TIP3    H230035   3.444   3.259   0.342 -0.9985 -0.7658  0.3860
 2874TIP3   OH230036   5.835   4.746   1.525  0.5925 -0.2810  0.0744
 2874TIP3    H130037   5.931   4.740   1.521  0.5547 -0.2449 -1.4256
 2874TIP3    H230038   5.804   4.685   1.458 -0.4679 -0.6881  0.9004
 2875TIP3   OH230039   6.159   3.812  11.648  0.2758 -0.3564 -0.1138
 2875TIP3    H130040   6.243   3.841  11.612 -0.7161  1.8895 -0.7757
 2875TIP3    H230041   6.154   3.719  11.625  1.1319  0.2132 -2.9692
 2876TIP3   OH230042   5.013   5.062  12.750 -0.1121  0.0279 -0.1447
 2876TIP3    H130043   5.036   5.026  12.836  1.9313 -1.5997 -1.2854
 2876TIP3    H230044   4.942   5.007  12.719 -0.0134 -0.1732 -0.0164
 2877TIP3   OH230045   1.317   5.859  17.027 -0.0718 -0.2308 -0.0046
 2877TIP3    H130046   1.380   5.865  16.954  1.1298 -4.5776  0.3950
 2877TIP3    H230047   1.368   5.821  17.099 -2.7330 -2.5028  0.8378
 2878TIP3   OH230048   2.951   0.145   2.539  0.1771 -0.2512 -0.2807
 2878TIP3    H130049   3.028   0.172   2.589 -0.1624 -0.5753  0.4274
 2878TIP3    H230050   2.987   0.100   2.463  0.7904  2.3700 -1.6921
 2879TIP3   OH230051   2.250   0.333  12.129 -0.0631 -0.7393  0.1298
 2879TIP3    H130052   2.154   0.335  12.124 -0.1464 -1.2827  1.2046
 2879TIP3    H230053   2.276   0.425  12.129 -0.4887 -0.5958 -1.4695
 2880TIP3   OH230054   2.704   6.420  14.410  0.5172 -0.1931  0.8623
 2880TIP3    H130055   2.735   6.369  14.485  0.9426 -0.8128  0.2708
 2880TIP3    H230056   2.649   6.488  14.449  0.3968 -0.7553  1.7040
 2881TIP3   OH230057   5.103   1.471   5.280 -0.1267  0.2032 -0.4114
 2881TIP3    H130058   5.102   1.540   5.346 -1.6198 -0.0081 -0.1623
 2881TIP3    H230059   5.011   1.461   5.256 -0.3558 -3.4315  1.3768
 2882TIP3   OH230060   0.224   6.503  11.643  0.3304  0.3839 -0.3709
 2882TIP3    H130061   0.147   6.549  11.612 -0.3708  0.1140  0.8831
 2882TIP3    H230062   0.267   6.470  11.564 -0.7537  0.6542 -1.0885
 2883TIP3   OH230063   4.096   1.224   5.324  0.1607 -0.0345 -0.5109
 2883TIP3    H130064   4.186   1.209   5.297  0.8470  0.5354  1.3370
 2883TIP3    H230065   4.043   1.193   5.250  1.8442 -0.5571 -1.5397
 2884TIP3   OH230066   5.705   4.449  13.825 -0.3174 -0.1642 -0.3373
 2884TIP3    H130067   5.610   4.451  13.809 -0.1363 -0.9958 -1.7083
 2884TIP3    H230068   5.714   4.478  13.916 -1.8970 -0.2180 -0.1193
 2885TIP3   OH230069   6.772   2.108   0.580  0.4327 -0.1675  0.2399
 2885TIP3    H130070   6.766   2.104   0.484  0.5785 -1.9487  0.2645
 2885TIP3    H230071   6.752   2.199   0.602 -0.6634  0.0344 -1.4151
 2886TIP3   OH230072   3.089   2.408  11.551  0.3501  0.0799 -0.1764
 2886TIP3    H130073   3.099   2.341  11.483 -0.5262  0.3127 -0.5535
 2886TIP3    H230074   3.091   2.491  11.504  2.5573  0.4154  0.4107
 2887TIP3   OH230075   5.564   6.647   0.327  0.1971  0.0498  0.5340
 2887TIP3    H130076   5.505   6.577   0.301 -1.3199  0.9879  1.2891
 2887TIP3    H230077   5.564   6.644   0.423  1.0304  0.3628  0.5545
 2888TIP3   OH230078   4.670   0.603  16.447 -0.6224 -0.2470  0.4812
 2888TIP3    H130079   4.611   0.533  16.419 -1.0162  0.4763 -0.6071
 2888TIP3    H230080   4.613   0.679  16.457 -0.0255  0.2224  0.3812
 2889TIP3   OH230081   1.403   2.360  13.410 -0.1449  0.1597  0.1448
 2889TIP3    H130082   1.427   2.401  13.493 -0.7117 -0.3663  0.5693
 2889TIP3    H230083   1.307   2.357  13.411 -0.1721  0.4033 -0.6510
 2890TIP3   OH230084   0.273   2.077  12.715 -0.1249  0.2028  0.7392
 2890TIP3    H130085   0.188   2.106  12.750  0.5116  1.9636  0.9105
 2890TIP3    H230086   0.251   2.003  12.659 -1.9732  1.5410 -0.4166
 2891TIP3   OH230087   4.267   3.064   5.029 -0.6409 -0.1968  0.3158
 2891TIP3    H130088   4.179   3.084   5.061 -0.4390  1.7214 -0.1832
 2891TIP3    H230089   4.284   3.131   4.962  2.0287  0.9614  1.9494
 2892TIP3   OH230090   0.898   3.280  16.964  0.7357 -0.4996  0.1501
 2892TIP3    H130091   0.848   3.232  17.029  1.6350  3.1178  3.9195
 2892TIP3    H230092   0.980   3.231  16.955 -0.2426 -2.1882 -0.0105
 2893TIP3   OH230093   2.515   3.913   5.532  0.0684  0.2968  0.5623
 2893TIP3    H130094   2.457   3.930   5.458  0.7646  0.9578  0.1686
 2893TIP3    H230095   2.601   3.900   5.494  0.3376  0.0986  1.2188
 2894TIP3   OH230096   3.766   1.565  13.980 -0.0448 -0.3321  0.1347
 2894TIP3    H130097   3.782   1.640  14.037 -1.7967 -0.0796  0.3427
 2894TIP3    H230098   3.689   1.589  13.929  0.2949 -1.3732 -0.9181
 2895TIP3   OH230099   4.460   6.339   5.785 -0.0628 -0.3473  0.1136
 2895TIP3    H130100   4.408   6.279   5.839  0.4473  0.0100  1.0174
 2895TIP3    H230101   4.396   6.386   5.732 -0.5185 -1.2079 -0.1115
 2896TIP3   OH230102   5.505   6.281   3.183 -0.2034 -0.0610 -0.3146
 2896TIP3    H130103   5.459   6.310   3.262 -1.0417 -1.0093 -0.4310
 2896TIP3    H230104   5.551   6.359   3.152 -1.3289  0.7951  0.0930
 2897TIP3   OH230105   5.074   3.084  11.130 -0.3269  0.1304  0.4978
 2897TIP3    H130106   5.024   3.008  11.159  0.7597 -1.3300 -1.2257
 2897TIP3    H230107   5.136   3.100  11.202 -0.2424 -0.9560  0.6924
 2898TIP3   OH230108   5.605   4.103   0.086 -0.5415 -0.2628  0.2255
 2898TIP3    H130109   5.638   4.162   0.019 -0.5330  1.2804  1.5355
 2898TIP3    H230110   5.673   4.036   0.095 -0.3677 -0.2733 -0.9826
 2899TIP3   OH230111   3.375   3.354  14.710  0.5087 -0.0453  0.9502
 2899TIP3    H130112   3.464   3.320  14.700  0.2120 -0.1199 -2.4869
 2899TIP3    H230113   3.387   3.440  14.751  2.3001  0.4101 -0.4093
 2900TIP3   OH230114   6.222   2.817   2.698  0.0920  0.2845  0.2432
 2900TIP3    H130115   6.144   2.865   2.728 -0.1878  0.2362 -0.3876
 2900TIP3    H230116   6.284   2.886   2.674  0.7219  0.3299  1.9191
 2901TIP3   OH230117   3.314   5.745   1.230 -0.7121  0.1853  0.5548
 2901TIP3    H130118   3.396   5.699   1.244 -0.9132 -0.2651  0.2813
 2901TIP3    H230119   3.291   5.726   1.139 -2.6053 -2.1637  1.4209
 2902TIP3   OH230120   2.765   2.903  15.320  0.0566  0.1011  0.2498
 2902TIP3    H130121   2.679   2.936  15.348 -1.2441 -2.8260  0.0740
 2902TIP3    H230122   2.783   2.951  15.239 -1.6642  0.4199  0.0066
 2903TIP3   OH230123   2.799   6.059  13.836 -0.4614 -0.1302  0.2568
 2903TIP3    H130124   2.840   6.037  13.753 -1.1495  2.0598 -0.7515
 2903TIP3    H230125   2.856   6.126  13.874 -0.9617  0.0053  0.7845
 2904TIP3   OH230126   3.461   5.027  16.042  0.2974 -0.0836 -0.2625
 2904TIP3    H130127   3.444   5.111  16.000  1.3269  0.0609 -0.4133
 2904TIP3    H230128   3.467   5.047  16.135  0.9253  0.0763 -0.3365
 2905TIP3   OH230129   1.404   2.203  15.733 -0.3885 -0.0070 -0.0612
 2905TIP3    H130130   1.365   2.119  15.756 -0.6545  0.0550 -0.2765
 2905TIP3    H230131   1.384   2.213  15.640 -0.1000  0.1558 -0.1055
 2906TIP3   OH230132   4.802   5.572  14.962 -0.4689  0.2152  0.2628
 2906TIP3    H130133   4.789   5.534  14.875  0.9088 -0.2153  0.2193
 2906TIP3    H230134   4.726   5.543  15.012 -0.7861 -0.3597 -0.5252
 2907TIP3   OH230135   3.195   2.083   0.521  0.1629  0.7457 -0.1205
 2907TIP3    H130136   3.145   2.115   0.596  0.0532  1.3629 -0.4530
 2907TIP3    H230137   3.147   2.006   0.491 -1.9363  2.5936 -1.8516
 2908TIP3   OH230138   2.205   2.559  12.221  0.6769 -0.0518 -0.0820
 2908TIP3    H130139   2.117   2.594  12.208  1.0077  0.3354 -1.5444
 2908TIP3    H230140   2.258   2.636  12.243  0.5541 -0.3757  1.4070
 2909TIP3   OH230141   3.607   3.398   2.840  0.3508  0.1328  0.1224
 2909TIP3    H130142   3.544   3.346   2.890 -1.3472  3.0511  1.3301
 2909TIP3    H230143   3.555   3.469   2.804  2.4407  0.7946 -1.7741
 2910TIP3   OH230144   6.618   5.927   4.553  0.3448  1.1236 -0.0738
 2910TIP3    H130145   6.705   5.933   4.592 -0.0711  3.0827  0.6894
 2910TIP3    H230146   6.559   5.968   4.618 -1.2449 -0.6174 -0.3331
 2911TIP3   OH230147   0.514   3.652   6.018  0.3426 -0.4350 -0.3380
 2911TIP3    H130148   0.525   3.699   6.100  1.2043  1.4646 -1.4649
 2911TIP3    H230149   0.603   3.624   5.995  0.4881  1.0293 -1.6970
 2912TIP3   OH230150   2.329   6.428  14.377  0.3035  0.2265 -0.1059
 2912TIP3    H130151   2.273   6.451  14.451  0.3342  1.6925 -0.4886
 2912TIP3    H230152   2.362   6.341  14.397 -1.0596 -0.1217  0.7676
 2913TIP3   OH230153   6.137   5.337   1.698  0.3421  0.1242 -0.1873
 2913TIP3    H130154   6.067   5.319   1.635  1.1790  0.6745 -1.3021
 2913TIP3    H230155   6.153   5.431   1.691  0.8210  0.1009  0.4674
 2914TIP3   OH230156   3.526   5.605  16.506  0.1229  0.1317  0.2198
 2914TIP3    H130157   3.560   5.681  16.553  0.8409  0.4355 -0.7684
 2914TIP3    H230158   3.444   5.584  16.552 -1.0157  2.5827 -0.5446
 2915TIP3   OH230159   0.319   2.187  16.535  0.0355 -0.7122 -0.1110
 2915TIP3    H130160   0.228   2.198  16.506 -0.3334 -1.3494  0.7868
 2915TIP3    H230161   0.323   2.099  16.571  0.5901 -0.1188  1.3567
 2916TIP3   OH230162   1.507   2.312   2.696  0.4559 -0.2078  0.3974
 2916TIP3    H130163   1.476   2.223   2.713 -0.3134  0.2893  1.8116
 2916TIP3    H230164   1.436   2.352   2.645  1.4075 -0.7806 -1.4510
 2917TIP3   OH230165   1.540   1.285   1.289 -0.0896 -0.0750  0.4410
 2917TIP3    H130166   1.513   1.210   1.236  1.2769  0.0505 -0.4607
 2917TIP3    H230167   1.632   1.300   1.267  0.0058  1.1356  1.4889
 2918TIP3   OH230168   3.080   6.307   4.062 -0.1818 -0.1977 -0.1233
 2918TIP3    H130169   3.004   6.331   4.115 -0.0223  0.1863 -0.0677
 2918TIP3    H230170   3.069   6.354   3.980  0.6872  0.9524  0.3988
 2919TIP3   OH230171   1.727   3.870  16.046 -0.4054  0.4084  0.2474
 2919TIP3    H130172   1.636   3.886  16.020 -0.2074  2.0315  0.4120
 2919TIP3    H230173   1.776   3.870  15.964 -0.6054 -1.1416  0.0938
 2920TIP3   OH230174   5.676   0.549  15.053 -0.7217 -0.3617 -0.0624
 2920TIP3    H130175   5.766   0.575  15.035 -0.7157  0.7916  1.5369
 2920TIP3    H230176   5.648   0.505  14.972  0.9346  0.1233 -0.9450
 2921TIP3   OH230177   4.438   2.088   4.525 -0.0833  0.1767  0.3662
 2921TIP3    H130178   4.439   2.087   4.429  0.8287  1.7141  0.3265
 2921TIP3    H230179   4.354   2.127   4.548  0.0664  0.6431  0.1462
 2922TIP3   OH230180   3.174   3.059  14.074 -0.6991 -0.6392 -0.0456
 2922TIP3    H130181   3.268   3.048  14.058 -0.8155 -0.5179 -0.8269
 2922TIP3    H230182   3.141   2.970  14.086 -0.5077 -0.6915  0.1016
 2923TIP3   OH230183   6.500   0.063   5.085  0.8309  0.2286 -0.0887
 2923TIP3    H130184   6.479   0.154   5.106 -0.6586 -0.3184  0.9143
 2923TIP3    H230185   6.562   0.036   5.153  1.5024  0.5653 -0.5574
 2924TIP3   OH230186   4.171   3.322   5.586  0.7538  0.4161 -0.6237
 2924TIP3    H130187   4.254   3.359   5.613  1.2347 -1.4164  0.5595
 2924TIP3    H230188   4.106   3.365   5.641  1.0871  0.7185 -0.4637
 2925TIP3   OH230189   0.556   5.985   3.534  0.9400  0.1211 -0.4492
 2925TIP3    H130190   0.558   5.900   3.577 -0.6375  0.6385  0.7521
 2925TIP3    H230191   0.644   5.996   3.498  1.3861 -1.6909 -0.0189
 2926TIP3   OH230192   3.381   6.152  13.118 -0.4167 -0.3220 -0.7372
 2926TIP3    H130193   3.397   6.246  13.119 -1.2691 -0.1722 -0.3255
 2926TIP3    H230194   3.302   6.140  13.171  2.1364 -1.7426  3.2017
 2927TIP3   OH230195   5.643   1.567  14.919 -0.1436  0.4819  0.2399
 2927TIP3    H130196   5.668   1.584  15.009  1.3147  0.2259 -0.0928
 2927TIP3    H230197   5.677   1.479  14.900 -0.9649  0.2805 -0.3741
 2928TIP3   OH230198   6.485   6.074   1.834  0.2363  0.0141  0.2673
 2928TIP3    H130199   6.444   6.157   1.812 -1.9217 -1.2181 -0.7113
 2928TIP3    H230200   6.527   6.089   1.918  0.8767  2.3776 -0.4002
 2929TIP3   OH230201   3.829   2.385   4.292 -0.4866  0.3166  0.0674
 2929TIP3    H130202   3.774   2.308   4.302  0.0398 -0.0276  0.3869
 2929TIP3    H230203   3.841   2.418   4.382 -2.6420  2.1742 -0.2387
 2930TIP3   OH230204   1.236   0.973   4.016  0.1089 -0.2847 -0.1484
 2930TIP3    H130205   1.330   0.955   4.017  0.2344  0.3679  0.4747
 2930TIP3    H230206   1.204   0.924   3.940  1.4058  1.7170 -2.1182
 2931TIP3   OH230207   6.500   0.252   2.668 -0.2780 -0.5147  0.2603
 2931TIP3    H130208   6.458   0.329   2.630 -0.0073 -1.0298 -1.1712
 2931TIP3    H230209   6.427   0.195   2.693 -0.4595 -0.3781  0.0440
 2932TIP3   OH230210   1.086   2.476   2.142 -0.3526  0.1556 -0.2596
 2932TIP3    H130211   1.041   2.406   2.096 -0.0563  0.3706 -0.8852
 2932TIP3    H230212   1.018   2.517   2.195 -1.0032  0.7444 -1.5125
 2933TIP3   OH230213   6.002   4.776  16.759  0.2408  0.0708  0.0630
 2933TIP3    H130214   5.965   4.711  16.700 -2.6819  0.0362  1.7432
 2933TIP3    H230215   5.955   4.857  16.739 -0.0430  0.3119  1.5723
 2934TIP3   OH230216   3.484   2.364   4.198 -0.0335  0.0186 -0.1314
 2934TIP3    H130217   3.514   2.345   4.287 -3.1902  0.1188  1.0855
 2934TIP3    H230218   3.491   2.459   4.191  1.0330 -0.0650 -0.3422
 2935TIP3   OH230219   5.622   3.272  13.908  0.4343 -0.5900 -0.2807
 2935TIP3    H130220   5.652   3.246  13.821  0.4617 -0.8523 -0.1941
 2935TIP3    H230221   5.667   3.212  13.968  2.2740  1.1084  0.1178
 2936TIP3   OH230222   1.235   4.192   0.825 -0.1661 -0.1860  0.5929
 2936TIP3    H130223   1.270   4.182   0.737 -2.2956  1.2253 -0.5009
 2936TIP3    H230224   1.214   4.285   0.832 -0.7018 -0.3990  2.3387
 2937TIP3   OH230225   3.021   3.740  15.122  0.0643  0.0910 -0.2646
 2937TIP3    H130226   2.956   3.810  15.111 -0.7271 -0.3611  1.1825
 2937TIP3    H230227   2.968   3.660  15.126  0.5327 -0.1703  2.2119
 2938TIP3   OH230228   6.584   5.689  15.442  0.1365 -0.3255  0.5672
 2938TIP3    H130229   6.653   5.622  15.444 -1.2076 -1.8149  3.1757
 2938TIP3    H230230   6.598   5.739  15.522 -0.3911  0.9465 -0.1111
 2939TIP3   OH230231   1.836   0.988   1.708 -0.6700  0.0643  0.1700
 2939TIP3    H130232   1.862   1.062   1.763 -1.1880  0.5742 -0.2610
 2939TIP3    H230233   1.918   0.958   1.668 -0.5124  0.6477  0.0493
 2940TIP3   OH230234   5.814   1.746   2.883  0.4484 -0.1200 -0.7197
 2940TIP3    H130235   5.863   1.733   2.802  0.6902 -0.2966 -0.5480
 2940TIP3    H230236   5.723   1.729   2.860  0.3353  1.1242 -1.2647
 2941TIP3   OH230237   0.329   3.292   1.428  0.2796  0.5566 -0.1203
 2941TIP3    H130238   0.401   3.352   1.408  0.5658  0.2563 -0.0031
 2941TIP3    H230239   0.281   3.284   1.346 -1.6722  3.4382  0.5984
 2942TIP3   OH230240   6.425   4.921   5.329  0.2665 -0.0643 -0.1649
 2942TIP3    H130241   6.387   4.835   5.310 -0.0182  0.3828 -1.7867
 2942TIP3    H230242   6.517   4.903   5.348 -0.2326 -0.9318  1.7110
 2943TIP3   OH230243   6.376   2.658  14.002  0.4575  0.5382  0.5692
 2943TIP3    H130244   6.431   2.732  14.027 -0.4726  1.3271  0.3449
 2943TIP3    H230245   6.418   2.621  13.924  0.2920  1.5944 -0.0460
 2944TIP3   OH230246   2.239   1.865  14.214 -0.3791  0.0104 -0.2100
 2944TIP3    H130247   2.157   1.890  14.257 -1.2985 -1.8615 -0.7318
 2944TIP3    H230248   2.217   1.784  14.167  1.5293 -0.0006 -1.1847
 2945TIP3   OH230249   5.983   5.205   1.478 -0.3896 -0.1938 -0.0357
 2945TIP3    H130250   6.047   5.181   1.411  0.1758  0.0997  0.3842
 2945TIP3    H230251   5.970   5.299   1.466 -1.2125 -0.3629 -0.5102
 2946TIP3   OH230252   0.408   4.419  12.922  0.7022  0.4032 -0.4796
 2946TIP3    H130253   0.363   4.483  12.867  1.4433  2.7956  1.5032
 2946TIP3    H230254   0.337   4.379  12.973  0.2142 -0.5399 -1.8355
 2947TIP3   OH230255   2.827   2.480   6.070  0.1025 -0.0360 -0.1648
 2947TIP3    H130256   2.858   2.553   6.017  0.6044 -0.9116 -1.1316
 2947TIP3    H230257   2.820   2.515   6.159 -2.1813  1.8654 -1.0231
 2948TIP3   OH230258   3.799   2.412  14.006 -0.0872  0.2871  0.3341
 2948TIP3    H130259   3.745   2.457  14.071 -0.2041  1.1696 -0.3686
 2948TIP3    H230260   3.792   2.466  13.927  0.3301 -0.5918 -0.3138
 2949TIP3   OH230261   3.694   0.511  13.674 -0.1496  0.0565 -0.0796
 2949TIP3    H130262   3.634   0.458  13.727 -0.5987  1.1455  0.5220
 2949TIP3    H230263   3.708   0.591  13.725 -0.6104  1.1509 -1.5931
 2950TIP3   OH230264   5.643   2.377  16.735 -0.7977 -0.3389 -0.4782
 2950TIP3    H130265   5.559   2.373  16.691 -1.3315  2.1770  0.1729
 2950TIP3    H230266   5.708   2.379  16.664 -1.5189  1.3835 -1.1459
 2951TIP3   OH230267   4.176   3.179  11.787  0.0483  0.2187  0.0643
 2951TIP3    H130268   4.217   3.193  11.873 -1.1806 -0.6595  0.8322
 2951TIP3    H230269   4.175   3.265  11.747  0.6221  0.6568  0.9519
 2952TIP3   OH230270   0.905   2.774   5.314 -0.5400  0.6971 -0.6357
 2952TIP3    H130271   0.842   2.800   5.247 -1.5947 -0.3633 -0.1195
 2952TIP3    H230272   0.851   2.728   5.379  0.6955  0.2994  0.1323
 2953TIP3   OH230273   1.976   3.044  15.553  0.2473 -0.0242  0.3165
 2953TIP3    H130274   2.065   3.076  15.564  1.6222 -2.2313 -2.9687
 2953TIP3    H230275   1.926   3.121  15.525  2.4262  0.3733 -3.0179
 2954TIP3   OH230276   0.023   6.634   1.681  0.0527 -0.3534 -0.2769
 2954TIP3    H130277   0.094   6.684   1.721  1.9188 -2.2130 -1.1039
 2954TIP3    H230278  -0.056   6.662   1.728  1.4286  1.1908  1.2158
 2955TIP3   OH230279   0.013   3.172  10.899 -0.0018 -0.2842 -0.0977
 2955TIP3    H130280  -0.008   3.087  10.861  1.3939 -0.8798  0.4012
 2955TIP3    H230281   0.073   3.213  10.836  2.3519 -1.2916  1.3205
 2956TIP3   OH230282   5.331   1.288  17.096  0.5342 -0.3512 -0.4244
 2956TIP3    H130283   5.308   1.270  17.187 -1.1469  0.9882 -0.5235
 2956TIP3    H230284   5.254   1.259  17.046  0.7405  0.4534 -1.2366
 2957TIP3   OH230285   4.514   2.320   5.504 -0.5005 -0.0330  0.1975
 2957TIP3    H130286   4.564   2.393   5.467 -0.1009 -0.7428 -0.7013
 2957TIP3    H230287   4.555   2.242   5.467  0.8051 -0.8940  3.1557
 2958TIP3   OH230288   2.234   6.146  12.288 -0.2103  0.2260  0.2112
 2958TIP3    H130289   2.239   6.140  12.383 -0.8103  3.8157  0.6211
 2958TIP3    H230290   2.146   6.116  12.267  0.2221 -1.4493  0.6043
 2959TIP3   OH230291   1.291   3.682   5.070  0.0055  0.1995  0.3558
 2959TIP3    H130292   1.321   3.769   5.043 -0.1949  0.3617  0.6476
 2959TIP3    H230293   1.346   3.661   5.146 -0.9433  0.7260  1.2288
 2960TIP3   OH230294   5.992   3.033  16.837 -0.5436 -0.5609  0.2616
 2960TIP3    H130295   5.968   2.978  16.762 -0.6676  0.7345 -0.6798
 2960TIP3    H230296   5.913   3.082  16.857 -0.3770 -0.5731  0.9663
 2961TIP3   OH230297   5.904   0.562   1.439 -0.5049 -0.4047 -0.0959
 2961TIP3    H130298   5.970   0.519   1.385 -1.0725 -1.4365  0.0260
 2961TIP3    H230299   5.943   0.563   1.527 -0.0638  0.2614 -0.2887
 2962TIP3   OH230300   5.698   0.992   0.287  0.2373 -0.5591  0.6550
 2962TIP3    H130301   5.736   0.924   0.342 -0.3004 -3.1360 -1.8773
 2962TIP3    H230302   5.771   1.026   0.236  0.4293  0.5014  1.6040
 2963TIP3   OH230303   1.403   4.447   1.908  0.0639 -0.4023  0.9726
 2963TIP3    H130304   1.377   4.498   1.984 -0.6582  0.3136  0.2649
 2963TIP3    H230305   1.469   4.501   1.865 -1.3859  0.4303 -0.3040
 2964TIP3   OH230306   0.881   3.158  13.813 -0.4350  0.1600  0.1793
 2964TIP3    H130307   0.817   3.211  13.766 -0.5316  1.4527  1.6980
 2964TIP3    H230308   0.965   3.202  13.797 -0.4647  0.5981  1.1381
 2965TIP3   OH230309   4.754   3.622   5.470 -0.0023  0.1527  0.1454
 2965TIP3    H130310   4.799   3.537   5.464  1.5858  0.9068  0.7745
 2965TIP3    H230311   4.805   3.680   5.413 -0.4930  0.9235  0.4773
 2966TIP3   OH230312   2.577   2.016   0.894  0.4919 -0.2738  0.1933
 2966TIP3    H130313   2.659   2.056   0.923  0.1179  0.7737 -0.1508
 2966TIP3    H230314   2.526   2.005   0.974  0.9538 -0.9284  0.4088
 2967TIP3   OH230315   4.835   6.743   0.083 -0.1622 -0.1276  0.1827
 2967TIP3    H130316   4.748   6.728   0.118  0.5034  0.4629  2.2421
 2967TIP3    H230317   4.821   6.768  -0.008 -2.0196 -1.4230  0.0585
 2968TIP3   OH230318   6.365   1.628   3.597 -0.2701 -0.3819  0.0110
 2968TIP3    H130319   6.315   1.565   3.650 -0.7398 -0.7006 -0.7828
 2968TIP3    H230320   6.306   1.702   3.586 -0.3212 -0.4734 -0.3626
 2969TIP3   OH230321   3.338   6.201  12.155  0.2679 -0.4126  0.0136
 2969TIP3    H130322   3.247   6.171  12.153 -0.7963  2.4560 -2.4608
 2969TIP3    H230323   3.382   6.148  12.088 -0.2894 -0.0111 -0.6848
 2970TIP3   OH230324   3.940   4.435  16.617  0.2286 -0.4588  0.5473
 2970TIP3    H130325   3.902   4.497  16.554 -0.5930 -0.9863  0.4991
 2970TIP3    H230326   3.982   4.368  16.563 -0.0647 -0.6598  0.5670
 2971TIP3   OH230327   2.260   0.361   5.381 -0.2214 -0.0301 -0.0880
 2971TIP3    H130328   2.338   0.308   5.369 -0.7566 -0.9974  0.6072
 2971TIP3    H230329   2.188   0.298   5.387 -0.8516  0.7518  0.9144
 2972TIP3   OH230330   5.261   4.796  10.340  0.0060 -0.0631 -0.5734
 2972TIP3    H130331   5.232   4.704  10.337 -0.1886  0.0217 -1.4580
 2972TIP3    H230332   5.185   4.844  10.372  0.7849 -0.4470  2.2107
 2973TIP3   OH230333   0.621   2.275   1.438  0.2445 -0.0454 -0.2980
 2973TIP3    H130334   0.577   2.313   1.514 -0.1444  2.1878 -1.5310
 2973TIP3    H230335   0.714   2.294   1.452  0.3126 -0.7143  0.1758
 2974TIP3   OH230336   2.830   5.461  15.322 -0.2218 -0.0834  0.1115
 2974TIP3    H130337   2.789   5.535  15.366  3.4865  2.5445 -0.3846
 2974TIP3    H230338   2.865   5.408  15.394 -1.1584 -0.2896  0.4315
 2975TIP3   OH230339   2.928   6.664   3.619 -0.1260 -0.0068 -0.4373
 2975TIP3    H130340   2.882   6.649   3.537 -1.1373 -1.3458  0.3301
 2975TIP3    H230341   2.859   6.662   3.686  0.6290  1.3918  0.4161
 2976TIP3   OH230342   0.344   2.868  11.759 -0.5574 -0.2462 -0.3736
 2976TIP3    H130343   0.265   2.837  11.803 -0.5198 -0.9634 -0.7952
 2976TIP3    H230344   0.414   2.817  11.799 -0.2610  0.5750  0.1861
 2977TIP3   OH230345   4.978   3.396  15.049 -0.5860  0.1411 -0.1109
 2977TIP3    H130346   4.933   3.467  15.095  0.4671  0.4361  0.4904
 2977TIP3    H230347   5.071   3.410  15.068 -0.3515 -1.3343 -0.0725
 2978TIP3   OH230348   4.125   6.105  16.838  0.2256 -0.1109  0.6634
 2978TIP3    H130349   4.064   6.173  16.866  0.5470 -0.4609  2.3289
 2978TIP3    H230350   4.199   6.114  16.898  1.9551  0.4412 -1.4397
 2979TIP3   OH230351   2.070   5.761  14.970 -0.2236  0.2242 -0.3782
 2979TIP3    H130352   1.987   5.807  14.959 -0.0330  1.2422  1.7989
 2979TIP3    H230353   2.136   5.830  14.966  0.3402 -0.2970 -0.2140
 2980TIP3   OH230354   1.206   3.249  14.721  0.0289 -0.1895 -0.1813
 2980TIP3    H130355   1.272   3.211  14.779  0.0051  0.6805  0.4541
 2980TIP3    H230356   1.227   3.343  14.720 -0.7472 -0.0139 -0.5659
 2981TIP3   OH230357   0.378   4.736  13.541  0.6501  0.2675  0.2148
 2981TIP3    H130358   0.417   4.709  13.458 -0.9791 -1.2349 -0.1195
 2981TIP3    H230359   0.404   4.669  13.604  0.8431  0.7357  0.6500
 2982TIP3   OH230360   0.991   5.648  16.072 -0.0110 -0.1484 -0.1354
 2982TIP3    H130361   0.942   5.679  16.148 -0.9516  0.3399 -0.9192
 2982TIP3    H230362   1.029   5.564  16.100 -0.5318 -0.0890  0.7818
 2983TIP3   OH230363   5.935   6.646   3.478 -0.2571  0.2604  0.0388
 2983TIP3    H130364   5.987   6.664   3.400  1.5051  1.4939  1.4096
 2983TIP3    H230365   5.849   6.621   3.445  0.2800  1.2496 -2.2746
 2984TIP3   OH230366   0.179   2.151  14.490 -0.1025  0.1011 -0.2559
 2984TIP3    H130367   0.200   2.187  14.403  0.5421  2.4736  0.7947
 2984TIP3    H230368   0.084   2.142  14.489  0.0226 -1.5942 -1.7752
 2985TIP3   OH230369   1.219   4.440   2.781 -0.2813  0.8739  0.0947
 2985TIP3    H130370   1.282   4.483   2.722 -0.3389 -1.5902 -1.9177
 2985TIP3    H230371   1.272   4.382   2.834 -0.4867  1.5341  1.0477
 2986TIP3   OH230372   3.134   1.824   2.879  0.0162  0.1068 -0.0548
 2986TIP3    H130373   3.221   1.819   2.838 -0.1061  1.1055 -0.4700
 2986TIP3    H230374   3.115   1.918   2.883 -0.7243 -0.0657  0.7282
 2987TIP3   OH230375   5.199   5.898   3.327 -0.2958 -0.5534  0.6793
 2987TIP3    H130376   5.174   5.957   3.397 -0.1922  0.5462 -0.1921
 2987TIP3    H230377   5.281   5.934   3.293 -0.3935 -1.0065 -0.0718
 2988TIP3   OH230378   5.574   4.644  14.086 -0.3218  0.1918 -0.1448
 2988TIP3    H130379   5.519   4.570  14.062 -4.0643  2.7467 -0.2417
 2988TIP3    H230380   5.535   4.677  14.167  0.8706  2.3379 -0.3790
 2989TIP3   OH230381   4.259   4.123  13.582  0.0615 -0.0656 -0.2135
 2989TIP3    H130382   4.186   4.110  13.521 -1.5079 -1.8846  1.8793
 2989TIP3    H230383   4.217   4.133  13.667  2.2496 -0.6125  0.9955
 2990TIP3   OH230384   0.421   6.089   0.366  0.2884 -0.0195 -0.3473
 2990TIP3    H130385   0.391   6.019   0.423  2.2064 -1.6506 -1.2150
 2990TIP3    H230386   0.369   6.080   0.286  1.1289 -1.1161 -0.8094
 2991TIP3   OH230387   6.604   6.140  11.978 -0.9099  0.0136  0.6468
 2991TIP3    H130388   6.659   6.089  12.037  0.4295  0.0277 -0.5304
 2991TIP3    H230389   6.652   6.223  11.968 -0.0075 -0.7429 -2.0160
 2992TIP3   OH230390   6.752   2.590  12.911  0.0589 -0.4712  0.1853
 2992TIP3    H130391   6.722   2.514  12.862 -0.5852 -0.8712  1.1755
 2992TIP3    H230392   6.785   2.555  12.993  0.3301  0.2641  0.4018
 2993TIP3   OH230393   1.202   0.954  14.797 -0.1417  0.2143 -0.3106
 2993TIP3    H130394   1.113   0.953  14.833  0.4459  1.4041  1.2827
 2993TIP3    H230395   1.190   0.931  14.705 -2.2883  1.8044 -0.5152
 2994TIP3   OH230396   1.238   1.990   4.742  0.1221 -0.2385 -0.7070
 2994TIP3    H130397   1.148   1.959   4.753  0.2717  0.1418  2.6890
 2994TIP3    H230398   1.231   2.086   4.742  0.4639 -0.2081 -1.3900
 2995TIP3   OH230399   1.108   1.625   2.305 -0.1690 -0.3849 -0.9735
 2995TIP3    H130400   1.164   1.692   2.265 -0.9859 -0.1767 -1.7958
 2995TIP3    H230401   1.167   1.577   2.363  0.6867  0.3291 -1.2227
 2996TIP3   OH230402   4.393   0.699  16.423  0.6126 -0.2163  0.2157
 2996TIP3    H130403   4.355   0.752  16.492  2.4076  1.0756  0.2948
 2996TIP3    H230404   4.331   0.627  16.410 -0.4391  0.2710  2.1790
 2997TIP3   OH230405   5.085   3.455   2.620 -0.6136  0.1602 -0.8598
 2997TIP3    H130406   5.169   3.414   2.639 -0.2838  0.4615 -1.6148
 2997TIP3    H230407   5.025   3.419   2.686  0.1760  0.2103 -0.1031
 2998TIP3   OH230408   2.610   2.191   0.101  0.1191 -0.0238 -0.3857
 2998TIP3    H130409   2.683   2.246   0.074 -0.1780  0.5731  0.0110
 2998TIP3    H230410   2.641   2.148   0.181 -0.8412  2.1754  1.2525
 2999TIP3   OH230411   5.403   6.411  13.291  0.1386  0.1024  0.3542
 2999TIP3    H130412   5.331   6.428  13.351 -0.0937  2.0774 -0.4265
 2999TIP3    H230413   5.467   6.362  13.343 -0.2452  1.3582  2.0748
 3000TIP3   OH230414   5.352   4.632  15.014 -0.1446 -0.4626 -0.4338
 3000TIP3    H130415   5.339   4.622  14.920 -0.9648 -0.9599 -0.2843
 3000TIP3    H230416   5.297   4.564  15.053  0.1739 -0.2567  0.4072
 3001TIP3   OH230417   5.502   2.224   0.411 -0.2979 -0.4850  0.0391
 3001TIP3    H130418   5.569   2.241   0.344 -1.4254  0.4020 -0.9067
 3001TIP3    H230419   5.456   2.308   0.420 -0.6733 -0.8208  1.3621
 3002TIP3   OH230420   6.238   5.043  11.482 -0.5858  0.1126  0.1130
 3002TIP3    H130421   6.316   5.067  11.532  0.6071 -1.1456 -1.0416
 3002TIP3    H230422   6.207   5.125  11.445  0.2992  0.6159  0.4518
 3003TIP3   OH230423   1.766   0.521  12.078  0.1384 -0.4800 -0.1982
 3003TIP3    H130424   1.692   0.521  12.139  0.3367  1.0356  0.0821
 3003TIP3    H230425   1.802   0.610  12.084  1.4056 -0.9100 -1.0287
 3004TIP3   OH230426   4.421   4.835  16.218  0.5188  0.2986 -0.0353
 3004TIP3    H130427   4.510   4.818  16.250  0.4026  0.6565  0.4826
 3004TIP3    H230428   4.395   4.915  16.262 -0.7218 -0.7282  1.1926
 3005TIP3   OH230429   1.940   5.330  14.268 -0.1310 -0.5018 -0.0703
 3005TIP3    H130430   1.901   5.363  14.187 -1.2787 -0.2731  0.5521
 3005TIP3    H230431   1.895   5.379  14.337  2.0164  0.5577  0.6673
 3006TIP3   OH230432   5.557   5.612  16.554 -0.0686  0.4625  0.3392
 3006TIP3    H130433   5.506   5.620  16.474 -0.2461  0.8315  0.4877
 3006TIP3    H230434   5.648   5.608  16.525 -0.1976 -0.5578  0.0476
 3007TIP3   OH230435   4.904   3.166  14.681  0.1590 -0.6809  0.0376
 3007TIP3    H130436   4.902   3.172  14.776 -0.4429  0.7219 -0.0425
 3007TIP3    H230437   4.988   3.124  14.661  1.7123  1.7568  1.0618
 3008TIP3   OH230438   0.732   1.708   1.390  0.4013 -0.7084 -0.3770
 3008TIP3    H130439   0.704   1.790   1.351 -2.1183 -0.4896  1.6260
 3008TIP3    H230440   0.653   1.653   1.391  0.7020 -1.2867  2.6849
 3009TIP3   OH230441   5.347   3.010   5.232 -0.0060  0.5575 -0.4766
 3009TIP3    H130442   5.396   2.931   5.208 -0.4212 -0.3493  1.5076
 3009TIP3    H230443   5.414   3.077   5.242  0.4131  0.3379 -1.6124
 3010TIP3   OH230444   6.485   2.200   5.695  0.4213 -0.4526  0.3507
 3010TIP3    H130445   6.575   2.173   5.675  0.0527 -1.1672 -0.3866
 3010TIP3    H230446   6.479   2.290   5.661  0.6337 -0.6752 -0.2927
 3011TIP3   OH230447   0.718   0.706  13.633  0.4536 -0.0412 -0.4235
 3011TIP3    H130448   0.799   0.757  13.633  0.3754  0.1148 -1.4749
 3011TIP3    H230449   0.722   0.656  13.551 -0.5598  0.0605 -0.5482
 3012TIP3   OH230450   0.806   4.073   1.727 -0.0517 -0.5947  0.0638
 3012TIP3    H130451   0.894   4.085   1.763  0.7401 -0.9382 -1.6372
 3012TIP3    H230452   0.754   4.144   1.764  0.9764 -0.3104  0.9901
 3013TIP3   OH230453   2.850   5.294  17.236  0.3822 -0.0327 -0.7789
 3013TIP3    H130454   2.807   5.226  17.184  0.6420  1.4638 -3.0621
 3013TIP3    H230455   2.778   5.340  17.280  0.1406 -1.0863 -0.0137
 3014TIP3   OH230456   5.426   1.160  12.653  0.1004  0.0879 -0.5989
 3014TIP3    H130457   5.386   1.141  12.568  0.1287  0.3070 -0.6639
 3014TIP3    H230458   5.416   1.255  12.663 -0.6868 -0.0607  0.0441
 3015TIP3   OH230459   1.395   2.284  16.436 -0.2845  0.0126  0.6025
 3015TIP3    H130460   1.470   2.343  16.450 -0.2902 -0.0550  0.9420
 3015TIP3    H230461   1.318   2.342  16.442 -0.2350  0.2150 -0.5182
 3016TIP3   OH230462   0.383   3.241   2.829  0.2067  0.2180 -0.0503
 3016TIP3    H130463   0.356   3.240   2.737 -1.6690  0.5977  0.4505
 3016TIP3    H230464   0.360   3.329   2.860  0.7446  0.0698  0.8028
 3017TIP3   OH230465   1.399   4.592  16.992  0.9736 -0.5485  0.3699
 3017TIP3    H130466   1.441   4.608  16.907  1.6540 -2.2732  0.3489
 3017TIP3    H230467   1.390   4.497  16.996  0.7503 -0.4708  2.1437
 3018TIP3   OH230468   5.803   6.548   0.217  0.0141  0.2858  0.4977
 3018TIP3    H130469   5.722   6.576   0.259  0.1233 -0.0158  0.9215
 3018TIP3    H230470   5.866   6.617   0.236  0.2263 -0.1340  1.3567
 3019TIP3   OH230471   2.887   1.523   4.438  0.0782 -0.0792 -0.6049
 3019TIP3    H130472   2.973   1.542   4.400  0.5907 -1.1261  0.0010
 3019TIP3    H230473   2.849   1.458   4.380  0.0535 -0.2361 -0.4157
 3020TIP3   OH230474   2.784   0.476  15.060 -0.6007 -0.6716 -0.1744
 3020TIP3    H130475   2.806   0.557  15.015  0.4125  0.0110  1.4376
 3020TIP3    H230476   2.690   0.465  15.046 -0.4400 -0.1802 -1.8610
 3021TIP3   OH230477   0.330   5.450   3.060  0.4998  0.5477  0.6135
 3021TIP3    H130478   0.308   5.404   2.979  1.6716  0.5102  0.3026
 3021TIP3    H230479   0.246   5.486   3.090  0.3140  2.2303 -1.6507
 3022TIP3   OH230480   2.564   3.397  13.077  0.1408 -0.4505 -0.0109
 3022TIP3    H130481   2.588   3.405  12.985  1.4348  0.6422  0.3963
 3022TIP3    H230482   2.559   3.487  13.109 -0.0728 -0.8208  1.0442
 3023TIP3   OH230483   5.035   0.253   4.576  0.2353  0.2406 -0.2930
 3023TIP3    H130484   4.966   0.291   4.522 -0.4355 -0.4215  0.0858
 3023TIP3    H230485   5.116   0.281   4.534 -0.2591  0.9651 -0.7873
 3024TIP3   OH230486   4.114   5.093   3.600 -0.2761 -0.2592 -0.2908
 3024TIP3    H130487   4.082   5.011   3.637  0.6578 -0.9487 -0.9715
 3024TIP3    H230488   4.133   5.148   3.676 -0.5303 -0.8166  0.1837
 3025TIP3   OH230489   1.653   4.735  15.078  0.0969 -0.4321  0.7933
 3025TIP3    H130490   1.570   4.778  15.099  0.4767 -0.3322  2.1778
 3025TIP3    H230491   1.710   4.755  15.153  1.3113 -0.6547 -0.0504
 3026TIP3   OH230492   1.970   2.965  11.044  0.0725 -0.1336  0.2035
 3026TIP3    H130493   2.019   2.976  11.125  1.2852  0.4250 -0.5737
 3026TIP3    H230494   1.908   2.894  11.062  2.9579 -2.7823  0.4375
 3027TIP3   OH230495   6.114   2.588   3.871 -0.2394  0.1912  0.2301
 3027TIP3    H130496   6.164   2.663   3.902 -0.4486  0.0251  0.9817
 3027TIP3    H230497   6.053   2.568   3.942 -0.4029 -0.4899 -0.0908
 3028TIP3   OH230498   4.681   2.360  12.907 -0.7238  0.2465  0.2396
 3028TIP3    H130499   4.615   2.419  12.871  0.3084  0.0726 -2.1671
 3028TIP3    H230500   4.637   2.276  12.916 -0.3538 -0.6471 -4.0273
 3029TIP3   OH230501   6.140   0.672  16.988  0.3537  0.5129  0.1086
 3029TIP3    H130502   6.124   0.744  17.048  2.7854  0.0650  1.4046
 3029TIP3    H230503   6.152   0.595  17.044 -0.2611 -0.5328 -1.1333
 3030TIP3   OH230504   3.622   1.001   3.906  0.0482  0.6526  0.2492
 3030TIP3    H130505   3.676   0.966   3.977  0.5707 -0.1240 -0.5091
 3030TIP3    H230506   3.595   1.087   3.937  2.5821  1.5191  0.2481
 3031TIP3   OH230507   5.648   0.979   3.286 -0.1777 -0.0102  0.0605
 3031TIP3    H130508   5.660   1.001   3.378  1.4118  1.5578 -0.4773
 3031TIP3    H230509   5.703   0.902   3.272  0.3983  0.3744  0.1942
 3032TIP3   OH230510   3.105   2.440   4.776  0.1149 -0.0165  0.6486
 3032TIP3    H130511   3.196   2.452   4.802  0.3262 -1.4065  0.6673
 3032TIP3    H230512   3.097   2.345   4.762 -1.5955 -0.0519  1.6278
 3033TIP3   OH230513   0.681   1.400  13.545 -0.8107  0.0784  0.3923
 3033TIP3    H130514   0.716   1.334  13.485  1.8546  0.1538  1.6756
 3033TIP3    H230515   0.598   1.364  13.575 -1.1769 -0.9348 -1.6926
 3034TIP3   OH230516   0.217   5.118  10.851  0.4856  0.2335 -0.3820
 3034TIP3    H130517   0.287   5.120  10.916  1.5441  0.4415 -1.4868
 3034TIP3    H230518   0.261   5.137  10.768 -0.8250 -0.0175 -1.1622
 3035TIP3   OH230519   0.772   0.909  14.149  0.0649  0.5615 -0.0830
 3035TIP3    H130520   0.714   0.837  14.127 -1.2901  0.8571  2.2311
 3035TIP3    H230521   0.760   0.972  14.078 -0.7999 -0.3144 -0.7440
 3036TIP3   OH230522   2.543   5.566   0.845 -0.1899  0.7736 -0.2143
 3036TIP3    H130523   2.455   5.534   0.862  0.2210  0.9790  2.7240
 3036TIP3    H230524   2.601   5.502   0.885  0.9129  1.7653 -0.1560
 3037TIP3   OH230525   5.129   2.835  14.740  0.0980  0.0437 -0.2402
 3037TIP3    H130526   5.082   2.753  14.723  0.2496  0.1509 -1.2036
 3037TIP3    H230527   5.120   2.885  14.659  1.8896  0.0635 -0.4465
 3038TIP3   OH230528   4.610   5.215   3.372 -0.5731 -0.3482  0.1447
 3038TIP3    H130529   4.690   5.172   3.403  0.5625  1.0414 -0.7472
 3038TIP3    H230530   4.539   5.160   3.406  0.5462  0.4211  4.3491
 3039TIP3   OH230531   0.621   0.323  12.267 -0.3360  0.0275 -0.8379
 3039TIP3    H130532   0.692   0.388  12.270 -1.7791  1.6611  0.9459
 3039TIP3    H230533   0.578   0.339  12.183 -0.1603  0.8337 -0.7896
 3040TIP3   OH230534   0.783   6.151  13.158 -0.4114 -0.3526 -0.5417
 3040TIP3    H130535   0.848   6.170  13.226  2.3641  1.4384 -3.4469
 3040TIP3    H230536   0.790   6.057  13.144  1.5141 -0.2249 -0.6791
 3041TIP3   OH230537   0.257   5.217  10.551 -0.5325  0.3539  0.3733
 3041TIP3    H130538   0.292   5.299  10.586  0.2401  1.6459 -2.9712
 3041TIP3    H230539   0.243   5.236  10.458 -1.2257 -3.0761 -0.3405
 3042TIP3   OH230540   4.221   2.978  16.762  0.1570  0.2683  0.5412
 3042TIP3    H130541   4.158   3.006  16.828 -2.4456 -3.2552 -0.1399
 3042TIP3    H230542   4.298   2.950  16.811  0.2660  2.2621  1.5979
 3043TIP3   OH230543   2.468   6.299  13.680  0.2097 -0.1533  0.0523
 3043TIP3    H130544   2.412   6.235  13.724 -0.7334  1.5711  1.5180
 3043TIP3    H230545   2.540   6.248  13.644 -0.7531 -2.0727  0.7182
 3044TIP3   OH230546   3.559   2.098  14.023  0.0195  0.1576 -0.2070
 3044TIP3    H130547   3.652   2.081  14.008 -0.1310  0.0488 -1.0798
 3044TIP3    H230548   3.533   2.155  13.951 -0.7017 -0.2127 -0.2541
 3045TIP3   OH230549   4.933   5.405  14.371 -0.1519 -0.4167 -0.2839
 3045TIP3    H130550   4.886   5.439  14.295  1.6049 -0.5571 -1.5024
 3045TIP3    H230551   4.939   5.480  14.431  2.1629  1.0356 -2.1822
 3046TIP3   OH230552   4.380   0.402  12.215  0.1894  0.0168 -0.8141
 3046TIP3    H130553   4.389   0.412  12.310 -0.0483 -0.5053 -0.7332
 3046TIP3    H230554   4.384   0.492  12.181 -0.4808  0.2753 -0.2443
 3047TIP3   OH230555   1.488   3.621   3.239  0.7455 -0.1586 -0.1781
 3047TIP3    H130556   1.498   3.569   3.158 -1.4285 -0.9351 -0.0205
 3047TIP3    H230557   1.415   3.579   3.285  0.3434  1.7604  1.0271
 3048TIP3   OH230558   5.187   1.984   6.236 -0.2986 -0.2196  0.9087
 3048TIP3    H130559   5.105   1.951   6.199  0.8443 -0.7343 -1.3142
 3048TIP3    H230560   5.200   2.068   6.193  0.3413 -0.1462  1.2437
 3049TIP3   OH230561   1.985   5.572   3.135  0.2309 -0.1429  0.2018
 3049TIP3    H130562   1.902   5.526   3.148 -0.3434  1.3815  2.6967
 3049TIP3    H230563   2.002   5.614   3.219  1.8268  2.3691 -1.2397
 3050TIP3   OH230564   4.358   6.215   0.295 -0.0979 -0.2491 -0.2286
 3050TIP3    H130565   4.408   6.140   0.262 -0.1660 -0.9497  1.1791
 3050TIP3    H230566   4.363   6.206   0.390 -1.2962  0.7550 -0.0558
 3051TIP3   OH230567   5.317   6.058   5.241 -0.3117  0.0911 -0.0417
 3051TIP3    H130568   5.263   6.135   5.225  0.0024 -0.0156 -1.8502
 3051TIP3    H230569   5.336   6.024   5.153  1.6024 -0.6074  0.5984
 3052TIP3   OH230570   2.155   2.589   4.159 -1.0123  0.0887 -0.2100
 3052TIP3    H130571   2.087   2.574   4.093 -0.7821  1.7663 -0.8688
 3052TIP3    H230572   2.237   2.570   4.113 -0.6013  4.0827 -1.4760
 3053TIP3   OH230573   4.456   3.175   3.587  0.4322  0.0925 -0.3793
 3053TIP3    H130574   4.489   3.210   3.504 -1.3126 -2.2122 -2.1690
 3053TIP3    H230575   4.514   3.102   3.608 -0.4500 -0.7623 -0.8308
 3054TIP3   OH230576   3.486   3.856   0.663 -0.2552 -0.6312 -0.0137
 3054TIP3    H130577   3.412   3.795   0.660 -0.0656 -0.8383 -1.0424
 3054TIP3    H230578   3.542   3.829   0.591  0.9107 -0.5620  0.8458
 3055TIP3   OH230579   3.560   0.006   6.462 -0.5636  0.5444 -0.2854
 3055TIP3    H130580   3.567  -0.077   6.508 -2.7487 -0.1977 -1.1640
 3055TIP3    H230581   3.642   0.014   6.413  0.5251 -0.0761  1.3610
 3056TIP3   OH230582   0.832   0.495  12.242 -0.4310  0.3318 -0.6597
 3056TIP3    H130583   0.882   0.439  12.183  0.9201  1.2345 -0.4245
 3056TIP3    H230584   0.840   0.583  12.205 -0.8441  0.6727  0.0401
 3057TIP3   OH230585   2.872   2.880   5.447  0.5996  0.5262  0.3216
 3057TIP3    H130586   2.912   2.966   5.456  0.3297  0.5359  1.6327
 3057TIP3    H230587   2.829   2.865   5.531 -1.9632  0.4217 -0.9296
 3058TIP3   OH230588   0.315   0.312  14.829  0.4288 -0.9404  0.1287
 3058TIP3    H130589   0.302   0.323  14.735  0.3296 -1.1124  0.1217
 3058TIP3    H230590   0.235   0.269  14.859 -0.2640  0.5870  0.5639
 3059TIP3   OH230591   4.572   3.541   4.783 -0.3981  0.2789  0.5758
 3059TIP3    H130592   4.586   3.461   4.731  0.1178  0.6026  0.2034
 3059TIP3    H230593   4.565   3.611   4.717  2.8232  1.1076  0.9498
 3060TIP3   OH230594   2.986   1.883  13.521 -0.1590  0.2337  0.0973
 3060TIP3    H130595   2.971   1.862  13.429 -0.8440  1.0163  0.0180
 3060TIP3    H230596   2.899   1.891  13.560  0.1095 -2.0993  1.3273
 3061TIP3   OH230597   3.928   5.777   3.914 -0.5940 -0.3760  0.4378
 3061TIP3    H130598   3.845   5.740   3.944 -0.6250 -1.0402 -0.4642
 3061TIP3    H230599   3.903   5.850   3.857 -0.5333  0.7079  1.7359
 3062TIP3   OH230600   2.614   5.263  13.357  0.0610  0.1349 -0.1909
 3062TIP3    H130601   2.542   5.205  13.334  0.1113 -0.0583  0.1242
 3062TIP3    H230602   2.582   5.311  13.434  0.0891  0.3916 -0.3395
 3063TIP3   OH230603   3.351   4.224   1.576  0.7435  0.4141 -0.0054
 3063TIP3    H130604   3.381   4.147   1.528  2.0432 -0.9915  2.8101
 3063TIP3    H230605   3.293   4.189   1.644  1.0110  1.9670  1.0768
 3064TIP3   OH230606   2.241   4.866  16.286  0.1159 -0.4318 -0.2980
 3064TIP3    H130607   2.301   4.845  16.214  1.1217 -0.8048  0.6171
 3064TIP3    H230608   2.171   4.917  16.245 -0.0046 -1.7249 -1.7533
 3065TIP3   OH230609   5.740   3.849   1.737 -0.0913  0.4692 -0.2385
 3065TIP3    H130610   5.706   3.832   1.649  0.2958  0.0201 -0.3053
 3065TIP3    H230611   5.829   3.813   1.735  0.2967  1.4031  0.0107
 3066TIP3   OH230612   0.630   0.674  15.667  0.5598  0.2394  0.3093
 3066TIP3    H130613   0.622   0.756  15.620 -0.7819 -0.0990 -0.1103
 3066TIP3    H230614   0.600   0.607  15.605 -0.5575 -0.2922  1.3758
 3067TIP3   OH230615   6.666   1.683  12.421 -0.1698  0.1948 -0.5365
 3067TIP3    H130616   6.683   1.618  12.489 -1.2251 -0.3513 -0.7923
 3067TIP3    H230617   6.605   1.745  12.461 -1.3764 -0.5340 -1.2128
 3068TIP3   OH230618   4.609   5.527  16.596 -0.6291 -0.3129 -0.1180
 3068TIP3    H130619   4.526   5.555  16.634 -0.1566  0.3502  0.4387
 3068TIP3    H230620   4.633   5.449  16.646  0.9865  1.6587  2.4113
 3069TIP3   OH230621   3.405   5.126  14.994  0.2301  0.6466  0.1845
 3069TIP3    H130622   3.329   5.070  15.011  0.6968  0.4075  1.6638
 3069TIP3    H230623   3.470   5.097  15.058  2.5121 -0.8128 -2.5700
 3070TIP3   OH230624   3.364   1.805  15.942  0.0178 -0.0436 -0.7840
 3070TIP3    H130625   3.387   1.833  16.031 -0.1290  1.5086 -1.1956
 3070TIP3    H230626   3.445   1.767  15.908 -0.1729 -1.5037  0.2922
 3071TIP3   OH230627   1.879   1.268   3.161  0.1184  0.1903 -0.3723
 3071TIP3    H130628   1.904   1.358   3.181  0.2753 -0.1956  1.2916
 3071TIP3    H230629   1.951   1.215   3.195  1.1478 -0.5070 -3.3402
 3072TIP3   OH230630   2.361   1.514  12.822  0.0138  0.0551 -0.2004
 3072TIP3    H130631   2.446   1.517  12.779 -1.2100 -1.0447 -2.9634
 3072TIP3    H230632   2.374   1.457  12.898  1.9448  0.7656  0.0398
 3073TIP3   OH230633   0.706   5.984  14.139 -0.0242  0.4445 -0.9494
 3073TIP3    H130634   0.626   5.932  14.144  0.8515 -0.9620 -1.2834
 3073TIP3    H230635   0.684   6.054  14.077 -0.6171 -0.6325 -1.9959
 3074TIP3   OH230636   0.416   2.389   3.592 -0.0304  0.0360 -0.1537
 3074TIP3    H130637   0.382   2.356   3.676  0.7097 -0.2916  0.0222
 3074TIP3    H230638   0.342   2.437   3.554 -1.0942 -1.6831 -0.3489
 3075TIP3   OH230639   5.741   3.833  14.965 -0.4330  0.3093  0.0277
 3075TIP3    H130640   5.730   3.865  14.876  0.8805 -0.1557 -0.3289
 3075TIP3    H230641   5.723   3.739  14.960  0.4971  0.1167  0.0509
 3076TIP3   OH230642   5.660   1.988   6.167 -0.2662 -0.1819 -0.1746
 3076TIP3    H130643   5.701   1.968   6.251 -0.7301 -0.4418 -0.0127
 3076TIP3    H230644   5.566   1.982   6.183 -0.3452 -1.4654 -1.0075
 3077TIP3   OH230645   5.693   6.121  12.030  0.2094  0.0514  0.7729
 3077TIP3    H130646   5.745   6.200  12.016  2.1374 -1.3356 -0.4598
 3077TIP3    H230647   5.610   6.139  11.987  0.2647  1.7087  1.2858
 3078TIP3   OH230648   5.823   0.531  15.283 -0.0038  0.1720 -0.2489
 3078TIP3    H130649   5.745   0.528  15.228  0.7573 -0.4534 -1.3528
 3078TIP3    H230650   5.795   0.495  15.367 -1.0062  0.3900 -0.4750
 3079TIP3   OH230651   3.364   0.993   0.573  0.0899 -0.0316  0.2413
 3079TIP3    H130652   3.383   0.944   0.654 -0.9799 -0.7251  0.0845
 3079TIP3    H230653   3.283   1.039   0.592  0.6316  1.0123  0.0722
 3080TIP3   OH230654   3.970   5.934  14.023 -0.5156 -0.1442 -0.8002
 3080TIP3    H130655   3.932   5.901  14.104  1.6420  1.0630  0.8043
 3080TIP3    H230656   4.007   6.019  14.046  0.0292  0.3146 -3.0996
 3081TIP3   OH230657   2.016   1.507  11.843 -0.0150  0.1965  0.2457
 3081TIP3    H130658   2.080   1.468  11.784  0.7506 -0.0011  1.1846
 3081TIP3    H230659   2.050   1.595  11.860 -0.8667  0.6960 -0.5468
 3082TIP3   OH230660   2.584   5.514   0.515  0.0731 -0.4672  0.0858
 3082TIP3    H130661   2.501   5.472   0.537  0.4300 -1.0630  0.3043
 3082TIP3    H230662   2.645   5.484   0.582  0.5125 -0.1745 -0.1781
 3083TIP3   OH230663   3.172   2.928  12.525  0.9043  0.1132 -0.0651
 3083TIP3    H130664   3.132   2.995  12.469  0.6160  1.6958  1.9248
 3083TIP3    H230665   3.253   2.968  12.557  0.8181 -0.5383  1.0253
 3084TIP3   OH230666   5.559   4.985   1.935  0.0503  0.5295 -0.1147
 3084TIP3    H130667   5.553   5.077   1.960 -0.0843  0.3842  0.4048
 3084TIP3    H230668   5.630   4.982   1.871  0.2200  0.9589  0.0499
 3085TIP3   OH230669   3.948   4.969   0.283 -0.3116  0.2074 -0.3312
 3085TIP3    H130670   3.967   4.892   0.229  1.0512  0.5788 -0.4179
 3085TIP3    H230671   3.970   5.043   0.227 -0.8641  0.6458  0.0265
 3086TIP3   OH230672   2.522   6.074   6.004 -0.0231 -0.6537  0.0580
 3086TIP3    H130673   2.476   6.022   6.070 -0.6407 -0.4961 -0.2478
 3086TIP3    H230674   2.492   6.040   5.920  1.7048 -1.7132 -0.1827
 3087TIP3   OH230675   6.769   4.867   3.619  0.3110  0.3139  0.2338
 3087TIP3    H130676   6.817   4.881   3.538  1.2418 -0.3266  0.6564
 3087TIP3    H230677   6.688   4.824   3.592  0.1952  0.9313 -0.4359
 3088TIP3   OH230678   6.385   2.052   6.491  0.1169  0.1254  0.5129
 3088TIP3    H130679   6.331   2.064   6.413 -2.3367 -2.0773  1.7212
 3088TIP3    H230680   6.459   1.998   6.462 -0.2853  0.0846 -0.4468
 3089TIP3   OH230681   3.007   0.547  16.067  0.0261 -0.1024  0.3585
 3089TIP3    H130682   3.038   0.631  16.101 -0.2328  0.6696 -1.2135
 3089TIP3    H230683   2.912   0.549  16.081  0.2421 -1.1571  2.3857
 3090TIP3   OH230684   0.817   4.414   5.990  0.0024  0.1511  0.0339
 3090TIP3    H130685   0.811   4.401   6.085 -0.0764 -0.2680 -0.0284
 3090TIP3    H230686   0.740   4.370   5.954  1.7474 -2.7094 -0.5067
 3091TIP3   OH230687   0.273   3.178  12.211 -0.3482 -0.4449 -0.3107
 3091TIP3    H130688   0.262   3.216  12.298  1.3682 -0.1034 -0.2060
 3091TIP3    H230689   0.261   3.084  12.224 -1.3503 -0.2839  0.0417
 3092TIP3   OH230690   5.802   4.472  11.818  0.1637  0.6272 -0.2435
 3092TIP3    H130691   5.751   4.551  11.834  1.1177  1.3744 -0.7986
 3092TIP3    H230692   5.850   4.457  11.900  1.0692  1.4628 -0.5974
 3093TIP3   OH230693   1.438   0.864  14.372 -0.7947 -0.2312 -0.6064
 3093TIP3    H130694   1.488   0.876  14.291 -0.5374 -1.3454 -0.6264
 3093TIP3    H230695   1.372   0.799  14.351 -0.6793 -0.5874  0.0988
 3094TIP3   OH230696   0.831   0.352   0.756  0.2499 -0.3943  0.1122
 3094TIP3    H130697   0.882   0.400   0.691 -0.4473  1.7435  1.0655
 3094TIP3    H230698   0.757   0.316   0.707  0.6049 -0.2365 -0.5534
 3095TIP3   OH230699   2.656   2.697  11.865  0.4030  0.5236  0.0148
 3095TIP3    H130700   2.570   2.658  11.846  0.7756 -0.0738 -0.5091
 3095TIP3    H230701   2.664   2.768  11.801  1.0374 -0.5609 -1.1673
 3096TIP3   OH230702   2.992   4.754   5.116  0.5157  0.1937 -0.5497
 3096TIP3    H130703   3.069   4.809   5.129  2.2398 -1.8071 -1.6153
 3096TIP3    H230704   3.018   4.668   5.148 -1.1605 -0.6315 -1.2729
 3097TIP3   OH230705   2.719   1.791   5.076 -0.4411  0.6675 -0.0936
 3097TIP3    H130706   2.696   1.876   5.113  1.6826  1.3671 -0.2301
 3097TIP3    H230707   2.773   1.813   5.000  0.9017 -0.8061  0.4012
 3098TIP3   OH230708   2.062   5.808   0.301 -0.6897 -0.3571  0.2041
 3098TIP3    H130709   2.110   5.869   0.244 -1.4848 -0.1036 -0.2056
 3098TIP3    H230710   2.005   5.759   0.242 -0.9671 -0.6286  0.6880
 3099TIP3   OH230711   2.462   3.877  11.498 -0.4765  0.0087  0.0442
 3099TIP3    H130712   2.504   3.962  11.512  0.9168 -0.5534 -0.5002
 3099TIP3    H230713   2.479   3.828  11.578 -1.8482  0.4418  0.6250
 3100TIP3   OH230714   2.410   0.713  13.271  0.1441  0.6522  0.6056
 3100TIP3    H130715   2.428   0.792  13.220 -2.1616  1.0167  0.2292
 3100TIP3    H230716   2.408   0.743  13.362 -1.0838  1.1525  0.4369
 3101TIP3   OH230717   3.567   5.108  11.365  0.1354  0.6765 -0.0189
 3101TIP3    H130718   3.486   5.111  11.415  0.4025 -1.1599  0.6033
 3101TIP3    H230719   3.539   5.097  11.274 -0.3542 -0.6464  0.2642
 3102TIP3   OH230720   3.557   4.690   4.584  0.5829 -0.3072  0.4185
 3102TIP3    H130721   3.580   4.599   4.603 -0.6406 -0.7096  0.0578
 3102TIP3    H230722   3.640   4.732   4.562  0.9821 -1.7203 -0.9655
 3103TIP3   OH230723   2.769   2.825  15.011 -0.0371 -0.1736 -0.0575
 3103TIP3    H130724   2.768   2.745  15.064 -0.6591  0.2138  0.5309
 3103TIP3    H230725   2.730   2.891  15.068 -2.7141 -0.2029 -1.7182
 3104TIP3   OH230726   3.623   4.114   2.036 -0.6023 -0.3422  0.0664
 3104TIP3    H130727   3.589   4.156   2.114 -0.9857 -1.0769  0.3090
 3104TIP3    H230728   3.551   4.060   2.005 -0.8027  0.6968 -1.3724
 3105TIP3   OH230729   5.140   2.361   4.041 -0.9270  0.3669 -0.1097
 3105TIP3    H130730   5.133   2.456   4.032  1.3605  0.3979 -4.7975
 3105TIP3    H230731   5.233   2.345   4.056 -1.2223 -1.1805  0.2540
 3106TIP3   OH230732   5.752   6.475  13.229 -0.4790  0.7119  0.0753
 3106TIP3    H130733   5.664   6.438  13.240 -0.1027 -0.2164  0.0495
 3106TIP3    H230734   5.805   6.433  13.297 -0.3326  2.2477  0.9479
 3107TIP3   OH230735   4.444   4.177  12.892  0.0814 -0.0940 -0.3065
 3107TIP3    H130736   4.361   4.137  12.868 -0.7497  0.5632  1.3362
 3107TIP3    H230737   4.477   4.123  12.964  0.0257  0.8575  0.4504
 3108TIP3   OH230738   5.144   4.688   0.745 -0.1309  0.2424 -0.3440
 3108TIP3    H130739   5.141   4.769   0.797 -1.2366  0.2101 -0.3462
 3108TIP3    H230740   5.232   4.688   0.707  0.5632  0.4653  1.2054
 3109TIP3   OH230741   6.068   5.140   2.472  0.6338 -0.5728 -0.6595
 3109TIP3    H130742   6.100   5.118   2.385 -1.5322  1.0970 -1.9962
 3109TIP3    H230743   5.993   5.083   2.486 -0.1539  0.4016 -0.7396
 3110TIP3   OH230744   1.533   4.339  15.357  0.7647 -0.2237 -0.4472
 3110TIP3    H130745   1.504   4.413  15.410  0.3076 -0.9452  0.3528
 3110TIP3    H230746   1.595   4.292  15.414  1.3260 -0.2569 -1.0759
 3111TIP3   OH230747   5.320   3.192  13.932  0.3885  0.1039 -0.3836
 3111TIP3    H130748   5.361   3.256  13.990  0.9891  0.2601 -0.9699
 3111TIP3    H230749   5.341   3.222  13.844 -0.1781 -0.3489 -0.6811
 3112TIP3   OH230750   4.500   0.921   3.654 -0.3563  0.3020  0.4516
 3112TIP3    H130751   4.493   1.016   3.659 -2.7558  0.2915 -1.0243
 3112TIP3    H230752   4.430   0.888   3.710  1.9087 -0.7413  2.8550
 3113TIP3   OH230753   2.485   2.899  16.162 -0.1869 -0.3772 -0.3102
 3113TIP3    H130754   2.428   2.961  16.207  0.4622 -0.4651  0.6463
 3113TIP3    H230755   2.489   2.932  16.072 -0.3691  0.5915  0.0273
 3114TIP3   OH230756   3.413   3.181  17.032 -0.4894 -0.5203 -0.6109
 3114TIP3    H130757   3.464   3.217  17.105 -0.8031  0.9514 -1.0731
 3114TIP3    H230758   3.323   3.183  17.063 -0.7148  0.8061 -1.2520
 3115TIP3   OH230759   0.029   1.372  15.178  0.6098 -0.2810 -0.8165
 3115TIP3    H130760  -0.050   1.318  15.178  0.4727 -0.1720  1.1686
 3115TIP3    H230761   0.008   1.445  15.236  2.0210 -0.0090 -0.6043
 3116TIP3   OH230762   6.515   2.345  14.085 -0.9442 -0.4861 -0.0018
 3116TIP3    H130763   6.468   2.414  14.037  2.0218  1.5887 -0.1602
 3116TIP3    H230764   6.607   2.359  14.064  0.0928 -2.3602  2.7221
 3117TIP3   OH230765   5.899   2.215  13.281 -0.3097  0.0558 -0.0869
 3117TIP3    H130766   5.840   2.239  13.352 -1.6291 -1.2858 -0.6745
 3117TIP3    H230767   5.891   2.285  13.217 -2.3472 -0.7072 -0.7568
 3118TIP3   OH230768   0.166   1.658  13.650  1.0617  1.0129  0.2324
 3118TIP3    H130769   0.153   1.729  13.712  0.9939  0.2501  1.1035
 3118TIP3    H230770   0.096   1.669  13.585 -1.9200 -0.9028  2.8408
 3119TIP3   OH230771   5.282   0.776   0.374 -0.1921  0.2464  0.0281
 3119TIP3    H130772   5.263   0.811   0.461 -0.0458  3.4603 -1.0909
 3119TIP3    H230773   5.200   0.784   0.326 -0.0939 -0.8751 -0.3609
 3120TIP3   OH230774   4.093   5.627   3.301 -0.0925  0.4747 -0.1136
 3120TIP3    H130775   4.038   5.549   3.288 -0.1059  0.4698 -0.0268
 3120TIP3    H230776   4.172   5.609   3.249  2.0589 -1.7051  3.4188
 3121TIP3   OH230777   0.182   6.685  13.415  0.6605 -0.3871 -0.1132
 3121TIP3    H130778   0.115   6.704  13.480  0.5543 -3.3996  0.7726
 3121TIP3    H230779   0.231   6.768  13.406 -2.4712  1.6211 -0.0966
 3122TIP3   OH230780   2.063   0.921  12.740 -0.4898 -0.1391  0.1127
 3122TIP3    H130781   2.072   1.014  12.760 -0.2741 -0.2867  0.7391
 3122TIP3    H230782   2.105   0.910  12.655 -0.8371  0.3975 -0.1363
 3123TIP3   OH230783   2.332   4.177  16.701 -0.2944 -0.7353 -0.3778
 3123TIP3    H130784   2.328   4.267  16.668  0.4441  0.0168  1.4361
 3123TIP3    H230785   2.394   4.133  16.644  0.1217  0.2016 -0.6717
 3124TIP3   OH230786   4.218   4.229   3.649 -0.6524 -0.1679  0.5131
 3124TIP3    H130787   4.181   4.279   3.576  0.6841  0.7678  0.4321
 3124TIP3    H230788   4.211   4.137   3.621 -1.1431  0.1122 -0.3157
 3125TIP3   OH230789   3.121   6.406  14.916  0.2537 -0.1383  0.4113
 3125TIP3    H130790   3.146   6.491  14.881  2.6387  0.1827  2.5662
 3125TIP3    H230791   3.199   6.351  14.904 -0.5374 -1.4144  0.8863
 3126TIP3   OH230792   5.919   4.621  14.518 -0.2120  0.3625  0.5208
 3126TIP3    H130793   5.982   4.665  14.461 -1.8675  0.2340 -1.5359
 3126TIP3    H230794   5.969   4.595  14.595  2.2689  0.1489 -1.0686
 3127TIP3   OH230795   1.759   1.723   2.666 -0.7419  0.4236 -0.0341
 3127TIP3    H130796   1.780   1.654   2.602 -1.2723 -0.1351  0.3845
 3127TIP3    H230797   1.844   1.759   2.690 -0.4912  0.2399 -0.6142
 3128TIP3   OH230798   2.574   5.889   2.838  0.5376 -0.0912 -0.4325
 3128TIP3    H130799   2.486   5.922   2.853  0.6405  0.3133 -0.6973
 3128TIP3    H230800   2.630   5.944   2.892  0.5656 -0.7710  0.2485
 3129TIP3   OH230801   6.751   2.225   1.768  0.6215 -0.6177 -0.2174
 3129TIP3    H130802   6.764   2.155   1.705  0.2587 -0.2542 -0.7049
 3129TIP3    H230803   6.767   2.305   1.719 -0.2158 -0.3078 -0.0090
 3130TIP3   OH230804   5.923   6.335   3.713 -0.0052 -0.0833 -0.6372
 3130TIP3    H130805   5.866   6.399   3.758 -0.8569 -1.5480  0.4555
 3130TIP3    H230806   6.010   6.375   3.715 -0.3297  0.6262  0.9307
 3131TIP3   OH230807   1.567   3.639  12.188 -0.7706  0.1760 -0.3749
 3131TIP3    H130808   1.512   3.608  12.260  1.0481 -1.1196  0.5310
 3131TIP3    H230809   1.592   3.560  12.141 -0.2369  0.8071 -1.1790
 3132TIP3   OH230810   3.330   3.479  15.776  0.3478  0.4517  0.0022
 3132TIP3    H130811   3.281   3.407  15.738  1.5873 -0.6895  0.4890
 3132TIP3    H230812   3.421   3.450  15.775  0.7564  1.5666  1.1816
 3133TIP3   OH230813   3.817   1.060   5.462  0.0985 -0.1344  0.3624
 3133TIP3    H130814   3.906   1.039   5.490  0.0816 -0.3625  0.2495
 3133TIP3    H230815   3.790   0.986   5.408 -2.0609 -2.6903  4.4232
 3134TIP3   OH230816   0.813   4.767   4.912  0.4380 -0.4240  0.2180
 3134TIP3    H130817   0.846   4.856   4.923  0.3485 -0.3413 -0.1923
 3134TIP3    H230818   0.745   4.758   4.979 -1.4675  0.7348 -1.4415
 3135TIP3   OH230819   2.093   1.073  16.929 -0.3843  0.9759 -0.2363
 3135TIP3    H130820   2.017   1.129  16.942  0.3242  2.0276 -0.5721
 3135TIP3    H230821   2.168   1.132  16.934  0.3964  0.0088 -0.2566
 3136TIP3   OH230822   2.257   0.831  15.739 -0.1457  0.0181  0.3226
 3136TIP3    H130823   2.280   0.771  15.810  0.7017  0.1009  0.1283
 3136TIP3    H230824   2.211   0.775  15.676  1.6431 -0.7329 -0.3954
 3137TIP3   OH230825   6.411   5.221  12.985  0.2741 -0.0410 -0.0196
 3137TIP3    H130826   6.449   5.309  12.991  0.8486 -0.2467 -0.5386
 3137TIP3    H230827   6.340   5.221  13.049  0.5986  0.6330  0.3475
 3138TIP3   OH230828   5.693   0.938   2.856 -0.2648  0.4809 -0.3107
 3138TIP3    H130829   5.699   0.884   2.935 -0.9063 -2.3222 -2.0497
 3138TIP3    H230830   5.773   0.991   2.858 -0.0021  0.1306  1.9132
 3139TIP3   OH230831   2.284   2.851  12.305 -0.7069 -0.2730  0.0724
 3139TIP3    H130832   2.289   2.869  12.211 -0.8473  0.5271  0.2098
 3139TIP3    H230833   2.337   2.920  12.346 -1.4213 -0.0350  0.6310
 3140TIP3   OH230834   2.825   1.292  13.104 -0.1755  0.0815 -0.0872
 3140TIP3    H130835   2.856   1.225  13.165 -0.9042 -1.4241 -1.2943
 3140TIP3    H230836   2.826   1.373  13.154 -0.0110 -0.9645  1.6797
 3141TIP3   OH230837   4.803   3.836  12.205  0.3826  0.4995  0.7838
 3141TIP3    H130838   4.777   3.745  12.194  1.0476  0.4693 -0.7712
 3141TIP3    H230839   4.820   3.867  12.116  1.1930  1.8324  1.3742
 3142TIP3   OH230840   6.503   0.929   2.180  0.1012 -0.3845 -0.2679
 3142TIP3    H130841   6.451   1.009   2.181 -1.7937 -1.5292  1.2399
 3142TIP3    H230842   6.575   0.946   2.242 -1.1377 -0.3069  1.2121
 3143TIP3   OH230843   6.656   3.428  15.473 -0.0284 -0.1346  0.1026
 3143TIP3    H130844   6.749   3.443  15.457 -0.0105  0.8864  1.0369
 3143TIP3    H230845   6.616   3.515  15.470 -1.3492 -0.7234 -2.3932
 3144TIP3   OH230846   0.053   0.256   0.660  0.3302  0.1701  0.2827
 3144TIP3    H130847   0.021   0.237   0.571  0.1992  0.8258  0.1844
 3144TIP3    H230848  -0.027   0.261   0.713  0.2562  1.5146  0.0932
 3145TIP3   OH230849   4.822   2.873   5.117 -0.5128 -0.2471  0.1415
 3145TIP3    H130850   4.909   2.913   5.110 -0.9044  0.5539 -0.3227
 3145TIP3    H230851   4.784   2.882   5.030 -0.5003 -1.9626 -0.0707
 3146TIP3   OH230852   5.912   5.735   0.241 -0.1880  0.7613  0.0214
 3146TIP3    H130853   5.929   5.790   0.317 -0.4065  0.2358  0.4584
 3146TIP3    H230854   5.969   5.769   0.173  1.2159  0.2278  0.8842
 3147TIP3   OH230855   1.917   1.409   6.407  0.1322  0.1982 -0.6135
 3147TIP3    H130856   1.865   1.488   6.396 -2.2825 -1.2898 -0.7114
 3147TIP3    H230857   1.868   1.342   6.359  1.0775 -1.7347  0.9997
 3148TIP3   OH230858   0.465   1.483  16.755 -0.2310 -0.0628  0.3556
 3148TIP3    H130859   0.536   1.431  16.793 -1.1160 -2.2547 -0.7675
 3148TIP3    H230860   0.502   1.519  16.675  0.4306  1.2337  1.2066
 3149TIP3   OH230861   0.537   1.138   4.508  0.1479 -0.4751  0.8224
 3149TIP3    H130862   0.537   1.232   4.524  2.2901 -0.2254 -0.2193
 3149TIP3    H230863   0.565   1.100   4.591 -1.4937 -0.2873  1.4884
 3150TIP3   OH230864   5.783   1.467  11.932 -0.2289 -0.0435  0.2009
 3150TIP3    H130865   5.760   1.557  11.913  2.5383  0.5613 -0.7640
 3150TIP3    H230866   5.793   1.464  12.027 -0.2638  0.6868  0.2299
 3151TIP3   OH230867   1.591   5.485  17.040 -0.1520 -0.4746  0.7108
 3151TIP3    H130868   1.590   5.454  16.950  1.6439 -2.5249  1.3102
 3151TIP3    H230869   1.526   5.431  17.085 -0.4840 -0.0014  0.8027
 3152TIP3   OH230870   5.296   4.859   0.977 -0.3365 -0.5304  0.2511
 3152TIP3    H130871   5.266   4.863   1.068  1.5547  0.0166  0.8978
 3152TIP3    H230872   5.370   4.798   0.980  0.0809 -0.0864 -0.8166
 3153TIP3   OH230873   3.454   5.373   1.007  0.2581  0.4688  0.5598
 3153TIP3    H130874   3.431   5.284   0.981  0.0935  0.1156  1.8423
 3153TIP3    H230875   3.423   5.381   1.097  1.9430  1.1857  1.1204
 3154TIP3   OH230876   5.540   1.628   2.881 -0.4863  0.0287  0.0851
 3154TIP3    H130877   5.555   1.534   2.892 -0.3782  0.0886  0.4820
 3154TIP3    H230878   5.455   1.643   2.924 -1.0168 -0.0658 -0.9000
 3155TIP3   OH230879   3.792   1.260  13.200 -0.3600 -0.7661 -0.4770
 3155TIP3    H130880   3.825   1.316  13.269  0.7094 -2.3629  0.3678
 3155TIP3    H230881   3.700   1.246  13.223 -0.1635 -0.8074  0.3172
 3156TIP3   OH230882   0.332   1.474  14.287  0.8115  0.4161 -0.0713
 3156TIP3    H130883   0.245   1.450  14.257  1.5467 -1.7472 -0.6760
 3156TIP3    H230884   0.387   1.468  14.208  2.0297 -1.3238  0.8393
 3157TIP3   OH230885   2.830   2.616  15.811  0.0633 -0.2600  0.0162
 3157TIP3    H130886   2.820   2.570  15.894  1.9470 -1.1071 -0.1676
 3157TIP3    H230887   2.878   2.696  15.833 -0.3759  0.0526 -0.1298
 3158TIP3   OH230888   6.571   0.265   0.797  0.1022  0.3526  0.1305
 3158TIP3    H130889   6.511   0.335   0.775 -0.2510 -0.0763 -0.2790
 3158TIP3    H230890   6.524   0.185   0.776  0.9099  0.0176 -0.4575
 3159TIP3   OH230891   6.427   0.693  12.911  0.1378 -0.1975 -0.0400
 3159TIP3    H130892   6.429   0.749  12.833  0.8711  0.0378  0.1443
 3159TIP3    H230893   6.487   0.621  12.892 -0.3018 -0.5759 -0.0130
 3160TIP3   OH230894   3.851   6.030   4.141  0.4122 -0.1172 -0.1290
 3160TIP3    H130895   3.930   6.082   4.128 -0.0599  1.0384  1.3114
 3160TIP3    H230896   3.802   6.039   4.059  0.9602  0.6058 -0.3892
 3161TIP3   OH230897   4.266   3.046  10.808 -0.1584  0.0725 -0.4059
 3161TIP3    H130898   4.184   3.097  10.807 -0.5211 -0.4545  0.5640
 3161TIP3    H230899   4.315   3.083  10.882 -0.3270 -0.8187  0.1666
 3162TIP3   OH230900   2.558   3.349   1.594  0.3401  0.3732  0.2633
 3162TIP3    H130901   2.629   3.324   1.654  0.8189  1.8712  0.3725
 3162TIP3    H230902   2.589   3.429   1.552 -0.8367  0.4484 -0.5160
 3163TIP3   OH230903   1.817   6.602   1.307  0.1429 -0.0085  0.0666
 3163TIP3    H130904   1.806   6.508   1.292  0.1776  0.2105 -1.4730
 3163TIP3    H230905   1.729   6.634   1.327  0.4067 -0.6460  2.5422
 3164TIP3   OH230906   1.545   3.590  14.093 -0.1035  0.2589  0.1265
 3164TIP3    H130907   1.493   3.511  14.108  1.7407 -0.8965  0.8014
 3164TIP3    H230908   1.601   3.567  14.018  0.8078  0.7236  0.6602
 3165TIP3   OH230909   2.362   5.952   4.373 -0.1537 -0.5798 -0.0918
 3165TIP3    H130910   2.361   5.952   4.469  0.5812  2.1224 -0.0065
 3165TIP3    H230911   2.273   5.928   4.349  0.1181 -3.1319  1.1771
 3166TIP3   OH230912   6.748   1.116   5.663  0.2095  0.3567  0.0187
 3166TIP3    H130913   6.749   1.142   5.755  1.6852  1.1320 -0.1908
 3166TIP3    H230914   6.667   1.066   5.654  1.0897 -1.6952  2.2710
 3167TIP3   OH230915   1.787   5.922  15.327 -0.5657 -0.5680 -0.5914
 3167TIP3    H130916   1.720   5.867  15.367 -1.0424 -0.8109 -1.6861
 3167TIP3    H230917   1.868   5.895  15.370 -0.9299 -1.4544 -0.4227
 3168TIP3   OH230918   1.341   5.508   6.729  0.0045  0.2100 -0.1862
 3168TIP3    H130919   1.348   5.437   6.665  0.0552 -0.5380  0.6276
 3168TIP3    H230920   1.386   5.475   6.806 -0.4124  0.9294  0.3791
 3169TIP3   OH230921   1.437   4.870   5.343 -0.4383  0.1265 -0.0143
 3169TIP3    H130922   1.443   4.814   5.266 -0.5473 -2.0541  1.4850
 3169TIP3    H230923   1.487   4.824   5.410 -2.0987  0.8645  1.8185
 3170TIP3   OH230924   6.178   0.132   1.743  0.6123 -0.1700  0.1916
 3170TIP3    H130925   6.210   0.079   1.670  2.3453  1.2151 -0.1395
 3170TIP3    H230926   6.147   0.213   1.702  0.0003 -0.0592  0.8511
 3171TIP3   OH230927   4.795   0.136   2.529  0.6866  0.8057  0.1075
 3171TIP3    H130928   4.881   0.095   2.529 -0.5518 -1.9551  0.5376
 3171TIP3    H230929   4.770   0.141   2.436  0.0514 -1.3118  0.1275
 3172TIP3   OH230930   2.976   2.283   1.820 -0.1612  0.0938  0.3082
 3172TIP3    H130931   3.046   2.255   1.879  1.6584  2.3186 -0.6369
 3172TIP3    H230932   2.958   2.373   1.844 -0.6674  0.4691 -1.3111
 3173TIP3   OH230933   3.323   5.507   6.607 -0.0709 -0.3766 -0.9597
 3173TIP3    H130934   3.243   5.476   6.649  0.4519 -0.7058 -0.1797
 3173TIP3    H230935   3.293   5.562   6.534 -0.9924 -0.1129 -0.3909
 3174TIP3   OH230936   2.914   6.776  15.880 -0.1275  0.0130 -0.2572
 3174TIP3    H130937   2.941   6.696  15.836 -0.2796 -0.5094  0.5839
 3174TIP3    H230938   2.963   6.845  15.835  0.7171 -0.6491 -0.3850
 3175TIP3   OH230939   3.476   6.743   2.277  0.1258 -0.1588  0.0852
 3175TIP3    H130940   3.410   6.674   2.287 -0.0261  0.0263  0.3876
 3175TIP3    H230941   3.428   6.824   2.296  1.0489 -0.2167  3.2751
 3176TIP3   OH230942   4.263   3.860   0.696 -0.3828 -0.1080 -0.5923
 3176TIP3    H130943   4.192   3.885   0.755 -0.5502 -1.1976 -0.3193
 3176TIP3    H230944   4.221   3.804   0.630 -0.2418  1.2652 -1.9034
 3177TIP3   OH230945   2.265   2.343   2.514 -0.4410  0.8412 -0.5703
 3177TIP3    H130946   2.267   2.384   2.428 -1.6835  1.6788 -0.2304
 3177TIP3    H230947   2.275   2.415   2.576 -0.8309  0.4188 -0.0001
 3178TIP3   OH230948   0.556   3.360  14.706 -0.2351  0.2010 -0.0164
 3178TIP3    H130949   0.614   3.356  14.631  1.5698 -3.0949  1.3143
 3178TIP3    H230950   0.609   3.398  14.776 -0.6368 -0.1029  0.4653
 3179TIP3   OH230951   3.627   4.182   6.206  0.0509 -0.0356 -0.2552
 3179TIP3    H130952   3.683   4.248   6.246 -0.0768 -0.0686 -0.0189
 3179TIP3    H230953   3.553   4.173   6.267 -0.2314  0.0411 -0.5883
 3180TIP3   OH230954   4.173   4.325  12.286 -0.7132  0.6778 -0.0912
 3180TIP3    H130955   4.157   4.289  12.373 -1.5419  1.9776  0.3156
 3180TIP3    H230956   4.239   4.267  12.248 -0.3350  0.0878  1.3980
 3181TIP3   OH230957   3.997   2.200  11.904 -0.1169  0.4901  0.2463
 3181TIP3    H130958   3.991   2.165  11.993 -2.8940  1.8630  0.6991
 3181TIP3    H230959   3.923   2.160  11.857  0.8702  0.3478 -1.2759
 3182TIP3   OH230960   5.162   6.688   3.769 -0.0890  0.0040  0.6491
 3182TIP3    H130961   5.099   6.668   3.838  0.3742 -0.1383  1.0374
 3182TIP3    H230962   5.121   6.758   3.718 -0.8526 -0.5518  0.4859
 3183TIP3   OH230963   1.831   0.274  15.275  0.1627 -0.0502 -0.0455
 3183TIP3    H130964   1.910   0.284  15.222  2.0398 -1.1560  2.3615
 3183TIP3    H230965   1.813   0.362  15.308 -0.3241  0.4155 -1.4890
 3184TIP3   OH230966   6.779   6.254   4.588 -0.1100  0.0433 -0.0290
 3184TIP3    H130967   6.685   6.264   4.605 -0.1340 -0.2895  0.0268
 3184TIP3    H230968   6.785   6.179   4.530  0.2258 -0.8043  1.0697
 3185TIP3   OH230969   5.105   6.029   0.608 -0.6863  0.3121  0.3754
 3185TIP3    H130970   5.013   6.008   0.621 -0.4659 -0.1817  1.1819
 3185TIP3    H230971   5.117   6.024   0.513 -1.2558 -0.6594  0.3435
 3186TIP3   OH230972   0.987   5.906  11.234 -0.5555 -0.4691 -0.1586
 3186TIP3    H130973   1.006   5.963  11.307  2.2047 -1.6109  0.1254
 3186TIP3    H230974   1.072   5.886  11.195 -1.8768  0.2428 -3.8751
 3187TIP3   OH230975   0.602   6.206   5.268 -0.0631  0.4140  0.4846
 3187TIP3    H130976   0.618   6.276   5.205 -1.4893  0.2938 -0.0342
 3187TIP3    H230977   0.651   6.131   5.233 -0.6281  0.4256 -0.3480
 3188TIP3   OH230978   6.695   1.099   4.102  0.6394 -0.1194 -0.3599
 3188TIP3    H130979   6.604   1.115   4.078  1.1986  0.5870 -2.2385
 3188TIP3    H230980   6.708   1.148   4.183 -0.6468 -0.2639 -0.0483
 3189TIP3   OH230981   1.146   1.662  14.273  0.3946  0.3717 -0.1269
 3189TIP3    H130982   1.176   1.638  14.361  0.4148 -0.9729 -0.4771
 3189TIP3    H230983   1.061   1.620  14.264  1.5241 -1.7883 -1.6715
 3190TIP3   OH230984   5.337   1.125  13.491 -0.3870  0.0136  0.8341
 3190TIP3    H130985   5.382   1.162  13.415  1.0561  0.2793  1.7895
 3190TIP3    H230986   5.268   1.188  13.511  0.3399  0.8292  0.8034
 3191TIP3   OH230987   4.556   0.462  16.974 -0.0539  0.2901 -0.0243
 3191TIP3    H130988   4.523   0.373  16.989  0.8471 -0.3373 -1.5394
 3191TIP3    H230989   4.594   0.488  17.059  0.3133 -1.0618  0.2514
 3192TIP3   OH230990   2.248   3.951   2.294  0.4455 -0.0125  0.5615
 3192TIP3    H130991   2.230   3.990   2.209  2.5412 -2.3399 -1.1045
 3192TIP3    H230992   2.161   3.932   2.331 -0.5575  3.1491  0.0989
 3193TIP3   OH230993   6.286   5.064  12.790  0.6188 -0.2996 -0.1058
 3193TIP3    H130994   6.213   5.025  12.837 -0.6027  0.5368 -1.2375
 3193TIP3    H230995   6.337   5.109  12.857 -0.6778  0.2638  0.5362
 3194TIP3   OH230996   5.231   4.887   3.577  0.6886 -1.1063 -0.0370
 3194TIP3    H130997   5.263   4.821   3.515  0.6349  1.7722 -3.4925
 3194TIP3    H230998   5.300   4.954   3.577 -0.2565 -0.0805  1.4517
 3195TIP3   OH230999   6.061   0.294   2.026 -0.5496  0.0425  0.5900
 3195TIP3    H131000   6.075   0.210   2.070 -1.0388  0.7814  2.2365
 3195TIP3    H231001   6.001   0.341   2.084  0.1994  1.7642  0.0208
 3196TIP3   OH231002   3.037   1.979  14.792  0.0394  0.5572 -0.5988
 3196TIP3    H131003   2.974   1.913  14.821  0.9728 -0.0004  0.2045
 3196TIP3    H231004   3.074   1.943  14.711 -0.3844  0.7097 -0.8651
 3197TIP3   OH231005   2.379   1.586  11.087  0.3769  0.2500 -0.1075
 3197TIP3    H131006   2.311   1.616  11.026  1.7638  0.5955 -1.5758
 3197TIP3    H231007   2.406   1.501  11.052  0.3073 -0.1488  0.7961
 3198TIP3   OH231008   6.193   1.995  12.339  0.0148 -0.0716  0.0641
 3198TIP3    H131009   6.162   2.022  12.425  1.5743 -0.9981  0.9671
 3198TIP3    H231010   6.282   2.029  12.334  0.2051 -0.6599 -0.8795
 3199TIP3   OH231011   6.125   4.859   0.131  0.8764 -0.0949 -0.0720
 3199TIP3    H131012   6.212   4.854   0.092  1.0092  1.8397 -0.0918
 3199TIP3    H231013   6.066   4.830   0.061  1.4769 -1.7571  0.0484
 3200TIP3   OH231014   5.594   6.330   4.187  0.0966  0.1712  0.0313
 3200TIP3    H131015   5.588   6.309   4.280  1.3942 -0.4704 -0.0024
 3200TIP3    H231016   5.687   6.318   4.166 -0.3797 -1.0102 -1.6386
 3201TIP3   OH231017   1.729   4.421   6.231  0.3397  0.1679 -0.2718
 3201TIP3    H131018   1.753   4.404   6.140  0.3990 -1.0662 -0.0313
 3201TIP3    H231019   1.641   4.383   6.240 -0.1831  1.3576 -0.1309
 3202TIP3   OH231020   5.300   4.111  13.514 -0.2216 -0.0323  0.3532
 3202TIP3    H131021   5.342   4.183  13.467 -0.8927  0.6824  0.8393
 3202TIP3    H231022   5.226   4.086  13.459 -0.1994 -0.1128  0.3597
 3203TIP3   OH231023   1.315   6.071   2.800  0.4637  0.1823  0.4213
 3203TIP3    H131024   1.409   6.077   2.815  0.4599  0.7754  0.2353
 3203TIP3    H231025   1.306   6.012   2.725  0.5146 -2.2642  2.2132
 3204TIP3   OH231026   4.182   2.062  16.773  0.1729  0.1057 -0.9114
 3204TIP3    H131027   4.224   2.058  16.687  1.1409 -1.6194 -0.4081
 3204TIP3    H231028   4.209   1.981  16.817 -0.3827  0.8851  0.9837
 3205TIP3   OH231029   3.721   3.551   1.235 -0.2490 -0.2529  0.5423
 3205TIP3    H131030   3.768   3.520   1.158 -1.9033  0.3034 -0.7616
 3205TIP3    H231031   3.750   3.642   1.246  1.2000 -0.8154  1.6002
 3206TIP3   OH231032   2.113   5.107  14.309  0.3301 -0.3085 -0.5860
 3206TIP3    H131033   2.075   5.194  14.299 -0.3131 -0.3311  1.3252
 3206TIP3    H231034   2.200   5.122  14.344  0.1552 -0.4258 -0.0913
 3207TIP3   OH231035   5.124   0.800  16.025 -0.2047  0.1358  0.2337
 3207TIP3    H131036   5.141   0.707  16.039  0.5000  0.3978  1.1995
 3207TIP3    H231037   5.102   0.806  15.932  3.7486 -0.4428 -0.9205
 3208TIP3   OH231038   4.262   1.668   3.100 -0.3966 -0.2148  0.1093
 3208TIP3    H131039   4.250   1.614   3.178 -1.3409 -0.8019 -0.4308
 3208TIP3    H231040   4.278   1.756   3.134 -0.0830 -0.5955  0.9691
 3209TIP3   OH231041   4.016   6.782  13.133  0.4993  0.5326  0.0305
 3209TIP3    H131042   3.932   6.746  13.161  1.0383 -0.3108  0.6115
 3209TIP3    H231043   4.008   6.788  13.038 -0.3779  0.8877  0.1204
 3210TIP3   OH231044   4.863   5.121   2.134 -0.0914 -0.4557 -0.4898
 3210TIP3    H131045   4.843   5.034   2.099 -0.5820 -0.7563  0.5177
 3210TIP3    H231046   4.880   5.174   2.056 -0.6155 -1.2429 -1.1614
 3211TIP3   OH231047   4.456   1.349   3.693  0.6928 -0.0086 -0.2211
 3211TIP3    H131048   4.369   1.308   3.692  0.3682  0.6574 -0.1495
 3211TIP3    H231049   4.442   1.432   3.737  1.2032  0.4535 -0.9097
 3212TIP3   OH231050   1.695   4.345   2.638 -0.1504  0.6721  0.1049
 3212TIP3    H131051   1.612   4.302   2.617 -0.3360  0.7690  0.6126
 3212TIP3    H231052   1.739   4.356   2.554 -0.1489 -0.4011 -0.0473
 3213TIP3   OH231053   4.974   3.607   1.978  0.1197 -0.5545  0.4507
 3213TIP3    H131054   4.930   3.597   2.063  0.8542  0.2049  0.9361
 3213TIP3    H231055   5.063   3.634   2.000  0.8714 -2.0997 -0.5221
 3214TIP3   OH231056   6.276   2.094  13.261 -0.4583 -0.3090 -0.4759
 3214TIP3    H131057   6.237   2.125  13.343 -2.5975  0.1143 -1.5784
 3214TIP3    H231058   6.240   2.152  13.194  1.6336 -0.3280 -1.6963
 3215TIP3   OH231059   5.857   2.178  12.601 -0.3788 -0.0905 -0.3894
 3215TIP3    H131060   5.774   2.132  12.584 -0.1723 -0.3953 -0.5725
 3215TIP3    H231061   5.836   2.270  12.585 -1.1602  0.0628  1.2980
 3216TIP3   OH231062   1.372   5.471  13.060 -0.1094 -0.0226 -0.5554
 3216TIP3    H131063   1.318   5.395  13.039  1.1449 -1.1507  0.1401
 3216TIP3    H231064   1.458   5.434  13.082  0.6036  1.6195 -0.4526
 3217TIP3   OH231065   3.689   0.126  15.341 -0.0853  0.4284  0.7477
 3217TIP3    H131066   3.743   0.181  15.283 -0.2340  0.5257  0.6999
 3217TIP3    H231067   3.681   0.043  15.294 -0.4615  0.6096  0.4807
 3218TIP3   OH231068   1.246   2.101  12.551  0.7969 -0.3241  0.1381
 3218TIP3    H131069   1.224   2.014  12.519 -1.0107  0.6244 -1.3271
 3218TIP3    H231070   1.193   2.112  12.631  1.4384 -0.7489  0.6313
 3219TIP3   OH231071   6.558   1.826   4.943 -0.2935 -0.1978  1.6661
 3219TIP3    H131072   6.582   1.786   4.859 -0.7550  1.7841  0.5097
 3219TIP3    H231073   6.641   1.835   4.990  0.5374  1.6369 -0.0081
 3220TIP3   OH231074   5.099   5.492   2.751  0.6256 -0.2323  0.5699
 3220TIP3    H131075   5.181   5.454   2.721  1.0225  0.4376  0.7838
 3220TIP3    H231076   5.063   5.429   2.813 -0.3097 -1.7544 -1.3956
 3221TIP3   OH231077   1.368   4.859  10.853  0.1220  0.2525  0.2129
 3221TIP3    H131078   1.381   4.947  10.888 -1.6533  0.8994 -0.6561
 3221TIP3    H231079   1.422   4.803  10.909  0.3051  1.7158  1.5654
 3222TIP3   OH231080   0.644   3.501  12.530 -0.0160  0.4596  0.3875
 3222TIP3    H131081   0.592   3.580  12.539  0.5702  0.7410  1.3587
 3222TIP3    H231082   0.720   3.528  12.479 -0.2069  0.3285  0.0271
 3223TIP3   OH231083   1.279   0.376   5.535 -0.4558 -0.0987 -0.3460
 3223TIP3    H131084   1.250   0.370   5.444 -1.5433 -1.6397  0.0730
 3223TIP3    H231085   1.202   0.352   5.587  0.3022  0.2092  0.9643
 3224TIP3   OH231086   3.394   1.461  13.180 -0.2967  0.4321 -0.0697
 3224TIP3    H131087   3.384   1.371  13.211 -2.2820  1.0525  1.2604
 3224TIP3    H231088   3.381   1.454  13.085 -2.3744 -0.4857  0.2201
 3225TIP3   OH231089   5.092   6.651   2.927  0.3174 -0.2398 -0.1091
 3225TIP3    H131090   5.118   6.695   2.846  0.6895 -1.5773 -0.7510
 3225TIP3    H231091   5.133   6.564   2.921 -1.9400 -1.3919  0.1890
 3226TIP3   OH231092   6.655   0.759  16.771 -0.1484  0.0872 -0.1082
 3226TIP3    H131093   6.705   0.831  16.811  0.3556 -0.9640  1.2800
 3226TIP3    H231094   6.608   0.799  16.698  2.4360  1.2351 -1.2678
 3227TIP3   OH231095   0.888   0.038  14.689  0.1122 -0.4525  0.1327
 3227TIP3    H131096   0.798   0.056  14.716  0.4264  0.6275  0.5165
 3227TIP3    H231097   0.934   0.122  14.699  0.8785 -0.6701 -1.2302
 3228TIP3   OH231098   0.751   1.844  12.262  0.0563 -0.1384  0.0287
 3228TIP3    H131099   0.687   1.884  12.322  1.0985 -0.3336  1.3191
 3228TIP3    H231100   0.701   1.827  12.182 -0.6055  3.1286 -0.3965
 3229TIP3   OH231101   1.918   2.648  15.795 -0.0014  0.2537  0.3181
 3229TIP3    H131102   1.875   2.733  15.794 -0.0478  0.2239 -0.6399
 3229TIP3    H231103   2.006   2.665  15.762  0.5003  0.1741  1.5283
 3230TIP3   OH231104   3.964   4.692   5.277  0.5737  0.4859 -0.5148
 3230TIP3    H131105   4.057   4.672   5.274  0.5481  0.4306 -1.2624
 3230TIP3    H231106   3.945   4.709   5.369  0.9463 -1.2502 -0.0846
 3231TIP3   OH231107   5.163   5.392  17.042 -0.1860  0.4056 -0.4431
 3231TIP3    H131108   5.156   5.308  17.087 -1.6870  0.2793 -0.8393
 3231TIP3    H231109   5.177   5.456  17.111  0.0012 -0.0665 -0.0413
 3232TIP3   OH231110   6.322   2.847   4.372  0.3710 -0.0996 -0.0088
 3232TIP3    H131111   6.236   2.828   4.408 -0.5911  2.5646 -0.6861
 3232TIP3    H231112   6.379   2.781   4.410 -1.6885 -1.0339  1.6320
 3233TIP3   OH231113   0.428   2.133   4.652  0.2865 -0.3203  0.1047
 3233TIP3    H131114   0.363   2.140   4.723  0.0775 -1.7331  0.0681
 3233TIP3    H231115   0.480   2.213   4.660 -1.7079  1.0804 -0.1164
 3234TIP3   OH231116   5.782   0.831  16.559 -0.1909  0.7603  0.1929
 3234TIP3    H131117   5.690   0.805  16.554 -0.3590  1.5029 -1.1451
 3234TIP3    H231118   5.783   0.903  16.621 -0.1738 -0.4949  1.7106
 3235TIP3   OH231119   1.614   4.250   0.611  0.5581 -0.5415 -0.2927
 3235TIP3    H131120   1.646   4.315   0.548  1.8233 -1.3523 -0.5200
 3235TIP3    H231121   1.524   4.233   0.585  0.8299 -0.2986 -1.4293
 3236TIP3   OH231122   5.277   2.464  12.113 -0.2490 -0.0522 -0.8531
 3236TIP3    H131123   5.300   2.535  12.173  1.4562 -0.6228 -0.7627
 3236TIP3    H231124   5.197   2.494  12.070 -0.6340  1.0609  0.5597
 3237TIP3   OH231125   3.740   0.868   3.603 -0.3497  0.1330  0.5397
 3237TIP3    H131126   3.757   0.937   3.667  0.2129 -0.4981  1.0959
 3237TIP3    H231127   3.713   0.914   3.524 -0.0343  0.9865  0.9170
 3238TIP3   OH231128   2.324   0.821   3.244  0.5350 -0.0821  0.2626
 3238TIP3    H131129   2.308   0.732   3.276 -1.5551  0.6454  1.4358
 3238TIP3    H231130   2.357   0.808   3.155 -2.1935 -2.0328 -0.6234
 3239TIP3   OH231131   3.938   6.671  16.350  0.6608  0.2770 -1.0109
 3239TIP3    H131132   3.964   6.681  16.259  1.3818 -1.1536 -0.9900
 3239TIP3    H231133   3.927   6.761  16.382  1.7721  0.8266 -2.1015
 3240TIP3   OH231134   2.556   1.224  12.918  0.4127 -0.0462 -0.3074
 3240TIP3    H131135   2.581   1.168  12.845  1.0882  1.3202 -1.1600
 3240TIP3    H231136   2.638   1.258  12.952 -0.0112  0.8277 -0.1336
 3241TIP3   OH231137   1.469   0.979   5.602 -0.0739  0.4549  0.5579
 3241TIP3    H131138   1.507   1.067   5.600  0.0233  0.4449  1.4738
 3241TIP3    H231139   1.505   0.936   5.524  1.1432  0.7159  0.9460
 3242TIP3   OH231140   3.155   5.332   0.377  0.3005  0.6016  0.3607
 3242TIP3    H131141   3.243   5.349   0.410  0.4026  0.7940 -0.0122
 3242TIP3    H231142   3.169   5.280   0.298  0.0477 -0.0453  0.7325
 3243TIP3   OH231143   5.548   4.888  13.694  0.1304  0.0080  0.1954
 3243TIP3    H131144   5.567   4.958  13.631 -0.6673  0.2428  0.1953
 3243TIP3    H231145   5.482   4.834  13.649 -1.2301  0.7665  1.2075
 3244TIP3   OH231146   5.877   4.010  16.951  0.1178  0.2339 -0.1247
 3244TIP3    H131147   5.892   3.915  16.959 -0.9052  0.1523  1.3292
 3244TIP3    H231148   5.868   4.025  16.857 -0.2323 -1.2031 -0.3505
 3245TIP3   OH231149   2.812   3.921   2.727 -0.7749 -0.0226  0.1356
 3245TIP3    H131150   2.799   3.842   2.676  1.1419  0.4960 -1.2925
 3245TIP3    H231151   2.748   3.983   2.692 -0.4484 -0.1205 -0.6491
 3246TIP3   OH231152   6.775   4.107  13.749 -0.0619 -0.8615  0.0247
 3246TIP3    H131153   6.775   4.125  13.655  0.1281  0.5036  0.2548
 3246TIP3    H231154   6.735   4.186  13.787  3.4212  0.4156  1.3739
 3247TIP3   OH231155   1.847   2.479   5.368  0.2387  0.0950  0.4868
 3247TIP3    H131156   1.918   2.541   5.379  0.8808 -0.2222 -1.3772
 3247TIP3    H231157   1.804   2.475   5.453  1.9348  0.9158  1.4291
 3248TIP3   OH231158   1.621   2.749  14.187 -0.7432  0.2693 -0.2217
 3248TIP3    H131159   1.671   2.747  14.105  1.6707 -0.1139  1.1951
 3248TIP3    H231160   1.559   2.676  14.178 -0.2172 -0.0512 -1.5358
 3249TIP3   OH231161   1.516   5.907   3.337  0.3290  0.2602  0.6558
 3249TIP3    H131162   1.535   5.821   3.374  0.9299 -0.0618 -0.3879
 3249TIP3    H231163   1.441   5.938   3.388  1.8875  0.3994  3.0352
 3250TIP3   OH231164   2.920   4.887  15.351 -0.5606  0.3028 -0.0975
 3250TIP3    H131165   2.971   4.818  15.393 -1.0948 -0.3972 -0.5695
 3250TIP3    H231166   2.881   4.936  15.423 -1.2102 -0.6897  0.2524
 3251TIP3   OH231167   4.979   4.000  12.350 -0.1097  0.0219  0.1955
 3251TIP3    H131168   5.007   4.051  12.274  0.2605 -0.1269  0.2274
 3251TIP3    H231169   4.927   3.928  12.314 -0.2245  0.1474  0.1119
 3252TIP3   OH231170   2.036   0.291  13.746 -1.1235 -0.3154  0.3875
 3252TIP3    H131171   1.976   0.244  13.803 -2.1193  1.0089  0.4828
 3252TIP3    H231172   1.983   0.362  13.709  0.7967  2.0198  1.8695
 3253TIP3   OH231173   3.375   1.798   2.762  0.0456 -0.7834 -0.4840
 3253TIP3    H131174   3.413   1.722   2.806  1.1573  0.6566  1.1646
 3253TIP3    H231175   3.419   1.801   2.677  2.1491 -0.4080  0.5490
 3254TIP3   OH231176   0.720   5.786  16.592 -0.4690 -0.1463 -0.1271
 3254TIP3    H131177   0.778   5.825  16.658 -1.1014  0.5403  0.0299
 3254TIP3    H231178   0.695   5.858  16.535  0.6316 -0.8523 -1.5844
 3255TIP3   OH231179   0.647   1.088  11.469 -0.0746 -0.0521 -0.6590
 3255TIP3    H131180   0.694   1.091  11.552  0.9953 -0.8155 -1.2115
 3255TIP3    H231181   0.558   1.117  11.490  0.1627 -0.3052  0.7600
 3256TIP3   OH231182   5.112   4.012   2.784  0.6435 -0.5309  0.1549
 3256TIP3    H131183   5.206   4.014   2.802  0.5685 -0.9868  0.6153
 3256TIP3    H231184   5.089   3.919   2.788  0.1014 -0.3887  0.4340
 3257TIP3   OH231185   6.325   1.799  14.697 -0.3026 -0.2490  0.4557
 3257TIP3    H131186   6.230   1.786  14.695 -0.2601 -0.8104  1.4595
 3257TIP3    H231187   6.353   1.780  14.607 -1.1120 -0.2376  0.1860
 3258TIP3   OH231188   0.070   4.729   4.689  0.4696  0.7257  0.1089
 3258TIP3    H131189   0.119   4.735   4.771 -2.8077  0.4322  2.2719
 3258TIP3    H231190   0.079   4.637   4.662  1.1825  0.7119  0.3826
 3259TIP3   OH231191   2.125   3.256  15.012 -0.0890 -0.3720 -0.3140
 3259TIP3    H131192   2.098   3.203  14.937  5.0692 -2.8214 -0.8733
 3259TIP3    H231193   2.094   3.208  15.088 -0.8130 -0.7731 -0.8506
 3260TIP3   OH231194   4.270   5.564  11.394  0.3395 -0.4836 -0.4216
 3260TIP3    H131195   4.363   5.569  11.415  0.2153  0.9653 -0.1363
 3260TIP3    H231196   4.267   5.527  11.306  1.2856  1.0308 -1.1250
 3261TIP3   OH231197   6.025   5.369   1.152  0.0312  0.0832  0.3157
 3261TIP3    H131198   6.006   5.430   1.081 -1.7459 -1.8951 -1.0103
 3261TIP3    H231199   5.944   5.320   1.165  0.7981 -0.7329  2.6445
 3262TIP3   OH231200   0.906   1.258  15.431  0.5219  0.2235  0.2477
 3262TIP3    H131201   0.942   1.271  15.519  1.0678  0.4913 -0.0071
 3262TIP3    H231202   0.905   1.346  15.393  1.1849 -0.0130 -0.3440
 3263TIP3   OH231203   5.862   4.927  12.950 -0.1881  0.1119  1.0489
 3263TIP3    H131204   5.792   4.973  12.902 -0.7961 -0.8404  1.0068
 3263TIP3    H231205   5.835   4.933  13.042  0.1069  0.4573  1.1156
 3264TIP3   OH231206   2.652   2.349  11.449  0.0828  0.5210  0.3666
 3264TIP3    H131207   2.636   2.437  11.483  1.2628  1.0720 -0.4388
 3264TIP3    H231208   2.565   2.311  11.441 -0.4878  1.7543  0.3817
 3265TIP3   OH231209   1.792   1.821   0.526 -0.1860  0.2366 -0.4115
 3265TIP3    H131210   1.753   1.898   0.567 -0.9955 -1.1942  1.6669
 3265TIP3    H231211   1.880   1.816   0.563 -0.2256  0.0285 -0.3454
 3266TIP3   OH231212   3.053   2.031  15.055 -0.3984 -0.4437 -0.0918
 3266TIP3    H131213   3.093   1.945  15.067  1.1188  0.2397  0.0285
 3266TIP3    H231214   3.048   2.042  14.960 -0.0537 -0.4196 -0.1059
 3267TIP3   OH231215   3.840   5.187   5.075 -0.2990 -0.6030  0.2414
 3267TIP3    H131216   3.888   5.106   5.089 -2.1615 -1.5936  1.2912
 3267TIP3    H231217   3.789   5.172   4.995  1.7274  0.8002 -1.4310
 3268TIP3   OH231218   1.362   1.852   5.635  0.5893  0.2891 -0.4945
 3268TIP3    H131219   1.338   1.824   5.723  3.3615 -0.7638  0.0371
 3268TIP3    H231220   1.372   1.947   5.643  0.4472  0.2512  0.2454
 3269TIP3   OH231221   4.459   6.269   2.979 -0.2969 -0.0292 -0.2214
 3269TIP3    H131222   4.382   6.297   2.929  0.5513  0.5173 -1.2778
 3269TIP3    H231223   4.494   6.196   2.929  0.3352  0.2575 -0.2014
 3270TIP3   OH231224   3.276   3.524  16.850 -0.1914  0.2020 -0.0445
 3270TIP3    H131225   3.246   3.565  16.769  3.2721 -0.1839 -1.7098
 3270TIP3    H231226   3.298   3.434  16.826  1.3905  0.2184  1.1150
 3271TIP3   OH231227   2.661   1.058   5.851  0.0055 -0.2047 -0.2418
 3271TIP3    H131228   2.693   1.025   5.767  1.7863 -1.8179  0.9838
 3271TIP3    H231229   2.601   0.990   5.882 -1.2108  0.7190 -0.4973
 3272TIP3   OH231230   6.689   6.387   5.293  0.6405  0.0481  0.4544
 3272TIP3    H131231   6.711   6.413   5.203 -1.0734 -2.0653 -0.6557
 3272TIP3    H231232   6.752   6.318   5.314 -0.6569 -1.4196 -0.2546
 3273TIP3   OH231233   3.640   3.870   2.983  0.6808  0.0839  0.4285
 3273TIP3    H131234   3.653   3.775   2.982 -0.0321 -0.0241  0.4138
 3273TIP3    H231235   3.633   3.892   3.076 -0.8628 -0.1495  0.3958
 3274TIP3   OH231236   1.289   4.405  14.872  0.1119 -0.1425 -0.4716
 3274TIP3    H131237   1.363   4.383  14.815  0.4742  0.1145 -0.1098
 3274TIP3    H231238   1.216   4.353  14.839 -0.0964  1.1260 -2.1356
 3275TIP3   OH231239   1.533   1.853  16.973  0.5341 -0.8970 -0.2053
 3275TIP3    H131240   1.572   1.940  16.979  0.6922 -0.9979  0.2273
 3275TIP3    H231241   1.483   1.856  16.891  0.5334 -0.4004 -0.1941
 3276TIP3   OH231242   3.213   6.665   0.585  0.3452  0.2859  0.2100
 3276TIP3    H131243   3.278   6.629   0.524 -0.2361 -1.3076  0.4961
 3276TIP3    H231244   3.263   6.681   0.665  0.6767  0.4288 -0.0195
 3277TIP3   OH231245   5.543   0.561  14.518 -0.7178  0.1408  0.1022
 3277TIP3    H131246   5.612   0.532  14.458 -1.3599  0.9888 -1.1058
 3277TIP3    H231247   5.581   0.637  14.563 -0.6547  0.2649 -0.1550
 3278TIP3   OH231248   1.284   6.296   3.789 -0.1732 -0.1808 -0.4716
 3278TIP3    H131249   1.311   6.324   3.876  2.1608  1.1762 -1.5412
 3278TIP3    H231250   1.277   6.200   3.796 -0.2819 -0.0798  1.2333
 3279TIP3   OH231251   2.837   0.231  14.417  0.1499  0.6523 -0.2361
 3279TIP3    H131252   2.797   0.169  14.477  2.9414 -0.7372  0.3295
 3279TIP3    H231253   2.856   0.180  14.339  1.3984  1.0959 -0.2354
 3280TIP3   OH231254   0.461   0.043  14.316  0.1312 -0.0636  0.4828
 3280TIP3    H131255   0.457  -0.051  14.301  2.6441 -0.0882 -0.6616
 3280TIP3    H231256   0.498   0.052  14.404 -0.9583 -0.1240  0.9511
 3281TIP3   OH231257   0.787   5.239  12.929  0.1369  0.1231 -0.6601
 3281TIP3    H131258   0.833   5.306  12.879 -0.3579  1.0532  0.0866
 3281TIP3    H231259   0.721   5.205  12.869 -0.4139  1.1819 -0.6752
 3282TIP3   OH231260   2.764   0.421  12.979  0.1920  0.1692 -0.3548
 3282TIP3    H131261   2.743   0.494  12.921  1.8718  0.9009 -0.1069
 3282TIP3    H231262   2.692   0.419  13.043 -1.0299  0.1393 -1.6919
 3283TIP3   OH231263   3.991   2.950   0.872 -0.2379  0.6729 -0.1280
 3283TIP3    H131264   3.951   2.882   0.819  0.6915  0.5153 -0.6430
 3283TIP3    H231265   4.084   2.926   0.876 -0.0391  1.4868  0.3313
 3284TIP3   OH231266   0.912   3.516  12.009  0.5114 -0.0283  0.2308
 3284TIP3    H131267   0.827   3.559  12.020  0.0583 -0.3173 -1.7263
 3284TIP3    H231268   0.945   3.551  11.926  0.3015 -3.1192 -1.2797
 3285TIP3   OH231269   0.621   0.478   3.120  0.2199 -0.0579  0.1501
 3285TIP3    H131270   0.532   0.510   3.109  0.2686  0.8924  2.1817
 3285TIP3    H231271   0.636   0.479   3.214  0.9550 -4.2363  0.2693
 3286TIP3   OH231272   4.095   0.595   1.081 -0.0963 -0.1480 -0.5446
 3286TIP3    H131273   4.137   0.633   1.159 -0.8015 -0.5135  0.0304
 3286TIP3    H231274   4.071   0.506   1.108  1.4376 -1.0018 -1.8412
 3287TIP3   OH231275   1.980   1.565   5.160 -0.5133  0.3834 -0.1785
 3287TIP3    H131276   1.992   1.547   5.066 -0.4066 -0.6248  0.0175
 3287TIP3    H231277   1.965   1.659   5.164  2.6916  1.0562 -0.9213
 3288TIP3   OH231278   6.502   3.928   5.753  0.0495 -0.4626  0.3464
 3288TIP3    H131279   6.584   3.959   5.715 -0.9715 -1.1457 -2.6913
 3288TIP3    H231280   6.526   3.851   5.804  1.4720  0.3779  1.0113
 3289TIP3   OH231281   0.901   3.378   2.215  0.1930 -0.3182 -0.2326
 3289TIP3    H131282   0.872   3.310   2.276  0.4009  0.2445  0.5122
 3289TIP3    H231283   0.925   3.452   2.271  2.1426 -0.4092 -0.8737
 3290TIP3   OH231284   0.707   4.673  16.177 -0.2232  0.3702 -0.6127
 3290TIP3    H131285   0.751   4.620  16.243  1.2747  0.1360 -1.7463
 3290TIP3    H231286   0.651   4.612  16.130  0.2476  0.1200 -0.8544
 3291TIP3   OH231287   4.816   5.610   0.193  0.1134 -0.1088  0.0006
 3291TIP3    H131288   4.758   5.542   0.228  0.3551  0.1165  0.8551
 3291TIP3    H231289   4.886   5.618   0.257 -0.9564  2.3576  0.9745
 3292TIP3   OH231290   2.794   5.829   4.079  0.4427 -0.1448 -0.0297
 3292TIP3    H131291   2.730   5.893   4.109  0.9937  0.4143 -0.0188
 3292TIP3    H231292   2.768   5.748   4.122  1.7666  0.8124  2.8490
 3293TIP3   OH231293   1.502   4.606  12.554  0.3707 -0.1587 -0.2482
 3293TIP3    H131294   1.442   4.573  12.621 -0.1388  0.1332 -0.5566
 3293TIP3    H231295   1.586   4.615  12.600 -0.3090  1.4783  0.7543
 3294TIP3   OH231296   5.837   6.529  12.489 -0.0665 -0.1724 -0.1040
 3294TIP3    H131297   5.931   6.539  12.508 -0.1428  1.7180 -0.5240
 3294TIP3    H231298   5.797   6.517  12.575  0.5519 -1.0770  0.0758
 3295TIP3   OH231299   3.409   0.459   5.418  0.0423 -0.7447  0.4897
 3295TIP3    H131300   3.357   0.539   5.429 -0.2673 -0.4543 -2.2868
 3295TIP3    H231301   3.384   0.404   5.492 -1.1526  0.9720  1.4441
 3296TIP3   OH231302   5.637   0.367  15.857  0.6181 -0.0499 -0.0138
 3296TIP3    H131303   5.674   0.305  15.794  0.6437  0.1558 -0.2000
 3296TIP3    H231304   5.685   0.448  15.842 -2.0365  1.2167 -2.5117
 3297TIP3   OH231305   1.993   3.118  15.235  0.3885  0.0345 -0.6785
 3297TIP3    H131306   1.899   3.114  15.252  0.7397  0.0999  1.6121
 3297TIP3    H231307   2.025   3.032  15.263  1.3728  1.0556  1.5765
 3298TIP3   OH231308   3.369   1.088  15.000 -0.3738 -0.3444 -0.4244
 3298TIP3    H131309   3.465   1.088  14.997 -0.3590  1.1084 -0.6122
 3298TIP3    H231310   3.342   1.061  14.913 -0.1506 -1.1028 -0.2694
 3299TIP3   OH231311   4.091   1.176   1.413 -0.3411 -0.1656 -0.2121
 3299TIP3    H131312   4.138   1.180   1.497 -0.5610 -0.3634 -0.0782
 3299TIP3    H231313   4.085   1.083   1.393 -1.0791 -0.1715  0.0021
 3300TIP3   OH231314   3.339   5.472  16.683 -0.5635 -0.1374 -0.1919
 3300TIP3    H131315   3.251   5.494  16.650 -0.8784  1.6914  1.6727
 3300TIP3    H231316   3.328   5.389  16.729 -1.3397  0.1359  0.1239
 3301TIP3   OH231317   6.645   4.071  11.294 -0.1310  0.0006 -0.1757
 3301TIP3    H131318   6.713   4.118  11.244 -1.1836  1.5267 -0.2317
 3301TIP3    H231319   6.565   4.121  11.280 -1.1247 -1.3020  0.5571
 3302TIP3   OH231320   5.916   4.476   4.104  1.1028  0.3049  0.3106
 3302TIP3    H131321   5.926   4.567   4.078 -1.2079  0.2123 -1.1995
 3302TIP3    H231322   5.892   4.481   4.197 -0.8244  1.4382 -0.1769
 3303TIP3   OH231323   5.042   2.802  10.966 -0.5188 -0.1931  0.0686
 3303TIP3    H131324   4.984   2.835  10.897  0.3033 -1.3424 -1.2493
 3303TIP3    H231325   5.124   2.850  10.953 -0.6833  0.3354  0.9385
 3304TIP3   OH231326   5.800   2.656   1.455  0.2080  0.2383  0.2525
 3304TIP3    H131327   5.886   2.665   1.496  0.1167 -0.7825  0.6984
 3304TIP3    H231328   5.757   2.587   1.505 -0.0163 -0.8575 -1.3772
 3305TIP3   OH231329   1.179   3.268   1.569 -0.3814 -0.0307  0.2664
 3305TIP3    H131330   1.106   3.305   1.519 -0.3927 -0.5544 -0.1078
 3305TIP3    H231331   1.153   3.279   1.660  0.2002  2.1039  0.2353
 3306TIP3   OH231332   6.546   0.383  11.098 -0.6378  0.0596 -0.7526
 3306TIP3    H131333   6.487   0.401  11.170  1.7070  1.3627  0.9777
 3306TIP3    H231334   6.577   0.294  11.113  4.2130  1.9938  3.5342
 3307TIP3   OH231335   3.197   0.111   1.499  0.2665 -0.0844 -0.2362
 3307TIP3    H131336   3.137   0.051   1.455  0.1534  0.5085 -0.9253
 3307TIP3    H231337   3.281   0.065   1.499 -0.1943 -0.9663  0.8376
 3308TIP3   OH231338   2.463   6.314  12.317 -0.3327  0.3288 -0.3627
 3308TIP3    H131339   2.440   6.387  12.260 -2.2773  0.4740  0.5514
 3308TIP3    H231340   2.387   6.256  12.314  0.4888 -0.8203  0.2699
 3309TIP3   OH231341   4.031   0.228  16.958  0.1355  0.4417  0.1670
 3309TIP3    H131342   4.025   0.239  16.863 -2.4713  0.9241  0.3071
 3309TIP3    H231343   4.044   0.317  16.991 -0.9327  0.5638  0.3146
 3310TIP3   OH231344   2.651   4.589   2.351 -0.1094 -0.2384  0.1517
 3310TIP3    H131345   2.739   4.583   2.313 -0.1767 -4.1865  0.2227
 3310TIP3    H231346   2.665   4.605   2.444  0.5890 -1.0206  0.1923
 3311TIP3   OH231347   3.717   6.219  12.497 -0.1798 -1.3536  0.5533
 3311TIP3    H131348   3.757   6.149  12.548  1.3602 -1.5267 -0.7971
 3311TIP3    H231349   3.777   6.232  12.424 -0.7761  0.9199  0.4007
 3312TIP3   OH231350   0.222   3.016  13.527 -0.1837  0.4631 -0.2493
 3312TIP3    H131351   0.200   2.953  13.596  0.0182  1.0541  0.3566
 3312TIP3    H231352   0.140   3.063  13.511 -0.1840  0.4487 -0.2897
 3313TIP3   OH231353   0.477   1.692   5.557 -0.0846  0.0469 -0.1888
 3313TIP3    H131354   0.493   1.599   5.575  2.5860  0.6315  1.0897
 3313TIP3    H231355   0.510   1.705   5.468 -0.9382 -0.3158 -0.5626
 3314TIP3   OH231356   6.333   1.734  16.757 -0.3394  0.0638 -0.2381
 3314TIP3    H131357   6.421   1.734  16.721 -1.1167  1.3174 -2.3197
 3314TIP3    H231358   6.326   1.651  16.803  1.4928 -0.6296 -1.1110
 3315TIP3   OH231359   4.709   1.052  11.544  0.7651  0.5400 -0.0692
 3315TIP3    H131360   4.649   1.126  11.554  0.7870  0.5350  0.1022
 3315TIP3    H231361   4.786   1.090  11.501  0.3219  0.3838 -1.0524
 3316TIP3   OH231362   2.215   3.165  15.517 -0.7044  0.0448  0.2062
 3316TIP3    H131363   2.294   3.177  15.569 -0.7222  0.0313  0.2370
 3316TIP3    H231364   2.243   3.179  15.427 -0.2490 -1.8045  0.0229
 3317TIP3   OH231365   1.426   1.883  13.750  0.1646  0.6257  0.2168
 3317TIP3    H131366   1.452   1.800  13.711 -0.3508  0.4388  0.2689
 3317TIP3    H231367   1.506   1.915  13.793  0.0040 -0.5613  1.4762
 3318TIP3   OH231368   6.046   4.114   2.677 -0.0980  0.2391  0.1187
 3318TIP3    H131369   6.031   4.020   2.666  2.0210 -0.3267  1.4914
 3318TIP3    H231370   6.016   4.133   2.765 -1.6729  1.1672 -0.5838
 3319TIP3   OH231371   3.322   1.105   5.344  0.2658 -0.0369  0.4954
 3319TIP3    H131372   3.405   1.102   5.298 -0.2467 -1.5840 -0.3967
 3319TIP3    H231373   3.288   1.193   5.326  0.8339 -0.0508 -0.7592
 3320TIP3   OH231374   4.448   3.681  11.928  0.0219 -0.5677  0.2650
 3320TIP3    H131375   4.424   3.683  12.021  1.0695 -0.1024  0.5338
 3320TIP3    H231376   4.524   3.623  11.924 -1.6527 -2.9001 -0.7344
 3321TIP3   OH231377   5.633   0.415  10.806  0.2342 -0.2629 -0.3892
 3321TIP3    H131378   5.647   0.384  10.717  1.2984  2.3708 -1.2314
 3321TIP3    H231379   5.576   0.492  10.796  1.3098  0.7701  1.0426
 3322TIP3   OH231380   4.078   3.528  11.979  0.4617 -0.5228 -0.3482
 3322TIP3    H131381   3.988   3.531  12.010  0.3417 -0.5084 -0.6966
 3322TIP3    H231382   4.078   3.459  11.911  0.7062 -0.5103 -0.3620
 3323TIP3   OH231383   2.768   4.770  11.329 -0.6317  0.0251 -0.0374
 3323TIP3    H131384   2.718   4.751  11.250  0.5175  0.2119 -0.8316
 3323TIP3    H231385   2.806   4.686  11.355 -2.2611 -0.3628  1.2474
 3324TIP3   OH231386   5.138   2.166  14.335 -0.3573 -0.4339 -0.1242
 3324TIP3    H131387   5.056   2.198  14.298  0.3391  3.1817  1.0923
 3324TIP3    H231388   5.112   2.105  14.404 -1.8651 -1.1866 -1.3092
 3325TIP3   OH231389   2.733   6.207  16.732  0.1459  0.1926 -0.3313
 3325TIP3    H131390   2.726   6.128  16.679 -0.4364 -0.1309  0.2149
 3325TIP3    H231391   2.825   6.209  16.761  0.0766 -0.4707 -0.0608
 3326TIP3   OH231392   2.800   2.674   0.406 -0.6424 -0.5325  0.2810
 3326TIP3    H131393   2.707   2.650   0.413 -0.4575 -0.7669  2.5440
 3326TIP3    H231394   2.828   2.634   0.323 -2.1714 -1.8205  0.3332
 3327TIP3   OH231395   4.839   0.274  16.466  0.0508 -0.4297  0.2158
 3327TIP3    H131396   4.751   0.309  16.450 -0.1321 -0.5050  0.9764
 3327TIP3    H231397   4.892   0.351  16.488  0.1515 -0.3937 -0.1577
 3328TIP3   OH231398   6.459   0.061   4.434 -0.6852  0.1016  0.3416
 3328TIP3    H131399   6.458   0.144   4.481  1.9078  0.0616  0.5945
 3328TIP3    H231400   6.522   0.007   4.482  1.0749 -0.4090 -2.3227
 3329TIP3   OH231401   3.081   0.315  14.619  0.2564  0.4677 -0.7137
 3329TIP3    H131402   3.080   0.282  14.529  0.3217 -0.3197 -0.4285
 3329TIP3    H231403   3.162   0.365  14.625  1.1947 -1.0041 -0.5627
 3330TIP3   OH231404   0.725   2.154  16.619  0.0758 -0.4175  0.0713
 3330TIP3    H131405   0.650   2.209  16.640  0.6950 -0.1268  1.6088
 3330TIP3    H231406   0.710   2.128  16.528 -1.2793  0.5887 -0.0287
 3331TIP3   OH231407   1.555   6.396  13.836 -0.2148 -0.1405  0.3535
 3331TIP3    H131408   1.498   6.455  13.887  2.7143  2.1902  1.2128
 3331TIP3    H231409   1.579   6.327  13.898 -0.5315 -0.0229  0.6135
 3332TIP3   OH231410   1.226   1.342   3.967  0.2829  0.5337 -0.2901
 3332TIP3    H131411   1.313   1.304   3.959 -0.4198 -1.0286 -0.8729
 3332TIP3    H231412   1.199   1.361   3.877  0.1915  1.4695 -0.0818
 3333TIP3   OH231413   0.540   4.984  13.606 -0.3126  0.0495 -0.4378
 3333TIP3    H131414   0.513   4.899  13.572  0.6670 -0.3621 -0.2012
 3333TIP3    H231415   0.615   4.966  13.662 -0.7980  0.9335  0.5557
 3334TIP3   OH231416   5.975   1.796  17.110  0.5547  0.4477 -0.3263
 3334TIP3    H131417   5.882   1.796  17.085  0.0395 -1.3782  1.3315
 3334TIP3    H231418   6.012   1.720  17.066 -0.1128 -2.1448  3.1736
 3335TIP3   OH231419   2.452   1.101   3.988  0.4573  0.9201  0.1419
 3335TIP3    H131420   2.404   1.181   4.007  1.6431  1.7354 -0.1834
 3335TIP3    H231421   2.543   1.122   4.008  0.7570 -0.4353  0.3038
 3336TIP3   OH231422   1.718   3.996  11.892  0.3170  0.6816  0.2464
 3336TIP3    H131423   1.643   4.046  11.923 -1.2116 -0.7713 -0.8748
 3336TIP3    H231424   1.794   4.052  11.909 -0.7599  1.4214  3.1659
 3337TIP3   OH231425   1.156   5.835  15.274 -0.2249  0.3065  0.4889
 3337TIP3    H131426   1.121   5.899  15.212  0.4261  0.1167 -0.0895
 3337TIP3    H231427   1.105   5.848  15.354  0.9662  2.6628  0.9394
 3338TIP3   OH231428   0.542   5.002   4.761  0.4886  0.1357 -0.3486
 3338TIP3    H131429   0.592   5.044   4.691 -0.8912  1.1654 -0.7668
 3338TIP3    H231430   0.559   4.909   4.749  0.9668  0.3421 -1.5145
 3339TIP3   OH231431   4.601   2.686   1.858 -1.2196  0.1931  0.6315
 3339TIP3    H131432   4.680   2.686   1.911 -0.5479 -1.0854 -0.3238
 3339TIP3    H231433   4.542   2.625   1.902 -1.1677  0.1279  0.6092
 3340TIP3   OH231434   2.034   3.211  14.184 -0.0783  0.4894  0.0171
 3340TIP3    H131435   1.941   3.214  14.160 -0.4299 -2.1865  0.6861
 3340TIP3    H231436   2.036   3.156  14.262  2.1606 -0.5047 -0.6691
 3341TIP3   OH231437   2.649   0.741   4.840  0.2088  0.1254 -0.1456
 3341TIP3    H131438   2.699   0.734   4.921  1.0180  0.6006 -0.5849
 3341TIP3    H231439   2.675   0.825   4.803  0.5520 -0.4799 -1.3377
 3342TIP3   OH231440   0.271   4.736   3.643 -0.5028  0.3774  0.4047
 3342TIP3    H131441   0.222   4.773   3.570  1.4473  1.6098 -0.3809
 3342TIP3    H231442   0.330   4.807   3.670  1.6691 -1.3533  0.4916
 3343TIP3   OH231443   3.265   3.830  13.946  0.3226  0.1583 -0.4382
 3343TIP3    H131444   3.315   3.890  14.001  0.3193 -0.3966  0.1860
 3343TIP3    H231445   3.322   3.815  13.869  0.9497 -0.1529  0.0743
 3344TIP3   OH231446   2.698   4.404  11.799  0.0865 -0.0754  0.1189
 3344TIP3    H131447   2.606   4.376  11.799 -0.6537  2.1621 -0.7956
 3344TIP3    H231448   2.718   4.419  11.707  0.5490  1.8832  0.4999
 3345TIP3   OH231449   0.946   4.482  14.955 -0.1525  0.2056 -0.6275
 3345TIP3    H131450   0.994   4.554  14.997 -0.5051  0.2355 -0.2718
 3345TIP3    H231451   0.952   4.411  15.019 -0.9865  0.3589 -0.3732
 3346TIP3   OH231452   0.168   1.553  11.125  0.0477 -0.1675  0.5858
 3346TIP3    H131453   0.119   1.589  11.051 -2.7084  2.1440  3.2832
 3346TIP3    H231454   0.257   1.586  11.113 -0.6411  1.2525 -0.9732
 3347TIP3   OH231455   1.775   2.763  15.370  0.4550  0.3564  0.0728
 3347TIP3    H131456   1.819   2.847  15.382  0.8729 -0.0693  1.7569
 3347TIP3    H231457   1.836   2.699  15.408  1.7449 -1.2182 -4.0894
 3348TIP3   OH231458   6.665   1.232   0.725 -0.2830  1.0348  0.0925
 3348TIP3    H131459   6.731   1.231   0.795  0.4153 -0.1360 -0.5423
 3348TIP3    H231460   6.717   1.231   0.644 -1.0847  1.3984 -0.4355
 3349TIP3   OH231461   2.278   5.714  15.923  0.6161  0.1368 -0.3046
 3349TIP3    H131462   2.204   5.658  15.949  2.3278 -1.8473  0.5596
 3349TIP3    H231463   2.240   5.775  15.860 -1.6820 -1.0410 -0.1833
 3350TIP3   OH231464   2.555   6.646  14.935  0.3905  0.3453 -0.6146
 3350TIP3    H131465   2.483   6.686  14.886  1.1689  1.2704 -1.0319
 3350TIP3    H231466   2.583   6.714  14.996  1.1376  0.1159 -0.6958
 3351TIP3   OH231467   3.656   4.279  15.404 -0.2523  0.4379 -0.1348
 3351TIP3    H131468   3.583   4.218  15.392  0.3064  0.0171 -1.6909
 3351TIP3    H231469   3.693   4.255  15.489 -1.6253  0.3548  0.4625
 3352TIP3   OH231470   0.726   0.130  15.263  0.0460  0.3736 -0.0325
 3352TIP3    H131471   0.777   0.104  15.186  2.1447 -0.1999  1.4461
 3352TIP3    H231472   0.635   0.130  15.233  0.5328 -2.2015 -1.8946
 3353TIP3   OH231473   5.120   6.737   4.886  0.2042 -0.6133  0.1074
 3353TIP3    H131474   5.172   6.683   4.945  1.9664 -0.1446 -0.9191
 3353TIP3    H231475   5.148   6.710   4.798 -0.7189  0.2164 -0.4597
 3354TIP3   OH231476   6.511   4.353  15.390 -0.2621  0.2387 -0.0945
 3354TIP3    H131477   6.587   4.296  15.402 -0.7379 -0.4161 -0.1928
 3354TIP3    H231478   6.549   4.440  15.374  0.4603  0.0356  0.4543
 3355TIP3   OH231479   5.488   4.876  15.234 -0.1994 -0.6648 -0.1933
 3355TIP3    H131480   5.569   4.912  15.270 -0.3769 -0.3815 -0.0774
 3355TIP3    H231481   5.484   4.787  15.269  0.0472 -0.6714 -0.1769
 3356TIP3   OH231482   4.884   2.532   2.732 -0.4073 -0.1114  0.0755
 3356TIP3    H131483   4.914   2.612   2.689  1.0857 -1.1354 -0.8630
 3356TIP3    H231484   4.857   2.561   2.820  1.1042  1.2558  0.1266
 3357TIP3   OH231485   5.673   1.585  12.421 -0.3172  0.2898  0.3994
 3357TIP3    H131486   5.682   1.564  12.514 -0.2099 -2.3057 -0.1316
 3357TIP3    H231487   5.642   1.504  12.381 -0.9614  1.5346 -1.7544
 3358TIP3   OH231488   4.856   1.432   6.338 -0.4409  0.0190 -0.1272
 3358TIP3    H131489   4.873   1.523   6.311  0.2777  0.7533  2.4920
 3358TIP3    H231490   4.942   1.390   6.336 -0.5522 -0.2146  0.0039
 3359TIP3   OH231491   3.742   4.544   0.675 -0.1137  0.2050 -0.8149
 3359TIP3    H131492   3.771   4.584   0.757  0.5580  1.2287 -1.5222
 3359TIP3    H231493   3.689   4.612   0.633  0.1573 -0.0309 -1.5565
 3360TIP3   OH231494   2.650   6.090   0.295 -0.1159  0.0084 -0.0114
 3360TIP3    H131495   2.658   6.171   0.243 -0.1230  0.8620  1.2729
 3360TIP3    H231496   2.738   6.053   0.294 -0.0304  0.2145 -0.3378
 3361TIP3   OH231497   5.182   1.217   0.802  0.3933 -0.0590 -0.0010
 3361TIP3    H131498   5.202   1.284   0.737  0.5355  1.2676  1.3324
 3361TIP3    H231499   5.244   1.234   0.873 -0.8946 -0.3142  1.2316
 3362TIP3   OH231500   0.047   6.534  16.388 -0.6561  0.0777  0.7897
 3362TIP3    H131501   0.019   6.488  16.308 -2.3253  2.0591  0.1260
 3362TIP3    H231502   0.115   6.594  16.358 -2.0826  1.6464  0.5565
 3363TIP3   OH231503   3.941   5.833  17.134  0.3052 -0.5517 -0.2657
 3363TIP3    H131504   3.902   5.859  17.050 -1.0445 -1.2291  0.1158
 3363TIP3    H231505   4.001   5.904  17.156 -0.6082  0.4710 -0.9724
 3364TIP3   OH231506   4.284   6.394   4.004 -0.3224 -0.5630 -1.1376
 3364TIP3    H131507   4.353   6.328   4.009 -0.7127 -0.9197 -0.3502
 3364TIP3    H231508   4.259   6.395   3.912  0.7880 -0.3602 -1.4608
 3365TIP3   OH231509   1.239   4.051  11.556  0.5106  0.3434  0.0603
 3365TIP3    H131510   1.178   3.995  11.509  0.6911  1.2679 -1.3298
 3365TIP3    H231511   1.285   3.991  11.615 -0.6545 -0.6166  0.0314
 3366TIP3   OH231512   3.074   6.416  16.474 -0.3142 -0.1382 -0.3695
 3366TIP3    H131513   2.978   6.414  16.477 -0.3430  0.9549 -0.3517
 3366TIP3    H231514   3.097   6.342  16.417 -1.3164  1.2791 -2.7855
 3367TIP3   OH231515   3.298   1.980   3.539 -0.2060  0.2808 -0.2051
 3367TIP3    H131516   3.334   2.057   3.496  0.8324 -1.0817 -1.9429
 3367TIP3    H231517   3.368   1.914   3.531 -1.8966 -1.5304 -0.8749
 3368TIP3   OH231518   2.691   5.178  11.224  0.3239 -0.0477 -0.3101
 3368TIP3    H131519   2.724   5.265  11.200 -1.8967  0.4056 -2.0517
 3368TIP3    H231520   2.768   5.121  11.218  1.4893  1.4996 -0.7859
 3369TIP3   OH231521   1.905   4.768   5.576  0.9489 -0.1475 -0.3129
 3369TIP3    H131522   1.859   4.686   5.555  1.1536 -0.5170  0.6425
 3369TIP3    H231523   1.872   4.792   5.662  1.9268  0.0346  0.0186
 3370TIP3   OH231524   4.825   3.277  14.035  0.3734 -0.2584 -0.1984
 3370TIP3    H131525   4.913   3.241  14.034  0.1499 -1.0226  2.2015
 3370TIP3    H231526   4.768   3.202  14.022  0.0326  0.1191 -0.9578
 3371TIP3   OH231527   1.162   5.189   3.838  0.0612 -0.4933 -0.1419
 3371TIP3    H131528   1.136   5.097   3.832 -0.6524 -0.3811  0.9452
 3371TIP3    H231529   1.105   5.225   3.905 -0.0863  0.9032 -0.9879
 3372TIP3   OH231530   2.545   1.413  12.366 -0.1864 -0.0182  0.1237
 3372TIP3    H131531   2.495   1.485  12.327 -0.5653  0.1636  0.9273
 3372TIP3    H231532   2.635   1.429  12.336 -0.0643  1.4123  1.1237
 3373TIP3   OH231533   4.994   5.973  17.083 -0.0768 -0.2133  0.3625
 3373TIP3    H131534   4.917   6.009  17.126 -0.9082  0.4951 -1.5954
 3373TIP3    H231535   4.959   5.920  17.011  1.2399  1.0244 -1.2553
 3374TIP3   OH231536   6.766   6.017  14.651  0.2243  1.4359  0.5884
 3374TIP3    H131537   6.752   5.953  14.721  0.7087 -0.6872 -1.1463
 3374TIP3    H231538   6.800   6.094  14.696  1.2869 -0.1219  2.6392
 3375TIP3   OH231539   3.060   6.722  14.325  0.2496 -0.5735 -0.1321
 3375TIP3    H131540   3.062   6.731  14.230 -0.5609  1.7825  0.0009
 3375TIP3    H231541   2.972   6.691  14.344  0.4497 -1.1563 -0.1558
 3376TIP3   OH231542   3.494   6.676  10.604 -0.2859  0.3238  0.1498
 3376TIP3    H131543   3.497   6.706  10.513  1.9983 -0.7263 -0.1745
 3376TIP3    H231544   3.511   6.582  10.600 -1.3998  0.0147  1.6012
 3377TIP3   OH231545   1.309   0.792  13.341 -0.2113  0.2667 -0.0562
 3377TIP3    H131546   1.214   0.794  13.330 -0.1340 -0.3445 -0.9564
 3377TIP3    H231547   1.335   0.707  13.306  0.7889  0.8902 -0.8801
 3378TIP3   OH231548   1.796   4.125   6.281 -0.1681 -0.1470  0.1153
 3378TIP3    H131549   1.799   4.153   6.373 -1.5661 -2.0214  0.8194
 3378TIP3    H231550   1.888   4.121   6.254  0.3302 -0.3037  1.7075
 3379TIP3   OH231551   0.651   5.941  15.360  0.3376  0.4003 -0.3679
 3379TIP3    H131552   0.653   5.870  15.296 -2.3729  0.1837 -0.3341
 3379TIP3    H231553   0.597   5.907  15.432  1.0931  1.6033  0.8298
 3380TIP3   OH231554   1.142   6.439  17.116 -0.5943 -0.2524  0.3390
 3380TIP3    H131555   1.171   6.455  17.026  1.2291  0.4359  1.0098
 3380TIP3    H231556   1.219   6.405  17.161 -1.1419  0.4933  1.9180
 3381TIP3   OH231557   6.061   0.269   2.525  0.1009 -0.2585 -0.0102
 3381TIP3    H131558   6.139   0.281   2.470 -0.3533  0.5020 -0.5091
 3381TIP3    H231559   6.066   0.178   2.554  0.5268 -0.5933 -1.0680
 3382TIP3   OH231560   6.617   4.863   4.426 -0.5079 -0.1510  0.1782
 3382TIP3    H131561   6.648   4.789   4.373  0.3594  1.0526 -1.0845
 3382TIP3    H231562   6.697   4.909   4.453 -1.0211  0.2850  1.0081
 3383TIP3   OH231563   5.790   2.576   3.803  0.0875  0.9043  0.4166
 3383TIP3    H131564   5.743   2.647   3.847 -1.5979 -0.8320  1.6213
 3383TIP3    H231565   5.828   2.524   3.875  0.1232 -0.1418 -0.3296
 3384TIP3   OH231566   3.843   2.588   2.979 -0.5146 -0.0978 -0.0567
 3384TIP3    H131567   3.883   2.622   2.899 -2.3573  1.5635 -0.3564
 3384TIP3    H231568   3.828   2.495   2.961 -1.1222  0.2879 -1.7679
 3385TIP3   OH231569   5.822   5.128  11.420  0.2438 -0.0269  0.3627
 3385TIP3    H131570   5.746   5.084  11.383  1.8497 -1.3860 -1.5271
 3385TIP3    H231571   5.832   5.090  11.507 -0.4136 -0.8382  0.0988
 3386TIP3   OH231572   3.454   6.347   0.735 -0.0657  0.3526  0.5116
 3386TIP3    H131573   3.362   6.325   0.719 -0.6527  1.0277  2.6577
 3386TIP3    H231574   3.502   6.297   0.669 -2.0348  1.1750 -1.6815
 3387TIP3   OH231575   3.480   5.406  16.063  0.6814  0.3265  0.2471
 3387TIP3    H131576   3.507   5.464  16.134 -3.4715  1.5978  1.0904
 3387TIP3    H231577   3.499   5.455  15.983 -0.0410  1.6061  0.8254
 3388TIP3   OH231578   3.726   5.425  14.247  0.5007  0.1966  0.2889
 3388TIP3    H131579   3.740   5.427  14.342 -2.4002 -0.2833  0.8237
 3388TIP3    H231580   3.742   5.515  14.219  1.5531  0.3119  1.1955
 3389TIP3   OH231581   4.776   2.457   4.051 -0.2680 -0.1167  0.3353
 3389TIP3    H131582   4.788   2.456   3.956  0.1938  1.6723  0.3403
 3389TIP3    H231583   4.711   2.525   4.066 -2.0246 -1.8895  1.1806
 3390TIP3   OH231584   4.959   2.527   4.856  0.1978 -0.0351 -0.1931
 3390TIP3    H131585   5.010   2.450   4.832 -1.0742 -0.5708 -1.3115
 3390TIP3    H231586   4.877   2.518   4.808 -0.0706  1.9262 -0.2042
 3391TIP3   OH231587   3.110   3.627   5.508 -0.4708  0.0712 -0.2861
 3391TIP3    H131588   3.055   3.552   5.486 -1.6358  0.8771 -0.2333
 3391TIP3    H231589   3.196   3.590   5.526 -0.9920 -1.2304 -0.3914
 3392TIP3   OH231590   6.307   0.037   1.962 -0.5438  0.3117 -0.2806
 3392TIP3    H131591   6.388   0.077   1.995 -1.5528  0.9154  1.6332
 3392TIP3    H231592   6.290   0.082   1.880  1.5323 -0.4890 -1.2195
 3393TIP3   OH231593   4.914   1.419   2.761  0.4493  0.5489 -0.1636
 3393TIP3    H131594   4.949   1.394   2.847  1.1331  1.7697 -0.0702
 3393TIP3    H231595   4.845   1.483   2.781  0.1779  0.3660 -0.5005
 3394TIP3   OH231596   1.802   4.714  11.617 -0.4594  0.2377 -0.2636
 3394TIP3    H131597   1.818   4.747  11.705  1.5730  0.9955 -0.8786
 3394TIP3    H231598   1.793   4.792  11.563 -1.4481 -0.2236 -0.8122
 3395TIP3   OH231599   6.563   4.416  16.347 -0.3942  0.5378  0.5237
 3395TIP3    H131600   6.590   4.508  16.357  0.0225  0.3848  0.8330
 3395TIP3    H231601   6.640   4.374  16.308 -1.1908  0.6678 -1.2773
 3396TIP3   OH231602   1.391   4.308  16.418 -0.2620 -0.1628 -0.0488
 3396TIP3    H131603   1.337   4.305  16.497 -0.8272 -1.5804 -0.4447
 3396TIP3    H231604   1.480   4.322  16.450 -0.2725 -2.0846  0.9886
 3397TIP3   OH231605   1.443   1.415  15.692 -0.4436 -0.1569 -0.4474
 3397TIP3    H131606   1.532   1.430  15.660  0.5700 -2.2674  1.1518
 3397TIP3    H231607   1.433   1.477  15.764  0.2017 -0.6728  0.1048
 3398TIP3   OH231608   3.327   4.269   5.114 -0.5354  0.4928 -0.1098
 3398TIP3    H131609   3.386   4.344   5.107 -0.1306  0.1179 -0.9577
 3398TIP3    H231610   3.380   4.195   5.085 -1.3199  0.0937 -0.5538
 3399TIP3   OH231611   2.694   0.196  14.870  0.0992 -0.1243  0.2514
 3399TIP3    H131612   2.637   0.164  14.939 -0.3045 -1.1456 -0.5265
 3399TIP3    H231613   2.670   0.288  14.859 -0.6649 -0.2710  0.6420
 3400TIP3   OH231614   3.690   1.980  13.248  0.0787  0.0498 -0.3975
 3400TIP3    H131615   3.778   2.013  13.226  0.2074 -0.0907 -0.1097
 3400TIP3    H231616   3.682   1.899  13.199  1.4501 -1.7197  2.0689
 3401TIP3   OH231617   5.422   2.722  10.804  0.1955 -0.1256 -0.1560
 3401TIP3    H131618   5.410   2.650  10.866  0.7979 -0.5390 -0.5140
 3401TIP3    H231619   5.517   2.735  10.800  0.2165 -0.6401 -1.6025
 3402TIP3   OH231620   0.737   6.708   2.528 -0.2633 -0.4582  0.0726
 3402TIP3    H131621   0.662   6.714   2.588  0.7978  0.0034  1.3924
 3402TIP3    H231622   0.783   6.791   2.539  0.7614 -0.9596 -0.3040
 3403TIP3   OH231623   1.259   5.410  14.911  0.2005 -0.5986 -0.2456
 3403TIP3    H131624   1.284   5.397  15.003 -0.6085 -1.7105 -0.1609
 3403TIP3    H231625   1.342   5.410  14.864  1.0601  4.0119  0.8219
 3404TIP3   OH231626   3.620   6.389   3.955  0.1498  0.4290  0.2488
 3404TIP3    H131627   3.545   6.339   3.922  1.0239 -0.0069 -1.1431
 3404TIP3    H231628   3.600   6.403   4.048 -0.8826 -1.0904  0.2893
 3405TIP3   OH231629   4.576   3.149   5.411  0.4032  0.1004 -0.2821
 3405TIP3    H131630   4.629   3.218   5.371  0.7916 -0.2487 -0.3797
 3405TIP3    H231631   4.602   3.150   5.503 -0.3123  0.7401 -0.0783
 3406TIP3   OH231632   5.635   1.148  13.337 -0.0296 -0.1062  0.5004
 3406TIP3    H131633   5.566   1.197  13.293  0.2674  0.2503  0.4181
 3406TIP3    H231634   5.662   1.205  13.410 -1.3509 -1.2111  1.9175
 3407TIP3   OH231635   2.756   5.959  11.082  0.2071 -0.2194  1.1528
 3407TIP3    H131636   2.692   6.030  11.076  0.2769  0.0770  3.1340
 3407TIP3    H231637   2.715   5.885  11.038 -0.1476  0.8483 -0.3694
 3408TIP3   OH231638   2.117   3.710  15.483 -0.2711 -0.2982  0.4153
 3408TIP3    H131639   2.055   3.646  15.519 -0.7580 -0.3656 -0.5270
 3408TIP3    H231640   2.070   3.752  15.412  0.4305  0.3557  0.3215
 3409TIP3   OH231641   3.906   5.893  14.592  0.6470  0.6219 -0.7028
 3409TIP3    H131642   3.944   5.809  14.567  0.8697  1.2170 -2.4973
 3409TIP3    H231643   3.969   5.931  14.653  0.7115 -0.3443 -0.1519
 3410TIP3   OH231644   3.633   1.057   0.576 -0.0189  0.1022  0.2590
 3410TIP3    H131645   3.646   1.119   0.503  1.9739  0.0114  0.5074
 3410TIP3    H231646   3.538   1.061   0.593 -0.5826  0.0073 -2.4164
 3411TIP3   OH231647   6.200   4.593   1.972 -0.2410  0.1870  0.1916
 3411TIP3    H131648   6.217   4.564   2.062 -1.3559 -0.0869  0.3295
 3411TIP3    H231649   6.106   4.578   1.959 -0.1958  0.6983 -0.8503
 3412TIP3   OH231650   6.471   6.564  13.692 -0.4327 -0.3667 -0.0236
 3412TIP3    H131651   6.483   6.657  13.675 -1.4607 -0.3601 -0.8151
 3412TIP3    H231652   6.419   6.561  13.773 -1.0406 -0.2144 -0.3983
 3413TIP3   OH231653   6.601   2.925   1.008  0.2445  0.6028 -0.3408
 3413TIP3    H131654   6.526   2.913   0.950 -0.7215  0.5839  0.8770
 3413TIP3    H231655   6.609   3.019   1.020  0.7863  0.6414 -0.9021
 3414TIP3   OH231656   5.215   0.192  16.002  0.0260 -0.3906  0.1040
 3414TIP3    H131657   5.128   0.215  15.968 -0.3766 -1.0195  0.6665
 3414TIP3    H231658   5.196   0.142  16.082  0.8240 -3.0606 -1.2832
 3415TIP3   OH231659   3.134   2.571   3.535 -0.1170  0.2653  0.7347
 3415TIP3    H131660   3.149   2.549   3.627 -0.9772 -0.4132  0.7220
 3415TIP3    H231661   3.053   2.622   3.536  1.4818  3.0584  0.6929
 3416TIP3   OH231662   6.767   2.606  13.416 -0.0783  0.0236  0.7288
 3416TIP3    H131663   6.830   2.534  13.417  0.8898  0.8453  0.9198
 3416TIP3    H231664   6.763   2.636  13.506 -2.1442 -1.1437  1.0999
 3417TIP3   OH231665   4.299   1.701   2.594 -0.2217  0.0411 -0.4261
 3417TIP3    H131666   4.368   1.643   2.623  0.4891  0.5582 -1.0271
 3417TIP3    H231667   4.343   1.762   2.534 -0.9647  1.1034  0.0774
 3418TIP3   OH231668   1.731   1.536   5.868 -0.1470 -0.1618 -0.4142
 3418TIP3    H131669   1.783   1.492   5.935 -0.3895 -0.5741 -0.4910
 3418TIP3    H231670   1.696   1.614   5.912 -0.0853 -0.2861 -0.1436
 3419TIP3   OH231671   2.260   2.708  16.130 -0.0601  0.0546 -0.2187
 3419TIP3    H131672   2.192   2.758  16.085  0.8203 -0.6327 -2.4341
 3419TIP3    H231673   2.338   2.764  16.127  0.3100 -0.4702 -0.5827
 3420TIP3   OH231674   6.273   3.808  16.184 -0.3462  0.5617  0.4510
 3420TIP3    H131675   6.335   3.735  16.179  0.0269  0.8036  1.3760
 3420TIP3    H231676   6.293   3.851  16.267 -0.5802  1.7114 -0.0758
 3421TIP3   OH231677   5.345   2.645   6.322  0.1088  0.0345 -0.9661
 3421TIP3    H131678   5.294   2.623   6.400 -0.0558  0.6079 -0.9033
 3421TIP3    H231679   5.365   2.561   6.281 -1.4152 -0.1798 -1.3274
 3422TIP3   OH231680   5.725   4.541   4.746 -0.3272  0.1477  0.3459
 3422TIP3    H131681   5.694   4.590   4.670 -0.4541 -1.6416 -0.8090
 3422TIP3    H231682   5.664   4.563   4.816 -1.2101  0.5191 -0.5240
 3423TIP3   OH231683   6.427   0.022  13.880 -0.2013 -0.4193 -0.4463
 3423TIP3    H131684   6.462  -0.011  13.963  0.8070 -1.1549 -1.1415
 3423TIP3    H231685   6.342  -0.021  13.871 -0.9336  0.6745  0.8139
 3424TIP3   OH231686   4.103   0.435  11.297  0.5588 -0.3460 -0.2662
 3424TIP3    H131687   4.188   0.479  11.294  1.9423 -2.7652  0.5875
 3424TIP3    H231688   4.079   0.423  11.205  0.2811  1.8018 -0.5182
 3425TIP3   OH231689   3.267   4.407  12.026  0.4640 -0.2484 -0.5842
 3425TIP3    H131690   3.259   4.361  12.109 -1.0508  1.0815  0.0745
 3425TIP3    H231691   3.355   4.387  11.995  0.5734 -1.8554  0.6671
 3426TIP3   OH231692   0.794   1.900   3.608 -0.7830 -0.0516  0.4685
 3426TIP3    H131693   0.872   1.924   3.658  0.1912 -0.2480 -0.8846
 3426TIP3    H231694   0.806   1.807   3.589 -0.1565  0.3968 -1.6664
 3427TIP3   OH231695   2.667   6.034  14.491 -0.0372  0.1010 -0.0593
 3427TIP3    H131696   2.730   6.106  14.486 -0.0560  0.0701 -1.2268
 3427TIP3    H231697   2.708   5.964  14.440 -0.1471 -0.6248  0.8294
 3428TIP3   OH231698   1.828   1.079   5.169 -0.4578  0.5786 -0.2952
 3428TIP3    H131699   1.768   1.115   5.234 -0.6775 -2.2605  1.2378
 3428TIP3    H231700   1.876   1.010   5.216  1.0287 -0.0665 -2.5676
 3429TIP3   OH231701   5.021   6.559  15.569 -0.1385  0.0730  0.5598
 3429TIP3    H131702   5.067   6.574  15.652 -0.6904  1.2321  0.6791
 3429TIP3    H231703   4.949   6.622  15.570  0.0134  0.3102 -0.9218
 3430TIP3   OH231704   1.134   3.776   1.316 -0.4311 -0.0291  0.0017
 3430TIP3    H131705   1.123   3.842   1.384  0.9740  0.9984 -0.7035
 3430TIP3    H231706   1.221   3.739   1.333 -1.1914 -1.7387  0.3840
 3431TIP3   OH231707   0.691   0.860  11.705  0.0521  0.0791  0.0071
 3431TIP3    H131708   0.694   0.793  11.774 -0.7208 -0.7042 -0.6947
 3431TIP3    H231709   0.730   0.938  11.745  0.8335 -0.7437  0.8963
 3432TIP3   OH231710   1.028   3.376  14.903 -0.0430  0.5695 -0.5287
 3432TIP3    H131711   1.079   3.367  14.823  1.7597  1.3992  0.4574
 3432TIP3    H231712   0.996   3.466  14.901 -0.2181  0.5105 -0.4356
 3433TIP3   OH231713   6.522   2.998  11.751 -0.0137 -0.1841 -0.0999
 3433TIP3    H131714   6.510   3.011  11.845 -0.4397 -1.9728  0.1251
 3433TIP3    H231715   6.435   2.978  11.717 -0.2411  2.4399 -1.2874
 3434TIP3   OH231716   5.451   2.869  16.792 -0.6785 -0.0850  0.3994
 3434TIP3    H131717   5.483   2.942  16.846 -0.4922  2.0580 -2.3408
 3434TIP3    H231718   5.522   2.853  16.729 -0.7053 -2.7455  0.9589
 3435TIP3   OH231719   3.690   4.082  12.290  0.1583  0.6207 -0.2711
 3435TIP3    H131720   3.752   4.076  12.362 -0.4773 -1.1348  0.1883
 3435TIP3    H231721   3.626   4.013  12.308 -0.0854  0.2077 -2.4594
 3436TIP3   OH231722   5.931   3.610   4.208  0.3902 -0.2660 -0.4919
 3436TIP3    H131723   5.937   3.514   4.205 -2.3236 -0.5031 -1.6556
 3436TIP3    H231724   5.964   3.633   4.295 -0.0522 -2.4185  0.3226
 3437TIP3   OH231725   3.421   5.404  12.066  0.6882 -0.0963 -0.0822
 3437TIP3    H131726   3.422   5.308  12.068 -1.2197 -0.1602  2.1328
 3437TIP3    H231727   3.396   5.429  12.155 -2.8665  2.3216 -1.5285
 3438TIP3   OH231728   5.926   6.418  13.028  0.4140  0.0960  0.2269
 3438TIP3    H131729   5.858   6.446  13.090  0.2848 -1.8757  1.0553
 3438TIP3    H231730   5.879   6.400  12.947  0.2669  0.6969  0.1746
 3439TIP3   OH231731   2.837   5.980  13.458 -0.1601  0.0795 -0.1098
 3439TIP3    H131732   2.893   5.915  13.501 -2.0072 -0.8164  1.0250
 3439TIP3    H231733   2.763   5.930  13.425 -1.3696  1.5308  0.3379
 3440TIP3   OH231734   3.284   6.485   2.868 -0.4637 -0.6589  0.3237
 3440TIP3    H131735   3.333   6.518   2.793 -2.2726  1.9433  0.1383
 3440TIP3    H231736   3.334   6.514   2.944 -0.2611 -0.5294  0.1408
 3441TIP3   OH231737   1.212   0.663   5.947  0.6775  0.2376  0.2114
 3441TIP3    H131738   1.228   0.605   6.022 -1.7471  0.9629  1.3928
 3441TIP3    H231739   1.181   0.604   5.878  0.5237 -0.1541  0.6086
 3442TIP3   OH231740   2.177   2.227  11.944  0.4289 -0.3159  0.1937
 3442TIP3    H131741   2.159   2.321  11.943  2.8293  0.1872  0.2262
 3442TIP3    H231742   2.108   2.190  11.890 -2.1383  1.1032  2.1942
 3443TIP3   OH231743   2.118   2.472  11.288  0.4191 -0.2357  0.4455
 3443TIP3    H131744   2.046   2.532  11.309  0.7960 -0.6810  3.3953
 3443TIP3    H231745   2.176   2.476  11.364  2.2089 -1.8280 -0.7391
 3444TIP3   OH231746   6.126   5.104   4.503  0.3646  0.4561  0.4157
 3444TIP3    H131747   6.168   5.188   4.523  1.4763  0.2373 -0.8876
 3444TIP3    H231748   6.186   5.038   4.538 -0.7880  0.1685  1.9614
 3445TIP3   OH231749   5.526   0.697   0.743 -0.0005  0.0722 -1.4115
 3445TIP3    H131750   5.578   0.621   0.767  0.2561  0.0279 -2.0867
 3445TIP3    H231751   5.564   0.770   0.793 -1.6193 -0.5829  0.9863
 3446TIP3   OH231752   1.272   3.717   4.149 -0.6715  0.0906 -0.0161
 3446TIP3    H131753   1.322   3.743   4.226 -1.0323 -0.4338  0.4016
 3446TIP3    H231754   1.313   3.636   4.120 -1.4115 -0.4823  0.4793
 3447TIP3   OH231755   0.157   5.720  12.317  0.1701  0.2298 -0.5401
 3447TIP3    H131756   0.203   5.790  12.271 -0.0993  0.1975 -0.8612
 3447TIP3    H231757   0.154   5.749  12.408 -1.3415  1.3815 -0.9270
 3448TIP3   OH231758   1.767   6.654  11.311  0.4863  0.2836 -0.0010
 3448TIP3    H131759   1.811   6.731  11.276 -1.2046  1.6198  0.6355
 3448TIP3    H231760   1.820   6.628  11.387  1.2883  0.5667 -0.4573
 3449TIP3   OH231761   2.034   6.521   0.210  0.2685  0.7636  0.3605
 3449TIP3    H131762   1.953   6.478   0.239  1.4113 -1.9366 -0.0958
 3449TIP3    H231763   2.010   6.563   0.127 -0.8525  0.6945  0.6268
 3450TIP3   OH231764   2.126   0.734  13.227 -0.0012 -0.6207  0.4059
 3450TIP3    H131765   2.192   0.725  13.296 -1.7326 -0.8245  2.1392
 3450TIP3    H231766   2.132   0.653  13.176  1.9711 -0.0431 -0.3516
 3451TIP3   OH231767   4.762   4.105  13.640 -0.4028 -0.1250  0.1760
 3451TIP3    H131768   4.784   4.013  13.628  0.3551  0.2022 -1.1496
 3451TIP3    H231769   4.764   4.142  13.551 -1.4234  1.0089  0.5930
 3452TIP3   OH231770   5.744   2.887  16.940 -0.2193 -0.2351  0.5910
 3452TIP3    H131771   5.709   2.975  16.956 -1.4375 -0.4569 -0.6320
 3452TIP3    H231772   5.747   2.880  16.844  3.6367 -0.1223  0.5582
 3453TIP3   OH231773   4.417   2.791  13.377 -0.2381 -0.0763 -0.6178
 3453TIP3    H131774   4.424   2.805  13.283 -1.2457 -0.4433 -0.7618
 3453TIP3    H231775   4.457   2.869  13.416  0.5976 -0.1357 -1.3333
 3454TIP3   OH231776   0.584   5.830  12.728 -0.3886  0.4982 -0.1084
 3454TIP3    H131777   0.624   5.754  12.685 -1.9320 -0.9863  0.9725
 3454TIP3    H231778   0.627   5.905  12.687 -0.9530 -0.8190 -3.4098
 3455TIP3   OH231779   0.028   6.372  13.313 -0.1921 -0.0006  0.4913
 3455TIP3    H131780   0.039   6.281  13.342  1.9786  0.2292  0.5894
 3455TIP3    H231781   0.024   6.423  13.394 -1.3418  0.0271  0.4350
 3456TIP3   OH231782   4.128   4.333   0.863  0.1047  0.5044  0.1302
 3456TIP3    H131783   4.179   4.324   0.782  2.1869  2.0163  1.1502
 3456TIP3    H231784   4.085   4.249   0.874  0.0991  0.1028 -2.3001
 3457TIP3   OH231785   3.654   1.829  11.399 -0.5661  0.0905  0.0867
 3457TIP3    H131786   3.680   1.894  11.464 -2.2561  0.4662  0.4461
 3457TIP3    H231787   3.735   1.803  11.356  0.1563  2.4414 -0.0864
 3458TIP3   OH231788   4.860   4.331  11.379 -0.0483 -0.3499 -0.5100
 3458TIP3    H131789   4.796   4.268  11.346  0.8248 -1.7992  0.4501
 3458TIP3    H231790   4.910   4.357  11.302 -1.2181  0.1520 -1.1236
 3459TIP3   OH231791   4.656   0.897  16.573  0.4384  0.3088 -0.1895
 3459TIP3    H131792   4.572   0.934  16.548  0.6738  1.5883  0.8267
 3459TIP3    H231793   4.645   0.872  16.665  0.5986 -1.2868 -0.5653
 3460TIP3   OH231794   1.977   2.853   1.302  0.5103 -0.1671 -0.3579
 3460TIP3    H131795   1.886   2.829   1.284  0.5410  0.2261 -1.0892
 3460TIP3    H231796   1.979   2.873   1.395 -0.5777  1.6437 -0.6923
 3461TIP3   OH231797   1.417   4.103   5.706 -0.3728 -0.2885 -0.5838
 3461TIP3    H131798   1.342   4.093   5.764  0.1841  0.9966  0.4114
 3461TIP3    H231799   1.493   4.094   5.764  0.2742 -1.8051 -1.6046
 3462TIP3   OH231800   0.071   5.017  14.947  0.3583  0.0207  0.2054
 3462TIP3    H131801   0.145   4.959  14.927 -0.1244 -0.2094 -1.0410
 3462TIP3    H231802   0.019   5.017  14.866  0.5481  2.5043  0.0167
 3463TIP3   OH231803   1.437   2.350   6.651  0.1184  0.0435  0.2235
 3463TIP3    H131804   1.393   2.435   6.646 -1.1368 -0.6317 -0.6983
 3463TIP3    H231805   1.471   2.336   6.563 -0.5732 -0.8506  0.0811
 3464TIP3   OH231806   2.265   5.401   3.857 -0.4979  0.6656  0.0390
 3464TIP3    H131807   2.243   5.308   3.867 -0.2117  0.4490 -1.2084
 3464TIP3    H231808   2.292   5.428   3.945  0.9445 -0.8598  0.1266
 3465TIP3   OH231809   6.400   1.100   4.671  0.9310 -0.0448  0.2495
 3465TIP3    H131810   6.383   1.006   4.665 -2.2277  0.4162  0.3426
 3465TIP3    H231811   6.434   1.123   4.585 -2.7568 -0.6164 -1.5495
 3466TIP3   OH231812   3.795   2.346   3.863  0.2570 -0.4668 -0.5191
 3466TIP3    H131813   3.827   2.427   3.823  1.0038  0.1262  1.1780
 3466TIP3    H231814   3.874   2.301   3.892 -0.1737 -1.6619 -1.0995
 3467TIP3   OH231815   0.133   2.013   3.941  0.2550  0.3456 -0.3614
 3467TIP3    H131816   0.127   1.942   3.877  4.2185 -0.3592 -0.2348
 3467TIP3    H231817   0.127   2.093   3.889  3.3671 -0.2048 -1.7994
 3468TIP3   OH231818   3.601   0.148  12.893 -0.1952  0.2483  0.2641
 3468TIP3    H131819   3.663   0.219  12.913  1.6253 -0.9451 -0.9202
 3468TIP3    H231820   3.526   0.193  12.855  1.6143  1.5197 -2.1267
 3469TIP3   OH231821   1.114   1.406   1.196  0.1895  0.2446  0.6229
 3469TIP3    H131822   1.088   1.477   1.254  1.1447  0.5951  0.6330
 3469TIP3    H231823   1.199   1.431   1.163  0.0277 -0.3552 -0.2875
 3470TIP3   OH231824   1.126   2.479  12.419  0.0530 -0.3889  0.0850
 3470TIP3    H131825   1.032   2.497  12.423  0.3283  0.8638  1.9622
 3470TIP3    H231826   1.164   2.557  12.378  0.5128  0.2845  1.7246
 3471TIP3   OH231827   2.512   6.540  13.870  0.5387  0.2817  0.0341
 3471TIP3    H131828   2.529   6.490  13.791  1.7663 -0.4495  0.7387
 3471TIP3    H231829   2.420   6.564  13.864  0.2194 -1.0922 -0.8606
 3472TIP3   OH231830   6.575   5.461  12.986  0.3061 -0.0870 -0.1609
 3472TIP3    H131831   6.624   5.454  12.904 -1.4542 -0.2630 -1.2547
 3472TIP3    H231832   6.628   5.519  13.041  0.3192  2.1877 -2.3854
 3473TIP3   OH231833   4.306   2.890   4.805  0.0849 -0.5232 -0.6749
 3473TIP3    H131834   4.345   2.958   4.750  3.1856 -1.2810  0.3925
 3473TIP3    H231835   4.290   2.932   4.889  1.0210 -0.8140 -0.3391
 3474TIP3   OH231836   5.161   0.189   1.136 -0.0139  0.2998  0.0691
 3474TIP3    H131837   5.173   0.101   1.098 -0.7750  0.0826  0.3111
 3474TIP3    H231838   5.175   0.248   1.062  1.6913  0.0527  0.1551
 3475TIP3   OH231839   3.349   5.752   5.475 -0.0689  0.2225 -0.3280
 3475TIP3    H131840   3.307   5.812   5.537 -0.8961 -0.5745 -0.0967
 3475TIP3    H231841   3.364   5.806   5.397  0.5250  1.1015  0.3702
 3476TIP3   OH231842   3.416   5.647  13.058 -0.4026  0.0538 -0.3258
 3476TIP3    H131843   3.404   5.636  12.964 -0.0293 -0.2941 -0.3345
 3476TIP3    H231844   3.350   5.713  13.083  0.5509  1.3500 -1.0990
 3477TIP3   OH231845   1.619   1.092  12.593  0.2262 -0.2714 -0.4156
 3477TIP3    H131846   1.600   1.019  12.652  1.3212  0.1012  0.4352
 3477TIP3    H231847   1.657   1.159  12.650 -0.9580  1.0737 -1.1327
 3478TIP3   OH231848   5.010   4.733  15.490 -0.6353  0.7099 -0.4292
 3478TIP3    H131849   5.011   4.771  15.578 -0.9934  2.8359 -1.2648
 3478TIP3    H231850   5.102   4.733  15.463 -0.4530 -0.4956  0.1299
 3479TIP3   OH231851   4.000   5.843   5.560 -0.6900 -0.2267  0.2782
 3479TIP3    H131852   3.947   5.846   5.640  0.6794  1.8856  1.2007
 3479TIP3    H231853   4.004   5.934   5.530  0.1560 -0.7403 -1.3041
 3480TIP3   OH231854   3.377   1.234  13.978 -0.5017  0.3959 -0.0026
 3480TIP3    H131855   3.309   1.280  14.028 -0.1868  1.2282 -0.3195
 3480TIP3    H231856   3.341   1.227  13.890  0.3393  2.0575 -0.5233
 3481TIP3   OH231857   1.216   1.941   1.626 -0.0197  0.4300 -0.1593
 3481TIP3    H131858   1.304   1.935   1.664  0.6179  0.9612 -1.5056
 3481TIP3    H231859   1.191   1.850   1.611 -1.0534  0.0524  3.1099
 3482TIP3   OH231860   0.448   0.903  11.079  0.0074  0.4982 -0.1630
 3482TIP3    H131861   0.454   0.820  11.128  1.8481  1.9928  2.3503
 3482TIP3    H231862   0.375   0.949  11.121 -2.1329 -0.3669 -2.6403
 3483TIP3   OH231863   3.983   0.735  15.420 -0.0573 -0.2819  0.4235
 3483TIP3    H131864   4.053   0.716  15.482 -1.0386  3.2088  2.9357
 3483TIP3    H231865   3.991   0.829  15.403 -1.7222 -0.5432 -2.4609
 3484TIP3   OH231866   0.382   6.736   0.998  0.1356 -0.1954 -0.2904
 3484TIP3    H131867   0.303   6.790   1.000 -0.0027 -0.4035  0.5469
 3484TIP3    H231868   0.354   6.655   0.955 -0.6706 -1.0592  1.7342
 3485TIP3   OH231869   6.198   0.486  13.513  0.0114  0.3968  0.0403
 3485TIP3    H131870   6.198   0.485  13.417 -0.0629 -0.5606  0.0394
 3485TIP3    H231871   6.215   0.577  13.536  0.4260  0.5631 -0.8802
 3486TIP3   OH231872   5.833   2.170  10.785  0.5017  0.1576 -0.1110
 3486TIP3    H131873   5.781   2.094  10.758 -1.1841  0.7842  1.2016
 3486TIP3    H231874   5.772   2.243  10.782  1.6473  1.1665  0.2974
 3487TIP3   OH231875   4.710   6.747   5.777  0.9294 -0.4101  0.2041
 3487TIP3    H131876   4.667   6.690   5.841  0.1816 -1.7816 -1.4275
 3487TIP3    H231877   4.801   6.717   5.775  0.9995 -0.2469  0.7220
 3488TIP3   OH231878   1.264   1.156  11.425 -0.3329 -0.0551  0.3519
 3488TIP3    H131879   1.224   1.206  11.353 -0.4152  0.9071  1.0528
 3488TIP3    H231880   1.250   1.065  11.400  0.7598  0.2295 -1.4820
 3489TIP3   OH231881   2.599   4.329   1.960 -0.3211  0.2461 -0.2743
 3489TIP3    H131882   2.594   4.247   1.910 -0.9241  0.2844 -0.2745
 3489TIP3    H231883   2.509   4.348   1.985  0.0937 -0.4567  1.9479
 3490TIP3   OH231884   4.595   0.612  15.622 -0.1177 -0.1279 -0.3864
 3490TIP3    H131885   4.684   0.581  15.605  0.1178  0.4256 -0.1931
 3490TIP3    H231886   4.596   0.638  15.714 -0.4631 -0.0670 -0.3993
 3491TIP3   OH231887   1.783   5.711  16.480  0.1268  0.2269 -0.2269
 3491TIP3    H131888   1.807   5.690  16.390 -0.2562 -0.2938 -0.2124
 3491TIP3    H231889   1.867   5.717  16.527  0.3440  0.7552 -0.6599
 3492TIP3   OH231890   4.059   3.336  14.485 -0.4148 -0.4672 -0.1466
 3492TIP3    H131891   4.012   3.410  14.448  2.3964  1.4990 -0.0535
 3492TIP3    H231892   4.010   3.313  14.564 -2.5687 -0.2225 -1.3352
 3493TIP3   OH231893   4.564   1.630  15.525 -0.1491 -0.1129  0.5941
 3493TIP3    H131894   4.656   1.619  15.502 -0.2619  3.7425 -3.0403
 3493TIP3    H231895   4.563   1.698  15.592 -0.3618  0.2937  0.1822
 3494TIP3   OH231896   5.834   4.949   1.230  0.1099 -1.0260 -0.0134
 3494TIP3    H131897   5.911   4.956   1.173 -0.4653  0.2685 -0.6694
 3494TIP3    H231898   5.764   4.919   1.171 -0.5689  0.6336 -0.1071
 3495TIP3   OH231899   0.082   2.029  15.854  0.2883 -0.0959 -0.0412
 3495TIP3    H131900   0.098   2.089  15.926 -0.7221  1.5915 -1.1592
 3495TIP3    H231901   0.095   1.942  15.892 -1.5390  0.6395  2.5231
 3496TIP3   OH231902   3.384   3.195   6.856  0.1905  1.1578 -0.1702
 3496TIP3    H131903   3.339   3.130   6.802 -0.0195  0.4460  0.8295
 3496TIP3    H231904   3.314   3.244   6.898  0.3318  0.5467  0.8027
 3497TIP3   OH231905   5.614   1.682  11.806 -0.1388  0.0263 -0.1254
 3497TIP3    H131906   5.663   1.724  11.736 -0.2880  1.8706  0.8369
 3497TIP3    H231907   5.585   1.753  11.862 -0.2532 -1.3764  1.6838
 3498TIP3   OH231908   1.597   6.628   3.051 -0.4971  0.1307  0.3570
 3498TIP3    H131909   1.531   6.560   3.066 -2.3682  1.9095  0.7516
 3498TIP3    H231910   1.616   6.662   3.139 -0.6642  1.0246  0.0578
 3499TIP3   OH231911   1.419   1.731  15.542 -0.5207 -0.4738 -0.1975
 3499TIP3    H131912   1.362   1.656  15.554 -0.5838 -0.9303 -2.7641
 3499TIP3    H231913   1.506   1.700  15.567 -0.9293 -0.5822  1.1684
 3500TIP3   OH231914   4.475   6.593   4.515 -0.3091 -0.1605 -0.1519
 3500TIP3    H131915   4.561   6.603   4.474 -0.5429  0.0166 -0.6041
 3500TIP3    H231916   4.491   6.535   4.590  0.4420  0.8887  0.5304
 3501TIP3   OH231917   6.097   2.062  17.108 -0.3462 -0.1568 -0.0035
 3501TIP3    H131918   6.187   2.046  17.080  0.4117 -1.6624  2.9070
 3501TIP3    H231919   6.056   1.976  17.107 -0.8420  0.0429  1.5168
 3502TIP3   OH231920   1.192   3.788  16.643 -0.2314  0.4783 -0.2672
 3502TIP3    H131921   1.242   3.870  16.651  1.3400 -0.5432  1.1705
 3502TIP3    H231922   1.231   3.743  16.568 -0.6729  0.7687 -0.6714
 3503TIP3   OH231923   6.710   5.678   3.735  0.1840 -0.1431  0.2287
 3503TIP3    H131924   6.796   5.663   3.697  0.8538  2.4736  0.5631
 3503TIP3    H231925   6.650   5.634   3.675  1.7153 -2.5067  0.2921
 3504TIP3   OH231926   5.247   4.625  16.972  0.3664  0.0625  0.3200
 3504TIP3    H131927   5.182   4.608  17.040  0.0144  0.7423  0.1515
 3504TIP3    H231928   5.295   4.542  16.965 -3.0522 -1.9493 -2.4149
 3505TIP3   OH231929   5.534   1.139   0.454 -0.5676  0.1335 -0.0666
 3505TIP3    H131930   5.543   1.225   0.411 -1.6589  0.2984  0.0167
 3505TIP3    H231931   5.583   1.079   0.398  1.8065  1.0912  0.8334
 3506TIP3   OH231932   5.725   3.723   3.057  0.2592  0.0606 -0.2147
 3506TIP3    H131933   5.764   3.636   3.055  0.2367  0.0519 -2.1451
 3506TIP3    H231934   5.632   3.707   3.042 -0.0013  0.3264  1.0234
 3507TIP3   OH231935   4.144   3.691  12.411  0.3724  0.2755 -0.3442
 3507TIP3    H131936   4.231   3.652  12.417  0.8024  1.4112  1.3531
 3507TIP3    H231937   4.153   3.758  12.342  0.2507 -0.9547 -1.6079
 3508TIP3   OH231938   0.245   4.428   6.378  0.3366 -0.3222  0.4076
 3508TIP3    H131939   0.283   4.492   6.438 -0.8338  0.6890  0.1145
 3508TIP3    H231940   0.318   4.401   6.322  0.7560  1.1880  0.1743
 3509TIP3   OH231941   5.550   5.051   4.063  0.2598  0.1413 -0.0597
 3509TIP3    H131942   5.639   5.033   4.091  0.5354  0.9097 -0.4013
 3509TIP3    H231943   5.525   5.130   4.111  0.4791  1.0633 -1.3901
 3510TIP3   OH231944   5.654   5.271   4.491 -0.6418  0.1622  0.3989
 3510TIP3    H131945   5.609   5.210   4.433  0.4736  0.2120 -0.5765
 3510TIP3    H231946   5.591   5.292   4.559 -1.4821 -1.0756  0.0276
 3511TIP3   OH231947   1.071   5.865   3.514  0.2910  0.4753 -0.0247
 3511TIP3    H131948   1.029   5.823   3.589 -0.5887  0.9261 -0.2585
 3511TIP3    H231949   0.999   5.889   3.456  0.7483  2.4496  0.1659
 3512TIP3   OH231950   2.687   5.765  13.022 -0.2686  0.6878 -0.2072
 3512TIP3    H131951   2.620   5.746  13.087 -0.6453 -1.1159 -1.0456
 3512TIP3    H231952   2.640   5.771  12.940  0.6351 -2.2589 -1.0828
 3513TIP3   OH231953   5.980   5.655  15.122 -0.3681 -0.4840 -0.2942
 3513TIP3    H131954   6.058   5.701  15.090  0.0217 -1.9649 -1.6066
 3513TIP3    H231955   6.003   5.628  15.211  0.4883 -0.5778 -0.5342
 3514TIP3   OH231956   0.937   4.587   0.200  0.1505  0.0811 -0.0187
 3514TIP3    H131957   0.879   4.527   0.153  0.4045 -0.4238  0.3055
 3514TIP3    H231958   0.896   4.599   0.285 -1.0752  2.1330 -0.8220
 3515TIP3   OH231959   0.628   5.756  15.653 -0.3251 -0.1840  0.1196
 3515TIP3    H131960   0.605   5.750  15.746  2.6700 -1.6690  0.8783
 3515TIP3    H231961   0.641   5.850  15.638  0.3070 -0.0090  1.5415
 3516TIP3   OH231962   2.992   4.025   1.953 -0.1967 -0.4163 -0.0848
 3516TIP3    H131963   3.077   4.055   1.985 -0.5158  0.0826  0.2940
 3516TIP3    H231964   2.941   4.007   2.032 -0.7424  0.1257 -0.3137
 3517TIP3   OH231965   5.160   3.942   0.425 -0.4038 -0.3426  0.3303
 3517TIP3    H131966   5.187   4.034   0.432 -0.3233 -0.2463 -0.9767
 3517TIP3    H231967   5.097   3.930   0.496  0.3250  0.4508  1.1304
 3518TIP3   OH231968   3.863   5.411  13.531  0.1452 -0.0380 -0.3249
 3518TIP3    H131969   3.827   5.495  13.503 -1.4908 -0.2579  0.9635
 3518TIP3    H231970   3.787   5.361  13.559  1.1067 -1.9314 -0.9570
 3519TIP3   OH231971   1.788   6.132  11.184  0.5830 -0.4687 -0.1496
 3519TIP3    H131972   1.853   6.123  11.253  0.1977 -1.7831  0.0616
 3519TIP3    H231973   1.707   6.101  11.223 -0.0622  0.6159 -0.5927
 3520TIP3   OH231974   0.450   0.767  16.947 -0.0794  0.0337  0.2105
 3520TIP3    H131975   0.523   0.795  17.003  0.3169  0.7753 -0.6511
 3520TIP3    H231976   0.458   0.672  16.943  1.6414  0.1847 -0.9090
 3521TIP3   OH231977   2.206   2.208  13.008  0.0544  0.3925 -0.3022
 3521TIP3    H131978   2.286   2.167  13.038 -0.0567 -1.3854 -2.2127
 3521TIP3    H231979   2.232   2.298  12.985  1.7131 -0.3618 -1.5950
 3522TIP3   OH231980   3.702   0.224  14.142  0.3820 -0.5497 -0.1735
 3522TIP3    H131981   3.726   0.194  14.230  1.1058 -1.0677 -0.5450
 3522TIP3    H231982   3.785   0.244  14.099 -0.0565  1.8000 -0.0360
 3523TIP3   OH231983   0.639   2.645  17.154 -0.5940  0.0050 -0.4148
 3523TIP3    H131984   0.692   2.631  17.232  1.3616 -0.4668 -1.7687
 3523TIP3    H231985   0.685   2.598  17.084 -2.5219  0.0240 -1.7844
 3524TIP3   OH231986   1.935   1.875  11.854 -0.1091 -0.2315 -0.0262
 3524TIP3    H131987   1.923   1.962  11.814 -1.0675  0.6026  1.9028
 3524TIP3    H231988   1.849   1.833  11.845 -0.0300 -0.4480  0.2189
 3525TIP3   OH231989   3.428   4.617  15.894 -0.4163 -0.1359 -0.2044
 3525TIP3    H131990   3.500   4.568  15.855 -0.3625  0.8837 -1.4721
 3525TIP3    H231991   3.466   4.703  15.913 -0.7631 -0.2448  1.0455
 3526TIP3   OH231992   3.842   2.252  15.041  0.2229  0.2416  0.2523
 3526TIP3    H131993   3.924   2.301  15.027 -0.2002  0.9546  0.2180
 3526TIP3    H231994   3.831   2.252  15.136  0.1673  0.3113  0.2463
 3527TIP3   OH231995   3.225   6.254  16.281  0.1518  0.1905  0.3773
 3527TIP3    H131996   3.166   6.285  16.213  1.9067  0.1454 -1.2237
 3527TIP3    H231997   3.276   6.185  16.240  1.7945  0.6859  1.4600
 3528TIP3   OH231998   1.049   1.824   1.201 -0.1555 -0.1255  0.5061
 3528TIP3    H131999   1.033   1.895   1.263  0.8254  0.5657 -0.0134
 3528TIP3    H232000   1.130   1.848   1.157  1.9333 -3.0422  2.4064
 3529TIP3   OH232001   1.423   2.121   5.685  0.2613  0.1929  0.2538
 3529TIP3    H132002   1.391   2.194   5.737  0.3743  1.4243 -1.3127
 3529TIP3    H232003   1.498   2.087   5.733  1.2359  2.1921  0.2294
 3530TIP3   OH232004   3.460   6.785   0.313 -0.1218  0.6788 -0.4552
 3530TIP3    H132005   3.522   6.728   0.267 -1.1754 -2.9778  2.2727
 3530TIP3    H232006   3.374   6.760   0.279 -0.5232  1.8015 -0.3044
 3531TIP3   OH232007   2.705   0.167   6.717 -0.0666 -0.3231  0.2195
 3531TIP3    H132008   2.730   0.076   6.731 -1.7338 -0.8526 -0.1217
 3531TIP3    H232009   2.714   0.181   6.623  0.8513  0.0948  0.3537
 3532TIP3   OH232010   2.919   6.240   0.455  0.2963 -0.1962  0.2955
 3532TIP3    H132011   2.839   6.217   0.501  0.6757 -1.2951  0.4306
 3532TIP3    H232012   2.913   6.335   0.441 -0.9805 -0.2598  0.3622
 3533TIP3   OH232013   4.433   2.108  11.748  0.0574 -0.6101  0.2813
 3533TIP3    H132014   4.383   2.125  11.668  2.4104 -0.0667 -1.2099
 3533TIP3    H232015   4.457   2.015  11.742  0.6627 -0.4490  0.0396
 3534TIP3   OH232016   6.759   5.841   6.432 -0.0617  0.5049 -0.3455
 3534TIP3    H132017   6.849   5.864   6.453  0.6610 -0.4148 -2.2015
 3534TIP3    H232018   6.707   5.911   6.471  1.5681  1.9166 -0.5821
 3535TIP3   OH232019   0.259   1.305   3.392  0.0425 -0.4035 -0.4125
 3535TIP3    H132020   0.238   1.225   3.441 -0.5555  0.7295  1.2474
 3535TIP3    H232021   0.215   1.375   3.439  2.7906  1.3215 -0.1903
 3536TIP3   OH232022   5.564   5.696  16.824  0.1308  0.2633 -0.0622
 3536TIP3    H132023   5.536   5.659  16.740 -1.4138  0.3602  0.3867
 3536TIP3    H232024   5.555   5.790  16.812  3.2340  0.5688 -0.9088
 3537TIP3   OH232025   4.093   0.139   5.243 -0.2142 -0.5636  0.0252
 3537TIP3    H132026   4.150   0.132   5.167 -0.6289 -1.4943 -0.2152
 3537TIP3    H232027   4.020   0.194   5.214 -1.3653 -2.4972 -0.9014
 3538TIP3   OH232028   2.773   3.181   1.661 -0.5201  0.0615  1.3046
 3538TIP3    H132029   2.818   3.130   1.728 -0.5504 -0.5737  0.8488
 3538TIP3    H232030   2.715   3.118   1.617 -0.4799  0.4596  0.6654
 3539TIP3   OH232031   3.362   6.302  15.634  0.2744 -0.5708 -0.6738
 3539TIP3    H132032   3.390   6.379  15.583  0.1228 -0.5755 -0.7649
 3539TIP3    H232033   3.442   6.271  15.676  0.4526 -0.7185 -1.1154
 3540TIP3   OH232034   1.771   6.764   4.052 -0.4934  0.7288  0.0274
 3540TIP3    H132035   1.813   6.845   4.023 -0.0121  0.6883  0.6032
 3540TIP3    H232036   1.682   6.769   4.016 -0.4665  1.5083  0.0580
 3541TIP3   OH232037   5.388   5.324  14.120 -0.2882  0.0612 -0.4043
 3541TIP3    H132038   5.351   5.389  14.180 -1.7024 -1.6256  0.6506
 3541TIP3    H232039   5.312   5.275  14.089  0.8836 -3.0798  1.2710
 3542TIP3   OH232040   0.489   4.320  11.277 -0.0106  0.1772  0.1230
 3542TIP3    H132041   0.500   4.361  11.192  0.0290  1.5180  0.7505
 3542TIP3    H232042   0.563   4.353  11.329 -1.4313  1.4465  1.4330
 3543TIP3   OH232043   0.804   5.627  12.114 -0.0527  0.2764 -0.1530
 3543TIP3    H132044   0.735   5.561  12.128  0.9367 -0.3309  2.3442
 3543TIP3    H232045   0.878   5.595  12.164  0.9649  2.5901 -0.0718
 3544TIP3   OH232046   0.588   4.872   1.428 -0.1660 -0.4268  0.2947
 3544TIP3    H132047   0.683   4.879   1.437 -0.4236  2.0859  2.0893
 3544TIP3    H232048   0.561   4.954   1.389 -1.6715 -0.8003  0.4928
 3545TIP3   OH232049   4.659   0.545  11.518  0.2181 -0.0816  0.2787
 3545TIP3    H132050   4.640   0.544  11.424  0.1829  0.4315  0.2771
 3545TIP3    H232051   4.603   0.613  11.553  0.6681  0.1417  0.5770
 3546TIP3   OH232052   1.672   1.856  12.558 -0.4515 -0.2437 -0.1122
 3546TIP3    H132053   1.764   1.859  12.533  0.1341 -0.0098  1.9224
 3546TIP3    H232054   1.642   1.947  12.547 -0.0121  0.0040  0.6565
 3547TIP3   OH232055   5.172   4.520   5.090  0.3527  0.4153  0.9160
 3547TIP3    H132056   5.201   4.435   5.124 -1.1779  0.0393  1.3770
 3547TIP3    H232057   5.135   4.565   5.166 -1.1224  0.4545  0.2220
 3548TIP3   OH232058   5.295   1.864   2.439 -0.6396 -0.1790 -0.3608
 3548TIP3    H132059   5.293   1.957   2.460 -0.9034 -0.0373 -0.9824
 3548TIP3    H232060   5.348   1.825   2.508  0.7595  0.6514 -0.9217
 3549TIP3   OH232061   2.767   6.721   3.137  0.2889  0.0560 -0.2041
 3549TIP3    H132062   2.689   6.752   3.090  1.0708 -1.3061 -2.5558
 3549TIP3    H232063   2.841   6.759   3.089  1.1258 -0.8692  0.3134
 3550TIP3   OH232064   2.681   1.326  15.084 -0.1070 -0.6012  0.3059
 3550TIP3    H132065   2.662   1.420  15.079  0.7323 -0.4286  0.3349
 3550TIP3    H232066   2.659   1.302  15.174 -2.8830 -1.0193 -0.3728
 3551TIP3   OH232067   1.196   3.473   3.204 -0.2677 -0.0122  0.2588
 3551TIP3    H132068   1.206   3.551   3.258  0.7014 -0.4631  0.7472
 3551TIP3    H232069   1.111   3.437   3.230 -0.6308  0.7684  0.1691
 3552TIP3   OH232070   0.023   0.975   1.124 -0.2282 -0.3472 -0.2457
 3552TIP3    H132071   0.025   1.006   1.033 -0.9972  0.3981 -0.0215
 3552TIP3    H232072   0.097   0.915   1.130 -0.0978 -0.3260 -1.3361
 3553TIP3   OH232073   1.642   6.142  11.531  0.2455 -0.3125 -0.2273
 3553TIP3    H132074   1.657   6.053  11.500 -0.6611 -0.3475 -0.5951
 3553TIP3    H232075   1.658   6.197  11.454  0.1894 -0.2127 -0.1679
 3554TIP3   OH232076   5.927   1.745   0.587  0.2262 -0.0216 -0.8305
 3554TIP3    H132077   5.948   1.694   0.509 -0.4698  0.6304 -1.4675
 3554TIP3    H232078   5.959   1.833   0.567 -0.7992  0.3748 -0.7890
 3555TIP3   OH232079   1.535   0.614   4.354  0.0603  0.3949 -0.2776
 3555TIP3    H132080   1.473   0.652   4.291 -1.0131  0.4426  0.7871
 3555TIP3    H232081   1.539   0.677   4.426  0.4268 -0.1860  0.2220
 3556TIP3   OH232082   1.616   0.019   3.643  0.0787  0.4022  0.3691
 3556TIP3    H132083   1.705   0.015   3.678  0.6723 -1.8221 -1.1569
 3556TIP3    H232084   1.561  -0.015   3.713  0.7223 -0.2791  0.5583
 3557TIP3   OH232085   2.196   3.949  11.428  0.6056 -0.3380 -0.2256
 3557TIP3    H132086   2.206   4.024  11.370 -1.2989 -0.5276 -0.8489
 3557TIP3    H232087   2.283   3.938  11.468  0.9829  2.0315 -0.2780
 3558TIP3   OH232088   5.616   4.510  14.628  0.3618  0.1605 -0.1280
 3558TIP3    H132089   5.693   4.466  14.593 -1.0240 -1.7077 -1.0831
 3558TIP3    H232090   5.543   4.456  14.598 -1.1612 -0.0943  3.4810
 3559TIP3   OH232091   4.686   1.743  12.291  0.0167  0.1159 -0.1812
 3559TIP3    H132092   4.754   1.727  12.227  1.9814  0.1366  1.7730
 3559TIP3    H232093   4.688   1.666  12.348 -3.0881 -0.8931 -1.2044
 3560TIP3   OH232094   6.199   1.843  15.452  0.1625 -0.1892  0.7662
 3560TIP3    H132095   6.192   1.757  15.409 -0.4700  0.6812 -0.9664
 3560TIP3    H232096   6.119   1.850  15.504 -1.2825  0.5116 -1.4192
 3561TIP3   OH232097   1.459   4.221   2.576 -0.6438  0.1076 -0.7901
 3561TIP3    H132098   1.394   4.288   2.597 -0.3913  0.2855 -0.5814
 3561TIP3    H232099   1.416   4.166   2.510 -2.1160 -1.4761  1.3712
 3562TIP3   OH232100   2.887   6.477   3.127 -0.6026 -0.2181 -0.7786
 3562TIP3    H132101   2.978   6.494   3.103 -0.1584 -1.6357 -0.1879
 3562TIP3    H232102   2.848   6.564   3.137  0.3754  0.4092 -2.1442
 3563TIP3   OH232103   5.505   1.949   4.923 -0.0335  0.2390  0.3748
 3563TIP3    H132104   5.571   1.937   4.991  1.2691  1.4072 -0.6183
 3563TIP3    H232105   5.462   1.864   4.916  0.9292 -0.3686  1.4933
 3564TIP3   OH232106   5.710   1.730   0.126 -0.0619  0.7883 -0.2535
 3564TIP3    H132107   5.715   1.777   0.043  2.4706 -1.1719 -1.3435
 3564TIP3    H232108   5.729   1.639   0.103 -0.1910  0.0166  2.3781
 3565TIP3   OH232109   3.640   6.699  15.162  0.2355 -0.1917  0.2971
 3565TIP3    H132110   3.549   6.683  15.139  0.0038 -0.3898  1.3090
 3565TIP3    H232111   3.663   6.627  15.221  0.6810  0.4889  0.9773
 3566TIP3   OH232112   1.280   3.463  11.826  0.1382 -0.6323  0.4778
 3566TIP3    H132113   1.306   3.386  11.775 -1.2076 -1.3835  0.8908
 3566TIP3    H232114   1.297   3.439  11.917  2.2403  0.5934  0.4819
 3567TIP3   OH232115   1.569   1.667   2.886 -0.3894 -0.0621  0.6777
 3567TIP3    H132116   1.642   1.646   2.828 -0.7512 -0.8821  0.4900
 3567TIP3    H232117   1.530   1.745   2.849  0.4347  0.4278  0.8254
 3568TIP3   OH232118   3.752   6.668  12.328  0.3241 -0.3085  0.2900
 3568TIP3    H132119   3.816   6.734  12.301 -2.4469  1.9292 -1.3501
 3568TIP3    H232120   3.733   6.620  12.248  0.9438 -1.9636  1.0906
 3569TIP3   OH232121   3.134   1.254   4.736  0.0120  0.0115  0.2452
 3569TIP3    H132122   3.143   1.170   4.781 -1.0921 -1.1675 -1.6218
 3569TIP3    H232123   3.123   1.232   4.644 -0.6190  2.1927 -0.2710
 3570TIP3   OH232124   5.136   3.584  12.772 -0.5178 -0.7119  0.2603
 3570TIP3    H132125   5.056   3.591  12.720 -0.7575 -1.0622  0.5773
 3570TIP3    H232126   5.174   3.672  12.771  0.1181 -0.9609 -1.5118
 3571TIP3   OH232127   4.609   6.636  11.043  0.2838  0.9558  0.3624
 3571TIP3    H132128   4.668   6.561  11.031  1.8288  1.9372  1.3377
 3571TIP3    H232129   4.558   6.641  10.962  1.1584 -0.2935 -0.2904
 3572TIP3   OH232130   1.806   4.891  14.869 -0.2011  0.1011 -0.1203
 3572TIP3    H132131   1.788   4.887  14.963 -0.2036 -0.0197 -0.1270
 3572TIP3    H232132   1.894   4.928  14.863  0.0347 -0.4485 -0.0516
 3573TIP3   OH232133   5.442   4.202  10.661  0.0679  0.2155 -0.2498
 3573TIP3    H132134   5.444   4.280  10.717 -0.0777 -0.3257  0.5194
 3573TIP3    H232135   5.363   4.156  10.688 -0.8546  0.7029 -1.9571
 3574TIP3   OH232136   1.958   1.294  16.584  0.4749  0.0167  0.6924
 3574TIP3    H132137   1.882   1.311  16.639  0.6552 -1.2423  1.3658
 3574TIP3    H232138   1.963   1.370  16.526 -2.4698 -0.7458 -0.7300
 3575TIP3   OH232139   2.920   4.029   5.351 -0.1376  0.2562 -0.0250
 3575TIP3    H132140   2.969   4.077   5.418  0.6752 -0.8047  0.1760
 3575TIP3    H232141   2.985   4.007   5.285 -0.9402  1.3237 -1.2203
 3576TIP3   OH232142   4.732   5.315   0.967 -0.4034 -0.2097 -0.0834
 3576TIP3    H132143   4.700   5.243   1.022 -0.6286  0.2826  0.4324
 3576TIP3    H232144   4.653   5.356   0.931 -0.2719 -0.2670 -0.4487
 3577TIP3   OH232145   1.293   3.774  11.659  0.3315 -0.2121 -0.0976
 3577TIP3    H132146   1.376   3.803  11.696  1.2141 -1.9234 -0.6170
 3577TIP3    H232147   1.264   3.703  11.718  0.3062 -1.0150 -1.0495
 3578TIP3   OH232148   5.686   5.512  12.393  0.4641  1.0880 -0.1899
 3578TIP3    H132149   5.604   5.494  12.440  0.0958 -0.6173 -1.3718
 3578TIP3    H232150   5.744   5.550  12.459 -0.6061  0.4112  1.1927
 3579TIP3   OH232151   4.255   0.725  15.869  0.1281 -0.2856 -0.4872
 3579TIP3    H132152   4.265   0.673  15.948  2.0067  0.0737 -0.4533
 3579TIP3    H232153   4.185   0.787  15.890  1.0369  0.2519  1.1651
 3580TIP3   OH232154   5.516   3.191   2.828  0.3757  0.4638 -0.1028
 3580TIP3    H132155   5.574   3.124   2.790 -0.6436  0.3432 -1.5256
 3580TIP3    H232156   5.474   3.232   2.752  0.4406  2.2583  0.7714
 3581TIP3   OH232157   0.657   6.517   3.101 -0.3654  0.1737  0.4544
 3581TIP3    H132158   0.610   6.570   3.166 -0.2136  0.0626  0.6557
 3581TIP3    H232159   0.644   6.427   3.131 -2.3707 -0.1021 -0.9981
 3582TIP3   OH232160   2.078   2.791  16.677  0.7601 -0.1221  0.1935
 3582TIP3    H132161   2.168   2.805  16.648  0.5327 -0.2139 -0.5686
 3582TIP3    H232162   2.041   2.729  16.614  0.3169 -0.4879  0.7966
 3583TIP3   OH232163   0.839   2.462   3.166 -0.2582 -0.7240 -0.2822
 3583TIP3    H132164   0.913   2.520   3.181 -2.6889  2.6811 -0.2460
 3583TIP3    H232165   0.836   2.406   3.244  1.9106 -0.6692 -0.0956
 3584TIP3   OH232166   5.480   0.791  16.394  0.0446  0.3556 -0.2490
 3584TIP3    H132167   5.478   0.817  16.486  0.4890  0.0882 -0.1591
 3584TIP3    H232168   5.399   0.741  16.381  0.7040 -0.9383  0.4121
 3585TIP3   OH232169   0.990   5.789  14.554  0.0255  0.0090  0.8033
 3585TIP3    H132170   0.974   5.741  14.472  1.2388  0.0065  0.5608
 3585TIP3    H232171   1.066   5.746  14.593 -0.2209  0.3477  1.6824
 3586TIP3   OH232172   1.705   2.201  14.368  0.1790 -0.5246 -0.0013
 3586TIP3    H132173   1.776   2.261  14.388  0.5969 -1.4858  1.5259
 3586TIP3    H232174   1.628   2.258  14.357  0.8729  0.3995 -0.2033
 3587TIP3   OH232175   3.062   4.438  12.595 -0.8962 -0.0128 -0.2426
 3587TIP3    H132176   3.118   4.377  12.643  0.0835  1.2691  0.3065
 3587TIP3    H232177   3.069   4.409  12.504  1.0831  0.3658 -0.2701
 3588TIP3   OH232178   4.785   5.376  14.669  0.1626  0.2787 -0.5336
 3588TIP3    H132179   4.722   5.383  14.741 -0.3430  1.5452 -1.0703
 3588TIP3    H232180   4.761   5.295  14.623 -1.2753  0.8839 -0.8956
 3589TIP3   OH232181   6.397   2.137   4.396  0.3676  0.4313  0.1565
 3589TIP3    H132182   6.386   2.166   4.306  1.0377  1.5021  0.3958
 3589TIP3    H232183   6.361   2.049   4.398  2.0658 -0.3886 -1.6396
 3590TIP3   OH232184   1.285   1.094   2.846 -0.5935 -0.1114 -0.1224
 3590TIP3    H132185   1.304   1.005   2.874  1.8436  0.7553  1.2890
 3590TIP3    H232186   1.193   1.107   2.868 -0.3947 -1.5585  1.8483
 3591TIP3   OH232187   6.037   3.849   5.687  0.3041  0.4008 -0.4349
 3591TIP3    H132188   6.084   3.924   5.722 -0.5198  1.6732 -1.9394
 3591TIP3    H232189   5.963   3.837   5.747  0.8235  0.3243  0.2051
 3592TIP3   OH232190   3.324   5.152  11.479 -0.2728  0.3337  0.0218
 3592TIP3    H132191   3.379   5.207  11.535 -0.3210  0.9022 -0.4743
 3592TIP3    H232192   3.258   5.115  11.538  0.4490 -0.1188  0.5704
 3593TIP3   OH232193   6.737   4.075   0.623  0.3715 -0.7327 -0.6534
 3593TIP3    H132194   6.718   4.010   0.691  0.7242 -0.9048 -0.7214
 3593TIP3    H232195   6.684   4.151   0.648 -0.1563 -1.0904 -0.6503
 3594TIP3   OH232196   5.875   3.918   0.982  0.0092 -0.0466 -0.2800
 3594TIP3    H132197   5.821   3.839   0.972  1.0063 -0.7108 -0.4816
 3594TIP3    H232198   5.923   3.904   1.063 -0.1610  0.5786 -0.0664
 3595TIP3   OH232199   4.326   5.777   4.024 -0.2508 -0.2677 -0.1585
 3595TIP3    H132200   4.297   5.758   3.935 -1.0195  2.1452 -0.5147
 3595TIP3    H232201   4.419   5.757   4.024 -0.0768  0.3830 -1.7605
 3596TIP3   OH232202   4.498   0.149  12.177 -0.3714 -0.1422 -0.2526
 3596TIP3    H132203   4.529   0.059  12.169 -0.2573 -0.0050 -1.5714
 3596TIP3    H232204   4.578   0.202  12.179 -0.4639  0.0451 -1.2527
 3597TIP3   OH232205   2.006   5.718  11.356 -0.5167 -0.1034  1.0640
 3597TIP3    H132206   1.984   5.688  11.444  0.1696 -0.0667  1.2505
 3597TIP3    H232207   2.100   5.735  11.359 -0.7459  1.3290  0.7343
 3598TIP3   OH232208   0.039   0.881  10.815  0.3551 -0.3281 -0.5341
 3598TIP3    H132209  -0.045   0.839  10.798 -0.5996  0.7743  1.1305
 3598TIP3    H232210   0.104   0.820  10.782 -1.0636 -1.6390 -1.0156
 3599TIP3   OH232211   0.160   6.453   4.520  0.4952 -0.2871 -0.5529
 3599TIP3    H132212   0.207   6.411   4.449 -0.2855  0.5214 -1.5806
 3599TIP3    H232213   0.085   6.396   4.537  1.3569 -1.1527  0.5371
 3600TIP3   OH232214   0.206   2.454  11.861 -0.3368 -0.0257 -0.6363
 3600TIP3    H132215   0.131   2.460  11.802 -0.3447 -0.6838 -0.7003
 3600TIP3    H232216   0.280   2.434  11.803 -0.2950 -0.4035 -0.4510
 3601TIP3   OH232217   4.819   0.418   4.413 -0.2205  0.1063  0.5036
 3601TIP3    H132218   4.872   0.497   4.403 -1.9104  1.3247  0.7058
 3601TIP3    H232219   4.733   0.450   4.440 -1.3007 -1.7206 -0.5645
 3602TIP3   OH232220   6.661   0.164  16.866 -0.4284 -0.4398  0.0489
 3602TIP3    H132221   6.661   0.255  16.897 -1.3942 -0.3225 -0.2657
 3602TIP3    H232222   6.700   0.169  16.778  0.4100 -0.4799  0.4059
 3603TIP3   OH232223   2.308   3.244   5.466 -0.3890 -0.5313  0.8246
 3603TIP3    H132224   2.319   3.264   5.559  1.4250 -0.1452  0.5741
 3603TIP3    H232225   2.336   3.324   5.421  2.0882 -1.8048 -0.0897
 3604TIP3   OH232226   0.077   3.767  16.310  0.7699 -0.3050 -0.5210
 3604TIP3    H132227   0.027   3.799  16.235 -1.0057  0.7557  0.9970
 3604TIP3    H232228   0.020   3.701  16.350  1.7222 -0.9129 -0.1407
 3605TIP3   OH232229   5.367   6.535  11.568 -0.0592 -0.0202 -0.1773
 3605TIP3    H132230   5.452   6.542  11.609  1.0128  0.5840 -2.3605
 3605TIP3    H232231   5.316   6.607  11.605  1.1096  0.9802 -0.4497
 3606TIP3   OH232232   4.882   0.292   4.129  0.1762  0.4810 -0.0794
 3606TIP3    H132233   4.940   0.320   4.200  0.1314 -0.0461  0.1680
 3606TIP3    H232234   4.809   0.248   4.172  0.6079 -0.6830 -0.4696
 3607TIP3   OH232235   6.274   4.410  15.878 -0.3332 -0.1891 -0.0472
 3607TIP3    H132236   6.266   4.475  15.808  0.7005 -0.2072 -0.2031
 3607TIP3    H232237   6.320   4.336  15.837  0.8268  0.0461  0.7826
 3608TIP3   OH232238   2.862   4.496   5.057 -0.7829  0.2739  0.9469
 3608TIP3    H132239   2.880   4.513   5.150  0.4556  0.3157  0.7071
 3608TIP3    H232240   2.766   4.489   5.053 -0.8051 -4.0086  2.9712
 3609TIP3   OH232241   2.050   1.648   0.132 -0.5345 -0.5102 -0.1560
 3609TIP3    H132242   2.042   1.700   0.052 -1.6960  0.6086  0.6421
 3609TIP3    H232243   1.979   1.584   0.125 -1.6240  0.5536  0.6164
 3610TIP3   OH232244   1.992   0.526  15.857  0.1080  0.3207 -0.0395
 3610TIP3    H132245   1.950   0.479  15.784 -1.9682  1.9364  0.0217
 3610TIP3    H232246   2.086   0.521  15.838 -0.1216 -2.3484 -0.9006
 3611TIP3   OH232247   4.337   4.242   6.521  0.6051 -0.3215  0.4190
 3611TIP3    H132248   4.259   4.274   6.476  1.8635  0.8813 -1.0249
 3611TIP3    H232249   4.320   4.149   6.536 -0.1702 -0.6407 -1.9813
 3612TIP3   OH232250   0.518   5.820   1.117  0.1281  0.0512  0.4906
 3612TIP3    H132251   0.539   5.883   1.048  0.5876 -1.2029 -0.5703
 3612TIP3    H232252   0.544   5.863   1.198 -0.9418  1.7857 -0.0469
 3613TIP3   OH232253   0.563   3.697   0.975 -0.1821  0.0032 -0.2387
 3613TIP3    H132254   0.598   3.781   0.944 -0.1569  0.9475  2.1496
 3613TIP3    H232255   0.536   3.714   1.065 -0.3258 -2.5366  0.2697
 3614TIP3   OH232256   3.418   3.455   5.255 -0.7203  0.3603 -0.2320
 3614TIP3    H132257   3.471   3.529   5.283 -0.3936  0.6490 -1.5548
 3614TIP3    H232258   3.342   3.456   5.313 -1.0739  2.1519 -0.6722
 3615TIP3   OH232259   3.714   1.741  14.730 -0.3553  0.2055 -0.0447
 3615TIP3    H132260   3.755   1.812  14.681  0.5459  0.0455  0.4607
 3615TIP3    H232261   3.621   1.764  14.731 -0.1900  0.9579 -0.5725
 3616TIP3   OH232262   1.420   0.512  15.226 -0.6114  0.2865 -0.5366
 3616TIP3    H132263   1.368   0.431  15.228 -0.5746  0.2673 -0.3039
 3616TIP3    H232264   1.435   0.528  15.133  0.7075 -0.8329 -0.5389
 3617TIP3   OH232265   1.948   1.956  15.069 -0.4613  0.8967 -0.0356
 3617TIP3    H132266   1.966   2.041  15.030  0.2387  1.6020  1.7254
 3617TIP3    H232267   2.034   1.923  15.096 -0.9346  0.7129  1.3565
 3618TIP3   OH232268   0.408   1.832   4.199 -0.1875 -0.1543 -0.6100
 3618TIP3    H132269   0.337   1.893   4.219 -0.0343  0.3072 -1.3988
 3618TIP3    H232270   0.457   1.825   4.281 -0.1206  0.9101 -0.5395
 3619TIP3   OH232271   2.807   6.394  11.603 -0.0185  0.5923 -0.4212
 3619TIP3    H132272   2.746   6.460  11.570  2.0011  1.7177 -2.1666
 3619TIP3    H232273   2.873   6.385  11.534  1.2885 -1.2541  0.9583
 3620TIP3   OH232274   0.183   0.427  16.378 -0.5126  0.4744  0.2241
 3620TIP3    H132275   0.257   0.405  16.435  0.7065  3.8265  0.1811
 3620TIP3    H232276   0.127   0.483  16.433 -0.6087  1.7161 -1.0773
 3621TIP3   OH232277   3.500   4.220   2.252  0.8653  0.3103 -0.3151
 3621TIP3    H132278   3.439   4.260   2.191 -0.6833 -1.4372 -0.0034
 3621TIP3    H232279   3.460   4.232   2.338 -1.2641 -4.1995 -0.3939
 3622TIP3   OH232280   4.321   6.606   1.224  0.5615 -0.4695  0.3425
 3622TIP3    H132281   4.247   6.647   1.180  1.2921 -0.6117 -1.0481
 3622TIP3    H232282   4.299   6.612   1.317 -0.8527  0.1367 -0.0037
 3623TIP3   OH232283   0.443   1.332  13.069  0.5319 -0.0820 -0.5867
 3623TIP3    H132284   0.380   1.261  13.051 -0.0960  0.3458 -0.1192
 3623TIP3    H232285   0.388   1.409  13.086  1.0852 -0.0822  1.5849
 3624TIP3   OH232286   0.746   5.048  12.337 -0.1574  0.2111  0.1622
 3624TIP3    H132287   0.762   5.141  12.324  0.4500  0.1893  0.6908
 3624TIP3    H232288   0.688   5.044  12.413  2.0636  0.0698  1.9270
 3625TIP3   OH232289   6.624   1.314  14.693 -0.2768 -0.0721 -0.1250
 3625TIP3    H132290   6.616   1.350  14.605  1.7725 -2.6968 -1.5080
 3625TIP3    H232291   6.645   1.390  14.748 -1.6603  1.6269 -1.8092
 3626TIP3   OH232292   5.524   4.529   1.334 -0.3254 -0.3566 -0.2216
 3626TIP3    H132293   5.453   4.474   1.366  0.7991 -0.9794  1.2749
 3626TIP3    H232294   5.581   4.469   1.286 -0.4341  0.0212 -0.8447
 3627TIP3   OH232295   6.012   4.353  15.046  0.0879 -0.0896 -0.2002
 3627TIP3    H132296   5.922   4.321  15.050 -0.1229  0.3186 -1.3284
 3627TIP3    H232297   6.064   4.275  15.025  0.0048 -0.3090  0.3663
 3628TIP3   OH232298   3.342   1.563   2.001 -0.3807 -0.5107 -0.2438
 3628TIP3    H132299   3.386   1.645   2.023  2.1491 -0.5768 -4.1620
 3628TIP3    H232300   3.250   1.588   1.988 -0.1633  1.1482  1.0330
 3629TIP3   OH232301   1.845   2.703  12.654 -0.0343 -0.2097 -0.2033
 3629TIP3    H132302   1.938   2.724  12.639 -0.2168 -0.0442 -1.1702
 3629TIP3    H232303   1.822   2.647  12.580 -1.0421  0.7957 -0.6743
 3630TIP3   OH232304   6.120   3.509  16.297  0.1060  0.5807 -0.5177
 3630TIP3    H132305   6.073   3.456  16.233  0.6741  1.0007 -1.3028
 3630TIP3    H232306   6.062   3.511  16.374  0.0111 -1.0280 -0.5192
 3631TIP3   OH232307   4.451   5.106   3.835  0.1333  0.7247 -0.2221
 3631TIP3    H132308   4.511   5.138   3.903  1.1172 -0.4375 -0.4987
 3631TIP3    H232309   4.481   5.017   3.817 -2.7593 -0.5955  0.8547
 3632TIP3   OH232310   1.060   1.797  11.555 -0.6978  0.2398 -0.2829
 3632TIP3    H132311   1.086   1.874  11.505 -0.8281  1.1310  0.9785
 3632TIP3    H232312   1.036   1.831  11.642  0.7220 -1.3963  0.8100
 3633TIP3   OH232313   3.773   0.992  14.176  0.2910 -0.6112 -0.1514
 3633TIP3    H132314   3.758   1.068  14.120 -1.8075 -1.2132 -0.5065
 3633TIP3    H232315   3.827   1.024  14.248  1.9885  0.4813 -1.8017
 3634TIP3   OH232316   3.932   4.032  13.092  0.0064 -0.2110  0.1013
 3634TIP3    H132317   3.976   4.100  13.142 -1.7550  0.7337  0.4412
 3634TIP3    H232318   3.865   3.997  13.151  0.5231 -1.9022 -0.2494
 3635TIP3   OH232319   2.113   4.311  17.073 -0.0227  0.2946 -0.3706
 3635TIP3    H132320   2.040   4.338  17.017  0.6629  0.3334 -1.2729
 3635TIP3    H232321   2.150   4.236  17.028  0.0401 -0.1895  0.4787
 3636TIP3   OH232322   3.266   6.019   1.853 -0.1054 -0.5325 -0.0355
 3636TIP3    H132323   3.355   6.017   1.888  0.1985 -4.1878 -0.5612
 3636TIP3    H232324   3.240   6.111   1.857  2.6401  0.2847  2.6808
 3637TIP3   OH232325   3.616   6.729   3.201  0.8279  0.3108 -0.1302
 3637TIP3    H132326   3.555   6.779   3.254  1.7089  0.2844  0.9397
 3637TIP3    H232327   3.679   6.793   3.169 -0.2246  0.4908 -1.9839
 3638TIP3   OH232328   5.128   1.543  12.688 -0.5905 -0.5172  0.0111
 3638TIP3    H132329   5.207   1.568  12.735 -0.9607 -0.2135  0.4736
 3638TIP3    H232330   5.141   1.450  12.667 -0.3624 -0.6160  0.5827
 3639TIP3   OH232331   1.539   3.387  12.670  0.0881 -0.3519 -0.2418
 3639TIP3    H132332   1.484   3.465  12.659  0.4701  0.2586  1.7729
 3639TIP3    H232333   1.629   3.421  12.671  0.2551 -0.8086  0.6853
 3640TIP3   OH232334   4.382   2.255   0.175  0.1836 -0.4774  0.0299
 3640TIP3    H132335   4.346   2.333   0.217 -0.5590 -0.5970 -0.3662
 3640TIP3    H232336   4.449   2.288   0.115  1.3832 -0.3139  1.3778
 3641TIP3   OH232337   3.416   2.878   3.226  0.1201  0.2064 -0.2850
 3641TIP3    H132338   3.375   2.830   3.299  1.7062 -0.8851 -0.0704
 3641TIP3    H232339   3.507   2.890   3.253  0.5874  0.3083 -1.8276
 3642TIP3   OH232340   3.141   3.645  14.131 -0.1272  0.4907  0.7285
 3642TIP3    H132341   3.180   3.703  14.066 -2.3092  1.0997 -0.0997
 3642TIP3    H232342   3.052   3.677  14.143 -0.1241 -0.2493  3.2786
 3643TIP3   OH232343   0.131   4.459   4.010  0.2234  0.1127  0.3591
 3643TIP3    H132344   0.066   4.499   3.952  0.8626 -0.5096 -0.8026
 3643TIP3    H232345   0.207   4.443   3.954  0.0323 -2.6472  0.7833
 3644TIP3   OH232346   4.906   2.970   1.990  0.2117  0.3347  0.1957
 3644TIP3    H132347   4.951   2.990   1.908 -1.5277  0.9086 -0.6707
 3644TIP3    H232348   4.920   3.048   2.044  1.2641  0.0023  0.4297
 3645TIP3   OH232349   6.745   2.225  13.522 -0.1447 -0.0395  0.3718
 3645TIP3    H132350   6.761   2.143  13.568 -1.2912  1.3391  3.5105
 3645TIP3    H232351   6.651   2.224  13.504 -0.0505  0.2966 -0.1703
 3646TIP3   OH232352   1.916   1.300   4.248  0.2786  0.1398 -0.5626
 3646TIP3    H132353   1.920   1.254   4.332  0.3865  1.2600  0.0594
 3646TIP3    H232354   2.004   1.335   4.235 -0.3383  2.0122  0.0479
 3647TIP3   OH232355   1.200   4.855   3.575  0.4656 -0.5052 -0.2495
 3647TIP3    H132356   1.148   4.909   3.634 -0.6778 -0.3034 -1.3728
 3647TIP3    H232357   1.272   4.822   3.628 -1.1141 -1.2534  1.5478
 3648TIP3   OH232358   4.983   3.268  15.886  0.1884 -0.8416 -0.5292
 3648TIP3    H132359   5.036   3.198  15.923 -0.7649 -0.9986  0.5976
 3648TIP3    H232360   5.026   3.349  15.917 -0.2378 -0.9671  0.4445
 3649TIP3   OH232361   5.085   6.216   5.241 -0.2188  0.0747  0.1051
 3649TIP3    H132362   5.093   6.311   5.254 -2.6449  0.3759 -0.2116
 3649TIP3    H232363   5.058   6.207   5.149 -1.0579 -0.8408  0.4263
 3650TIP3   OH232364   6.496   3.415   3.491 -0.2397  0.2855 -0.3934
 3650TIP3    H132365   6.421   3.386   3.439  0.8887 -0.2550 -1.7785
 3650TIP3    H232366   6.495   3.358   3.568 -1.5491  0.6542 -0.1089
 3651TIP3   OH232367   4.754   0.528   1.536  0.3155  0.1680 -0.1807
 3651TIP3    H132368   4.777   0.439   1.563  0.1938  0.3638  0.5715
 3651TIP3    H232369   4.836   0.562   1.499  0.2255 -0.4314 -0.9666
 3652TIP3   OH232370   4.620   3.223   1.298  0.5752  0.4956  0.7586
 3652TIP3    H132371   4.639   3.313   1.325 -0.0067  1.0369 -0.5583
 3652TIP3    H232372   4.598   3.178   1.380  0.2015  1.7241  1.3604
 3653TIP3   OH232373   2.050   5.226   5.055  0.6662 -0.1797 -0.6084
 3653TIP3    H132374   2.066   5.221   4.961  2.0096 -1.3158 -0.3480
 3653TIP3    H232375   1.983   5.161   5.072 -0.6680  1.0462 -0.9577
 3654TIP3   OH232376   4.810   2.683   6.070 -0.1259 -0.2927 -0.0294
 3654TIP3    H132377   4.797   2.608   6.129 -1.7530  0.4843  0.6770
 3654TIP3    H232378   4.786   2.650   5.984  1.9411 -1.3485 -0.2607
 3655TIP3   OH232379   2.696   2.925   0.906  0.2209 -0.0483  0.3705
 3655TIP3    H132380   2.602   2.911   0.914  0.0319 -0.8758 -2.2910
 3655TIP3    H232381   2.735   2.867   0.971 -1.0270 -2.7922 -1.1805
 3656TIP3   OH232382   0.181   2.715  16.046 -0.2854 -0.7082 -0.8041
 3656TIP3    H132383   0.165   2.797  15.998  2.4406 -1.3821 -3.1684
 3656TIP3    H232384   0.257   2.734  16.100 -1.2301 -0.9964  0.6803
 3657TIP3   OH232385   5.504   5.053  13.426  0.0029 -0.3298 -0.2134
 3657TIP3    H132386   5.478   5.120  13.362 -0.0584 -2.6539 -2.7816
 3657TIP3    H232387   5.523   4.976  13.373 -0.6084 -2.5929  2.6520
 3658TIP3   OH232388   3.119   4.601  15.149 -1.1447  0.4217 -0.4641
 3658TIP3    H132389   3.099   4.585  15.242 -0.5665 -1.7166 -0.6495
 3658TIP3    H232390   3.109   4.695  15.139  0.0667  0.9243  2.1012
 3659TIP3   OH232391   4.000   3.185  16.370  0.2708  0.3797  0.3508
 3659TIP3    H132392   4.016   3.104  16.418 -0.3931  0.3589  0.5386
 3659TIP3    H232393   3.905   3.196  16.370  0.3461  1.1444  0.3153
 3660TIP3   OH232394   1.202   6.431   0.872 -0.2774  0.0664 -0.1147
 3660TIP3    H132395   1.184   6.518   0.837 -1.0883 -0.5916 -1.4173
 3660TIP3    H232396   1.177   6.437   0.965 -0.0182  1.2915 -0.1045
 3661TIP3   OH232397   1.879   4.245   5.564 -0.2292  0.4315  0.4893
 3661TIP3    H132398   1.954   4.300   5.540 -0.5450  0.6993  0.0982
 3661TIP3    H232399   1.834   4.230   5.481  1.6557 -3.2216 -0.0640
 3662TIP3   OH232400   0.745   3.438   5.988  0.2318 -0.1655  0.5119
 3662TIP3    H132401   0.695   3.377   6.043 -1.0374  0.2885 -0.0873
 3662TIP3    H232402   0.702   3.434   5.903  0.2536  1.3719  0.3913
 3663TIP3   OH232403   3.435   2.778  17.114 -0.4118  0.1773 -0.5383
 3663TIP3    H132404   3.470   2.759  17.027 -1.5729  1.1700 -1.2448
 3663TIP3    H232405   3.512   2.798  17.167  0.3414 -0.7949 -1.2196
 3664TIP3   OH232406   2.391   3.802   3.144 -0.3466 -0.0196  0.6033
 3664TIP3    H132407   2.312   3.757   3.170  0.2417 -1.3914  0.1144
 3664TIP3    H232408   2.440   3.737   3.092  1.1372  0.7446  0.9866
 3665TIP3   OH232409   0.849   0.543   2.551 -0.2291  0.2422  0.0669
 3665TIP3    H132410   0.887   0.474   2.497 -0.2378  0.4322 -0.1878
 3665TIP3    H232411   0.902   0.544   2.630  0.7517  0.9857 -0.5796
 3666TIP3   OH232412   3.271   5.852   3.501  0.2473 -0.1374  0.3028
 3666TIP3    H132413   3.285   5.813   3.588 -0.9328  1.6279  1.3443
 3666TIP3    H232414   3.321   5.796   3.442  2.5628 -0.4193  2.3229
 3667TIP3   OH232415   1.758   0.800   2.045  0.1942 -0.3591  0.4086
 3667TIP3    H132416   1.693   0.814   2.114  1.2026 -0.1995  1.3549
 3667TIP3    H232417   1.822   0.741   2.084  0.6911 -0.3973 -0.4512
 3668TIP3   OH232418   6.363   1.386   6.062  0.1826 -0.4492 -0.1213
 3668TIP3    H132419   6.361   1.290   6.061  1.3206 -0.4926  0.5166
 3668TIP3    H232420   6.284   1.411   6.109  1.7333 -1.2190  3.2038
 3669TIP3   OH232421   4.891   2.974   2.953 -0.5480 -0.6308 -0.8115
 3669TIP3    H132422   4.858   2.959   3.041 -0.4834 -0.7326 -0.8047
 3669TIP3    H232423   4.984   2.951   2.958  0.1601  2.0499 -0.1728
 3670TIP3   OH232424   1.348   5.506  11.087 -0.4040  0.2492 -0.7842
 3670TIP3    H132425   1.260   5.486  11.057 -0.6360  0.7980 -0.4792
 3670TIP3    H232426   1.404   5.485  11.011 -0.2887 -3.7556  0.2020
 3671TIP3   OH232427   2.363   2.539   3.412  0.2430  0.1662  0.3975
 3671TIP3    H132428   2.305   2.476   3.369 -0.0136  1.4336 -1.2334
 3671TIP3    H232429   2.387   2.497   3.494 -0.1539 -1.9152 -0.4715
 3672TIP3   OH232430   3.507   1.946  14.454 -0.0479  0.4563  0.0845
 3672TIP3    H132431   3.481   1.864  14.413  1.1707 -0.2230  0.5913
 3672TIP3    H232432   3.438   2.008  14.431 -0.3494 -0.3761 -1.3766
 3673TIP3   OH232433   1.531   4.195   6.191 -0.1334 -0.1506  0.5813
 3673TIP3    H132434   1.467   4.129   6.217 -1.0936  0.3775 -0.3288
 3673TIP3    H232435   1.616   4.156   6.210 -0.6919 -1.5009  0.3848
 3674TIP3   OH232436   3.591   0.841   4.175  0.1440 -0.0828  0.1810
 3674TIP3    H132437   3.593   0.761   4.124 -2.3442 -1.9035  2.6222
 3674TIP3    H232438   3.682   0.854   4.203  0.6585 -1.8863 -0.5118
 3675TIP3   OH232439   6.424   6.709   1.652  0.5965 -0.4258 -0.5136
 3675TIP3    H132440   6.431   6.696   1.558 -0.8982  2.6137 -1.1627
 3675TIP3    H232441   6.428   6.804   1.664 -1.8944 -0.5205  2.1568
 3676TIP3   OH232442   0.383   3.482  15.617  0.4772  0.0193 -0.2176
 3676TIP3    H132443   0.442   3.478  15.692  0.0515  1.1530  0.1979
 3676TIP3    H232444   0.332   3.562  15.631 -1.1102 -0.8802 -0.5851
 3677TIP3   OH232445   2.077   5.564  11.915  0.4866  0.1989  0.4582
 3677TIP3    H132446   2.094   5.593  12.005 -0.4755  0.1634  0.6658
 3677TIP3    H232447   2.144   5.608  11.863 -0.7593  2.6896  0.7775
 3678TIP3   OH232448   1.752   3.804  17.019  0.1603 -0.1424  0.2102
 3678TIP3    H132449   1.821   3.764  16.965 -0.1857 -0.0287 -0.3209
 3678TIP3    H232450   1.797   3.873  17.067  0.9607 -1.6574  1.7630
 3679TIP3   OH232451   2.213   4.355  13.262  0.0303  0.0537 -0.4189
 3679TIP3    H132452   2.296   4.394  13.289 -0.4846  0.9952 -0.1145
 3679TIP3    H232453   2.233   4.264  13.243  0.9416  0.0397  0.5668
 3680TIP3   OH232454   2.603   0.026   1.079 -0.3956  0.1604 -0.2228
 3680TIP3    H132455   2.508   0.037   1.068 -0.6804 -0.4044  1.3915
 3680TIP3    H232456   2.631  -0.022   1.001 -1.6847 -0.9196 -0.0384
 3681TIP3   OH232457   6.668   2.073  16.149 -0.1157  0.2809 -0.1779
 3681TIP3    H132458   6.763   2.086  16.158 -0.0737  2.0791 -2.3294
 3681TIP3    H232459   6.639   2.149  16.098 -2.3408 -1.4460 -1.6310
 3682TIP3   OH232460   5.226   1.680   0.874 -0.0516  0.8900 -0.0601
 3682TIP3    H132461   5.276   1.626   0.936 -0.7186  3.8684  3.3851
 3682TIP3    H232462   5.291   1.739   0.836 -0.1879  1.5667  0.7384
 3683TIP3   OH232463   6.242   1.071  13.056  0.0373 -0.1039  0.0562
 3683TIP3    H132464   6.201   1.102  13.137  1.8248  1.6080  0.3697
 3683TIP3    H232465   6.251   0.976  13.069  0.0781  0.0979  1.7672
 3684TIP3   OH232466   6.095   3.414   1.704 -0.1542 -0.3041  0.0297
 3684TIP3    H132467   6.034   3.467   1.654 -0.1809 -0.3931 -0.0332
 3684TIP3    H232468   6.040   3.349   1.749 -0.4742  1.4916  2.4507
 3685TIP3   OH232469   1.497   2.544  12.359  0.2238 -0.0622 -0.0037
 3685TIP3    H132470   1.454   2.469  12.401 -0.4201 -1.4175 -2.8303
 3685TIP3    H232471   1.432   2.614  12.362 -0.2252 -0.4853  0.2616
 3686TIP3   OH232472   1.137   2.871   0.305 -0.2589  0.1859 -0.1511
 3686TIP3    H132473   1.202   2.817   0.260 -0.5299  0.0132 -0.3310
 3686TIP3    H232474   1.164   2.867   0.397 -1.1377 -1.4995  0.0744
 3687TIP3   OH232475   2.316   2.266   6.598 -0.6009 -0.1706 -0.2824
 3687TIP3    H132476   2.270   2.189   6.630  0.2316 -0.7522 -0.4687
 3687TIP3    H232477   2.358   2.304   6.675 -0.0616 -0.5609 -0.3820
 3688TIP3   OH232478   4.583   2.950   3.494 -0.0173  0.1203  0.4278
 3688TIP3    H132479   4.518   2.910   3.436  0.5100 -0.6712  0.3580
 3688TIP3    H232480   4.666   2.939   3.447  0.0090  2.5521 -0.2339
 3689TIP3   OH232481   0.727   3.719  13.882 -0.3182 -0.0814 -0.0341
 3689TIP3    H132482   0.770   3.634  13.896 -1.2272 -0.2952  1.5928
 3689TIP3    H232483   0.641   3.709  13.921 -0.8503  1.2594 -0.8131
 3690TIP3   OH232484   6.392   3.036   4.983  0.0289 -0.0868 -0.2877
 3690TIP3    H132485   6.478   3.036   4.939 -1.0616 -1.7437 -2.6719
 3690TIP3    H232486   6.331   3.009   4.915 -1.9438 -2.2247  2.1219
 3691TIP3   OH232487   1.563   6.638  12.217 -0.0298  0.7915 -0.0605
 3691TIP3    H132488   1.498   6.596  12.161  0.5311 -0.9227  0.4943
 3691TIP3    H232489   1.533   6.620  12.306  0.2627  1.5530  0.2023
 3692TIP3   OH232490   2.977   4.043  16.386 -0.0160  0.5952 -0.1753
 3692TIP3    H132491   2.890   4.021  16.353 -0.1789  2.4161 -1.0585
 3692TIP3    H232492   3.012   4.105  16.323  1.2110  1.2724  1.1185
 3693TIP3   OH232493   1.582   4.902   2.442  0.5641 -0.5642  0.0954
 3693TIP3    H132494   1.570   4.816   2.403 -0.2463 -0.0038 -0.9216
 3693TIP3    H232495   1.542   4.963   2.380 -1.0337  0.3353  1.8801
 3694TIP3   OH232496   3.775   6.689   1.466  1.0558  0.5510  0.1038
 3694TIP3    H132497   3.726   6.619   1.423  1.4223 -0.2148  0.8953
 3694TIP3    H232498   3.723   6.768   1.449  0.3348  0.0016 -0.3313
 3695TIP3   OH232499   1.528   2.548   4.232 -0.2557 -0.1041  0.4623
 3695TIP3    H132500   1.576   2.580   4.309 -0.3471 -1.5034  1.1402
 3695TIP3    H232501   1.549   2.611   4.163 -0.2048  1.2121  1.6301
 3696TIP3   OH232502   1.113   1.895  12.382  0.0639  0.2510 -0.0759
 3696TIP3    H132503   1.196   1.848  12.384  0.0891  0.2940 -0.0913
 3696TIP3    H232504   1.064   1.860  12.456 -0.6141 -1.0462 -1.1003
 3697TIP3   OH232505   2.165   5.539  13.173  0.0300  0.3119  0.3338
 3697TIP3    H132506   2.095   5.601  13.152 -0.5968 -1.1997 -2.4941
 3697TIP3    H232507   2.121   5.456  13.188  1.1000 -0.8123 -2.0847
 3698TIP3   OH232508   1.602   5.550   4.802  0.6104  0.0519 -0.2825
 3698TIP3    H132509   1.554   5.589   4.729  1.8352 -1.7907 -2.2122
 3698TIP3    H232510   1.545   5.480   4.834  0.0418  0.9068  0.6268
 3699TIP3   OH232511   5.955   4.744   4.426 -0.5743  0.2579  0.3103
 3699TIP3    H132512   6.001   4.779   4.350 -1.0021 -0.3656 -0.2506
 3699TIP3    H232513   5.907   4.820   4.461 -0.3159  0.5671  0.0061
 3700TIP3   OH232514   5.166   1.910  12.350  0.2815 -0.0260 -0.2763
 3700TIP3    H132515   5.081   1.910  12.393 -0.0086  2.0177 -0.7152
 3700TIP3    H232516   5.154   1.856  12.272 -0.4757 -0.1460 -0.0829
 3701TIP3   OH232517   5.270   6.402  15.501  0.4069 -0.8405 -0.1973
 3701TIP3    H132518   5.294   6.493  15.481  0.3780 -0.5446  1.0358
 3701TIP3    H232519   5.176   6.406  15.518  0.6257 -0.8404  1.1365
 3702TIP3   OH232520   5.727   4.355   3.006  0.5600 -0.2641 -0.5918
 3702TIP3    H132521   5.717   4.334   2.913  1.2958  0.7493 -0.9191
 3702TIP3    H232522   5.816   4.389   3.014  1.1967 -2.1116  0.8629
 3703TIP3   OH232523   1.437   4.955  16.699 -0.2038  0.6017 -0.6825
 3703TIP3    H132524   1.452   5.034  16.648 -0.6688  0.8577 -0.4313
 3703TIP3    H232525   1.518   4.904  16.689  0.4833  1.5335 -0.0945
 3704TIP3   OH232526   1.023   1.840   1.849  0.1906 -0.3895  0.0212
 3704TIP3    H132527   1.017   1.912   1.787 -0.7085  0.3578  0.9441
 3704TIP3    H232528   0.983   1.765   1.804 -3.5967  0.9556  0.8294
 3705TIP3   OH232529   3.101   1.960   6.256 -0.3984  0.0120  0.4099
 3705TIP3    H132530   3.018   1.914   6.241 -1.0502  1.5171 -0.8195
 3705TIP3    H232531   3.108   1.967   6.352 -1.4856 -0.4875  0.5371
 3706TIP3   OH232532   2.986   4.934   3.714  0.0004  0.2828  0.4199
 3706TIP3    H132533   3.058   4.986   3.679 -0.0491 -0.2933 -0.5614
 3706TIP3    H232534   2.930   4.915   3.639 -0.1054 -0.9973  0.7936
 3707TIP3   OH232535   4.674   5.779  12.744  0.1157 -0.1172 -0.2966
 3707TIP3    H132536   4.629   5.721  12.683 -0.2394  0.6404 -0.7831
 3707TIP3    H232537   4.605   5.809  12.804  0.0854  0.5427 -0.6456
 3708TIP3   OH232538   3.087   3.222  14.470  0.1024  0.2045 -0.5576
 3708TIP3    H132539   2.992   3.215  14.456 -0.2344  0.7692  1.1783
 3708TIP3    H232540   3.125   3.163  14.405 -1.4490 -0.2384 -1.1163
 3709TIP3   OH232541   6.693   2.949  12.095  0.1884  0.5553  0.2663
 3709TIP3    H132542   6.651   3.030  12.065  0.3351  0.2870 -0.7163
 3709TIP3    H232543   6.752   2.926  12.023  0.7795  0.0358  0.9160
 3710TIP3   OH232544   2.441   2.064  16.382 -0.0514  0.3126 -0.0438
 3710TIP3    H132545   2.402   2.035  16.464  0.3629 -0.7093 -0.1928
 3710TIP3    H232546   2.520   2.010  16.372 -0.9334 -0.7687 -1.9154
 3711TIP3   OH232547   0.096   5.021   2.317  0.7180 -0.7976  0.3373
 3711TIP3    H132548   0.066   4.935   2.346 -1.1921  0.0222  0.9708
 3711TIP3    H232549   0.019   5.077   2.325  1.8766  0.9584 -0.1789
 3712TIP3   OH232550   5.650   3.054   2.012  0.5833  0.1702 -0.3135
 3712TIP3    H132551   5.613   2.992   2.074  1.3102  1.4364  1.4534
 3712TIP3    H232552   5.574   3.096   1.972  0.1052 -0.9245 -0.5774
 3713TIP3   OH232553   6.396   5.260  14.699  0.3181  0.4888  0.2032
 3713TIP3    H132554   6.340   5.251  14.776  0.6717  0.2910  0.4398
 3713TIP3    H232555   6.449   5.181  14.698  0.2585  0.4504 -0.2948
 3714TIP3   OH232556   4.038   3.248  12.166  0.0010  0.2136  0.4281
 3714TIP3    H132557   4.120   3.289  12.195 -0.2335  1.5319 -0.6489
 3714TIP3    H232558   3.982   3.322  12.142 -1.5625 -0.6577  1.2300
 3715TIP3   OH232559   1.477   5.632   3.342 -0.4317 -0.2031  0.5222
 3715TIP3    H132560   1.442   5.554   3.386 -2.1444 -1.5047 -2.7384
 3715TIP3    H232561   1.551   5.599   3.291 -0.0153  0.7200  0.5125
 3716TIP3   OH232562   1.876   4.377  14.069 -0.2212  0.2745 -0.0913
 3716TIP3    H132563   1.915   4.464  14.073  0.7847 -0.1742 -0.0113
 3716TIP3    H232564   1.867   4.351  14.161 -3.0995  1.3736  0.0797
 3717TIP3   OH232565   0.492   6.459   2.720 -0.5145  0.5585 -0.5192
 3717TIP3    H132566   0.520   6.436   2.631  0.0186  1.3734 -0.5711
 3717TIP3    H232567   0.419   6.399   2.738 -0.8267  0.5773 -1.6191
 3718TIP3   OH232568   1.510   3.567   2.223 -0.3613  0.0190 -0.0514
 3718TIP3    H132569   1.571   3.561   2.296  0.5328 -2.4999 -0.8732
 3718TIP3    H232570   1.561   3.602   2.151 -0.4484 -0.1489 -0.1971
 3719TIP3   OH232571   6.192   5.370  16.306  0.2021  0.5158  0.1390
 3719TIP3    H132572   6.251   5.320  16.248  0.9562  0.9573  0.5147
 3719TIP3    H232573   6.180   5.313  16.382 -2.3233 -0.9260 -1.1908
 3720TIP3   OH232574   5.303   5.036   5.523  0.3014  0.2809 -0.0490
 3720TIP3    H132575   5.386   5.035   5.571 -0.5544  0.0124  1.4891
 3720TIP3    H232576   5.268   5.124   5.536 -1.1415 -0.5312  2.0637
 3721TIP3   OH232577   2.158   1.795   1.984 -0.1799 -0.1895 -0.0095
 3721TIP3    H132578   2.167   1.777   1.891 -2.5781 -0.8679 -0.1790
 3721TIP3    H232579   2.228   1.858   2.003  0.3451 -0.0022 -2.2437
 3722TIP3   OH232580   4.347   4.799   0.941 -0.3537 -0.1194 -0.2945
 3722TIP3    H132581   4.290   4.798   1.017 -1.8995  0.9835 -1.3782
 3722TIP3    H232582   4.316   4.873   0.888  1.4608 -0.0863 -1.4008
 3723TIP3   OH232583   5.616   5.865   4.613  0.6969  0.1976  0.3792
 3723TIP3    H132584   5.562   5.816   4.675 -0.3601  0.2095 -0.5148
 3723TIP3    H232585   5.685   5.803   4.588 -0.8636 -1.0521 -1.0641
 3724TIP3   OH232586   2.460   5.904   1.029  0.1410  0.0175 -0.0025
 3724TIP3    H132587   2.480   5.890   0.936 -0.6729  0.0318 -0.1913
 3724TIP3    H232588   2.449   5.998   1.038 -0.2927 -0.0279 -0.0109
 3725TIP3   OH232589   0.429   4.831  13.875 -0.6346  0.3930 -0.6458
 3725TIP3    H132590   0.469   4.879  13.948 -1.3615  0.3674 -0.2192
 3725TIP3    H232591   0.390   4.899  13.820 -0.3467  0.3931 -0.8480
 3726TIP3   OH232592   4.333   5.384  10.804 -0.5513 -0.6236 -0.5971
 3726TIP3    H132593   4.360   5.435  10.728 -1.0042 -1.9769 -1.7116
 3726TIP3    H232594   4.237   5.387  10.802 -0.5848  0.7224  0.9301
 3727TIP3   OH232595   0.458   1.944  16.362  0.2533  0.1719  0.3527
 3727TIP3    H132596   0.422   1.926  16.275  0.0892 -0.3412  0.5203
 3727TIP3    H232597   0.406   1.889  16.421 -1.4304  2.4391  1.1299
 3728TIP3   OH232598   6.385   5.506   4.606  0.6242  0.0183  0.1774
 3728TIP3    H132599   6.373   5.455   4.525  2.6713 -1.4674  0.7357
 3728TIP3    H232600   6.406   5.594   4.575  1.7006 -0.6048 -0.9324
 3729TIP3   OH232601   1.458   3.890   4.971  0.2427 -0.2282 -0.2988
 3729TIP3    H132602   1.499   3.934   4.897 -1.3297  3.4566  0.7853
 3729TIP3    H232603   1.529   3.878   5.034  0.6495  1.3349 -0.4292
 3730TIP3   OH232604   4.852   0.076   3.930  0.2682 -0.3462 -0.0319
 3730TIP3    H132605   4.888   0.153   3.975  0.4441  0.1589 -1.0002
 3730TIP3    H232606   4.827   0.109   3.844 -1.3059 -0.9935  0.1603
 3731TIP3   OH232607   2.342   3.504  16.172 -0.0652  0.1593  0.0494
 3731TIP3    H132608   2.415   3.525  16.231  0.8194 -1.1239 -0.5334
 3731TIP3    H232609   2.273   3.473  16.230  0.0807  0.7771  0.5643
 3732TIP3   OH232610   1.924   0.477  14.083  0.2659 -0.2838  0.1111
 3732TIP3    H132611   1.888   0.405  14.032  0.6165 -0.4364  0.0771
 3732TIP3    H232612   1.972   0.434  14.154 -1.6284 -0.0961  1.6199
 3733TIP3   OH232613   3.771   2.564   4.079  0.0772 -0.1301 -0.2214
 3733TIP3    H132614   3.790   2.471   4.093  0.8363 -0.4520 -2.8718
 3733TIP3    H232615   3.721   2.590   4.156  1.2368 -2.3121  1.3588
 3734TIP3   OH232616   5.028   2.099  16.997  0.1225  0.4178 -0.2478
 3734TIP3    H132617   5.069   2.016  16.974 -1.8869  0.2840 -4.2078
 3734TIP3    H232618   5.072   2.163  16.941  0.1660  1.6788  1.1609
 3735TIP3   OH232619   3.558   4.972   4.823  0.0892  0.8669  0.3204
 3735TIP3    H132620   3.520   4.972   4.734 -0.9051  1.1160  0.7274
 3735TIP3    H232621   3.493   4.926   4.876  0.1598  1.6866  1.1311
 3736TIP3   OH232622   2.007   1.709   6.138  0.3515 -0.1267  0.8631
 3736TIP3    H132623   1.992   1.638   6.075  0.9418 -0.7954  1.4631
 3736TIP3    H232624   1.921   1.725   6.176  0.0489  0.0609  0.1228
 3737TIP3   OH232625   4.627   3.047  11.938  0.4862  0.0198  0.2667
 3737TIP3    H132626   4.602   3.138  11.954 -0.4595 -0.2505  0.4115
 3737TIP3    H232627   4.584   3.026  11.854  1.0308 -0.1716  0.0348
 3738TIP3   OH232628   4.232   3.179  17.027  0.7252 -0.1034  0.2757
 3738TIP3    H132629   4.232   3.232  16.947 -0.7726  0.7663  0.8219
 3738TIP3    H232630   4.277   3.234  17.091  0.5773 -0.1650  0.4310
 3739TIP3   OH232631   1.810   1.252  14.119 -0.1318 -0.1196  0.2453
 3739TIP3    H132632   1.774   1.269  14.206 -2.3229 -1.4005 -0.3486
 3739TIP3    H232633   1.811   1.338  14.077  2.5595  0.8432  1.9975
 3740TIP3   OH232634   3.400   3.995   1.420 -0.0418 -1.0311  0.1795
 3740TIP3    H132635   3.495   4.008   1.425  0.0297 -1.1644 -0.7682
 3740TIP3    H232636   3.376   4.022   1.332 -1.0752  0.1490  0.7916
 3741TIP3   OH232637   5.903   2.514  17.190 -0.0314 -0.2180 -0.4564
 3741TIP3    H132638   5.858   2.594  17.164  0.3330  0.3886  0.7237
 3741TIP3    H232639   5.851   2.481  17.264  0.1333 -0.7817 -0.5923
 3742TIP3   OH232640   1.319   6.717  10.915 -0.2631  0.3125  0.2454
 3742TIP3    H132641   1.309   6.758  10.829  0.0172 -0.4798 -0.1731
 3742TIP3    H232642   1.230   6.690  10.939 -0.3441  0.5526  0.2184
 3743TIP3   OH232643   1.413   1.962   4.239 -0.1055  0.1183 -0.0710
 3743TIP3    H132644   1.440   1.873   4.220  0.3460  0.5071 -1.3726
 3743TIP3    H232645   1.423   1.971   4.334  1.3474 -0.7261 -0.1260
 3744TIP3   OH232646   0.887   6.387   0.670 -0.3240 -0.2899 -0.1244
 3744TIP3    H132647   0.971   6.384   0.624  0.0988 -1.5014  0.6801
 3744TIP3    H232648   0.869   6.481   0.682  1.1529 -0.0118  0.1163
 3745TIP3   OH232649   1.862   4.483   5.919  0.1819 -0.1461 -0.1237
 3745TIP3    H132650   1.909   4.564   5.941 -1.1791  0.7830 -0.4610
 3745TIP3    H232651   1.917   4.413   5.953  1.4421  0.9163  0.1230
 3746TIP3   OH232652   3.555   3.813   3.484 -0.1260  0.8231  0.0663
 3746TIP3    H132653   3.496   3.751   3.527 -0.8374  0.8887 -0.7773
 3746TIP3    H232654   3.575   3.771   3.400  0.6696  1.0185  0.1463
 3747TIP3   OH232655   1.503   5.194  11.534 -0.1710  0.4228 -0.0585
 3747TIP3    H132656   1.511   5.155  11.447  0.5261  0.7141 -0.1378
 3747TIP3    H232657   1.419   5.241  11.532  0.0868  0.8724 -0.7635
 3748TIP3   OH232658   4.636   0.442  17.230 -0.1026 -0.1420 -0.6059
 3748TIP3    H132659   4.580   0.516  17.252 -0.8397 -0.4239 -1.4161
 3748TIP3    H232660   4.723   0.467  17.258 -0.4653  0.7440 -0.2439
 3749TIP3   OH232661   6.505   2.153   1.023 -0.0550 -0.0605  0.1626
 3749TIP3    H132662   6.427   2.100   1.038  0.4122 -0.2219  2.2747
 3749TIP3    H232663   6.576   2.103   1.061  0.9944  0.3959 -1.1334
 3750TIP3   OH232664   1.797   1.366  15.809 -0.1236  0.2513  0.3721
 3750TIP3    H132665   1.800   1.283  15.762 -0.8154  0.7132 -0.5231
 3750TIP3    H232666   1.757   1.345  15.894  0.5329 -0.4752  0.5055
 3751TIP3   OH232667   1.752   0.984  16.183 -0.1888  0.3184  0.4018
 3751TIP3    H132668   1.841   1.010  16.159 -1.2699  4.1340 -0.1435
 3751TIP3    H232669   1.739   0.901  16.139  2.0929  1.1337 -2.0847
 3752TIP3   OH232670   2.796   4.834  14.062  0.1503 -0.2300 -0.1723
 3752TIP3    H132671   2.759   4.908  14.014  0.6780  0.0383 -0.1789
 3752TIP3    H232672   2.890   4.852  14.064  0.2661 -0.8327 -0.0530
 3753TIP3   OH232673   6.461   1.399   3.866 -0.4838 -0.2861 -0.2085
 3753TIP3    H132674   6.459   1.308   3.836  0.0069 -0.2942 -0.2307
 3753TIP3    H232675   6.554   1.421   3.868 -0.6378  0.5384 -1.2026
 3754TIP3   OH232676   0.613   6.508   5.035  0.5501 -0.2921 -0.4669
 3754TIP3    H132677   0.650   6.435   4.986  0.7337 -1.1414  0.8786
 3754TIP3    H232678   0.674   6.522   5.107 -0.0944  0.4244 -0.0440
 3755TIP3   OH232679   1.447   3.418  13.853 -0.3420 -0.2541  0.5363
 3755TIP3    H132680   1.464   3.368  13.773  1.7916  0.7665  0.2687
 3755TIP3    H232681   1.454   3.354  13.923  1.7415 -0.5040  0.1569
 3756TIP3   OH232682   2.126   3.700  15.064  0.0071  0.2433 -0.5416
 3756TIP3    H132683   2.155   3.688  14.974 -0.4968  2.6279 -1.0620
 3756TIP3    H232684   2.035   3.671  15.064 -0.4798  1.7165 -1.2024
 3757TIP3   OH232685   3.591   3.748  14.482  0.0997 -0.7945  0.1407
 3757TIP3    H132686   3.537   3.760  14.561 -0.5291 -0.6212 -0.3073
 3757TIP3    H232687   3.600   3.653  14.475 -1.0966 -0.8906 -0.3931
 3758TIP3   OH232688   0.578   4.625  10.508  0.2914 -0.5304 -0.2675
 3758TIP3    H132689   0.521   4.686  10.461  1.3927 -1.2967 -2.8023
 3758TIP3    H232690   0.633   4.681  10.562  1.6893  0.9269 -2.9882
 3759TIP3   OH232691   3.717   1.716   1.409  0.3877 -0.9780 -0.5007
 3759TIP3    H132692   3.754   1.663   1.338 -1.4275  1.0700 -3.1609
 3759TIP3    H232693   3.741   1.806   1.388 -0.2317 -0.2675  1.5324
 3760TIP3   OH232694   0.891   6.172  14.008  0.0760  0.3907 -0.1770
 3760TIP3    H132695   0.925   6.190  13.920 -2.1827 -0.5841 -1.3661
 3760TIP3    H232696   0.817   6.232  14.018  0.3691  0.5517  1.1070
 3761TIP3   OH232697   5.005   5.229   1.194  0.5826  0.2970  0.4466
 3761TIP3    H132698   5.012   5.191   1.282 -0.0296  0.2659  0.4867
 3761TIP3    H232699   4.924   5.191   1.159 -0.0327  1.5362  0.4768
 3762TIP3   OH232700   1.107   2.451   4.996 -0.0032  0.1317  0.4261
 3762TIP3    H132701   1.155   2.380   5.039  0.7056  0.7609  0.6907
 3762TIP3    H232702   1.143   2.531   5.034 -2.4025  0.6254  1.9133
 3763TIP3   OH232703   3.295   1.651  13.959  0.0475  0.0561  0.0779
 3763TIP3    H132704   3.228   1.584  13.969 -0.1337  0.3173  0.6160
 3763TIP3    H232705   3.300   1.666  13.865 -0.7374  0.1275  0.0453
 3764TIP3   OH232706   0.998   4.350   2.390  0.4626  0.3883  0.0880
 3764TIP3    H132707   1.024   4.388   2.474  1.2130 -0.5451  0.2969
 3764TIP3    H232708   0.917   4.396   2.367  0.3035  0.7334  1.2606
 3765TIP3   OH232709   6.488   2.538  15.166  0.0199  0.4306  0.1802
 3765TIP3    H132710   6.448   2.462  15.123 -0.2522  0.4147  0.4542
 3765TIP3    H232711   6.545   2.576  15.100 -1.6570  1.4032 -0.7788
 3766TIP3   OH232712   4.465   1.059   5.130 -0.3554 -0.3790 -0.1293
 3766TIP3    H132713   4.532   1.099   5.074  1.0453 -1.8080  0.4515
 3766TIP3    H232714   4.438   1.129   5.189 -0.8459  0.7685 -1.6376
 3767TIP3   OH232715   3.259   6.525   5.628  0.0042 -0.7761 -0.4071
 3767TIP3    H132716   3.282   6.512   5.720  0.1383 -2.2637 -0.6274
 3767TIP3    H232717   3.232   6.617   5.623  1.4791 -0.2267  0.7893
 3768TIP3   OH232718   0.230   4.538  10.585  0.5159  0.2775  0.1261
 3768TIP3    H132719   0.277   4.607  10.539 -0.1437 -0.1877 -1.2890
 3768TIP3    H232720   0.138   4.562  10.576  0.3348 -0.2551  0.5005
 3769TIP3   OH232721   1.957   0.087  13.928  0.8033 -0.0235  0.0060
 3769TIP3    H132722   1.947   0.021  13.996  0.8077  1.1830  1.2340
 3769TIP3    H232723   1.867   0.108  13.901  0.8195 -0.7946 -0.6673
 3770TIP3   OH232724   1.345   5.756   2.896  0.1377  0.2872  0.2516
 3770TIP3    H132725   1.353   5.851   2.892 -2.2503  0.5161 -2.0484
 3770TIP3    H232726   1.433   5.723   2.876  0.7412  2.0158 -0.1162
 3771TIP3   OH232727   0.542   5.935  13.151 -0.0998  0.1334  0.0882
 3771TIP3    H132728   0.533   5.971  13.240 -0.2793 -0.1625  0.1910
 3771TIP3    H232729   0.560   5.842  13.165  0.1243  0.1358 -0.1818
 3772TIP3   OH232730   1.609   5.162   4.845  0.2228  0.2476  0.2605
 3772TIP3    H132731   1.534   5.184   4.790  0.0139  1.5613  1.0475
 3772TIP3    H232732   1.673   5.231   4.828  0.4665  0.2322  1.0731
 3773TIP3   OH232733   5.964   2.284   1.270 -0.1131  0.3308 -0.0889
 3773TIP3    H132734   5.927   2.218   1.212 -1.4415  1.7558 -0.9663
 3773TIP3    H232735   6.059   2.278   1.257 -0.2673 -0.8203 -0.7738
 3774TIP3   OH232736   6.001   6.504  16.495  0.3687  0.5901  0.0247
 3774TIP3    H132737   5.964   6.581  16.452 -0.4586  0.1981  0.0322
 3774TIP3    H232738   6.018   6.442  16.424  1.9674  1.1266 -0.1110
 3775TIP3   OH232739   0.025   5.355  11.825  0.3393 -0.2520 -0.3333
 3775TIP3    H132740   0.090   5.390  11.765  1.4051 -1.2613  0.1761
 3775TIP3    H232741   0.017   5.263  11.801 -0.0583 -0.4024  0.3337
 3776TIP3   OH232742   2.912   1.845   0.898 -0.5858 -0.3198  0.0839
 3776TIP3    H132743   3.001   1.873   0.875 -0.7965  1.3799  1.1922
 3776TIP3    H232744   2.869   1.833   0.813  0.5312 -0.6451 -0.4633
 3777TIP3   OH232745   5.801   0.085   5.254  0.3158 -0.1987  0.7774
 3777TIP3    H132746   5.889   0.099   5.220  0.6152 -0.4314  1.4401
 3777TIP3    H232747   5.801  -0.007   5.283  0.0853  0.0066  1.4387
 3778TIP3   OH232748   3.264   0.118  16.487 -0.4518  0.4063 -0.5443
 3778TIP3    H132749   3.270   0.045  16.425 -0.9888 -0.2780  0.1909
 3778TIP3    H232750   3.246   0.077  16.571  2.6718  1.1095  0.6161
 3779TIP3   OH232751   0.490   5.616  17.089  0.0449 -0.4658 -0.0394
 3779TIP3    H132752   0.540   5.698  17.080 -0.9794  0.2823  0.7996
 3779TIP3    H232753   0.405   5.636  17.049  0.5603 -1.9322 -2.0486
 3780TIP3   OH232754   3.666   2.948   3.297 -0.2770  0.1752 -0.2698
 3780TIP3    H132755   3.682   3.042   3.286  0.6334 -0.1199 -1.7585
 3780TIP3    H232756   3.710   2.907   3.222 -0.1318 -1.4926  0.6732
 3781TIP3   OH232757   6.371   5.695   0.416  0.0871  0.2381  0.4818
 3781TIP3    H132758   6.465   5.681   0.428  0.0921  1.0642  1.4420
 3781TIP3    H232759   6.347   5.761   0.480 -1.4767 -1.0949  1.3657
 3782TIP3   OH232760   1.109   5.071  14.688 -0.2781 -0.2075  0.1650
 3782TIP3    H132761   1.128   5.063  14.782  0.1495  1.5350  0.2728
 3782TIP3    H232762   1.165   5.005  14.646  1.6394  0.8257  0.9504
 3783TIP3   OH232763   1.906   0.371   0.074  0.5665 -0.0811  0.3424
 3783TIP3    H132764   1.954   0.435   0.127 -1.1027  1.0481  0.5572
 3783TIP3    H232765   1.882   0.301   0.135  2.0534 -0.7564  0.1915
 3784TIP3   OH232766   6.693   3.349   3.243  0.2092  0.0236  0.9592
 3784TIP3    H132767   6.601   3.345   3.271 -0.0780  0.1667  0.0789
 3784TIP3    H232768   6.698   3.429   3.190  0.6258 -0.4452  0.2684
 3785TIP3   OH232769   6.607   5.597   5.157  0.6920 -0.0423  0.1543
 3785TIP3    H132770   6.657   5.654   5.215 -2.0699  1.5165  1.1547
 3785TIP3    H232771   6.564   5.534   5.215  0.0267 -0.1855 -0.4728
 3786TIP3   OH232772   4.302   1.455   1.806  0.7067  0.4229  0.2059
 3786TIP3    H132773   4.265   1.542   1.790  0.5818  0.5641  1.2030
 3786TIP3    H232774   4.364   1.442   1.735 -0.4717  0.6320 -0.8908
 3787TIP3   OH232775   4.187   2.709  15.364  0.7441  0.4123  0.0693
 3787TIP3    H132776   4.119   2.714  15.432  0.4635  1.0974 -0.2564
 3787TIP3    H232777   4.229   2.624  15.379 -0.4929 -0.2447 -0.0186
 3788TIP3   OH232778   5.953   5.066   5.132 -0.3034 -0.3114 -0.2938
 3788TIP3    H132779   6.043   5.046   5.160 -1.2575 -4.4098  0.5420
 3788TIP3    H232780   5.946   5.027   5.045 -0.9475  1.2003 -0.9553
 3789TIP3   OH232781   4.500   6.128   4.485 -0.2475  0.0220 -0.4752
 3789TIP3    H132782   4.595   6.133   4.469 -0.4118  0.9355 -1.2433
 3789TIP3    H232783   4.465   6.206   4.445 -1.3822 -0.4481 -0.4334
 3790TIP3   OH232784   5.072   5.902   5.149  0.3923  0.1302  0.1083
 3790TIP3    H132785   5.123   5.970   5.193 -1.3103  1.1432  0.6130
 3790TIP3    H232786   5.108   5.820   5.183  0.7653  0.8386  1.5369
 3791TIP3   OH232787   6.068   5.287  12.024  0.4860  0.7817  0.0021
 3791TIP3    H132788   5.988   5.316  11.981  0.5341  1.6743  0.4902
 3791TIP3    H232789   6.121   5.248  11.953  0.5780  2.2395 -0.7697
 3792TIP3   OH232790   4.263   3.493   1.079 -0.0444  0.3679  0.6330
 3792TIP3    H132791   4.264   3.556   1.151 -0.3896  1.2574 -0.1369
 3792TIP3    H232792   4.236   3.543   1.002 -0.0920 -0.6616 -0.0441
 3793TIP3   OH232793   2.823   4.071   4.637 -0.1684  0.3971  0.6662
 3793TIP3    H132794   2.788   4.104   4.554  0.3820 -2.0677 -0.6396
 3793TIP3    H232795   2.748   4.072   4.697 -0.3467  3.1586  0.5620
 3794TIP3   OH232796   0.780   3.651  17.168  0.5246 -0.3955  0.1516
 3794TIP3    H132797   0.712   3.585  17.156 -0.9319  1.2500 -1.3220
 3794TIP3    H232798   0.844   3.633  17.099 -0.6505  0.5589 -1.2634
 3795TIP3   OH232799   0.017   0.139  14.233 -0.1040 -0.2260  0.2202
 3795TIP3    H132800   0.093   0.142  14.175  0.1005 -0.4205  0.4753
 3795TIP3    H232801   0.025   0.056  14.279 -0.7127 -0.4487 -0.0737
 3796TIP3   OH232802   0.535   5.509   5.259  0.3186 -0.5612  0.3781
 3796TIP3    H132803   0.530   5.462   5.342 -1.6514 -1.2581 -0.0608
 3796TIP3    H232804   0.509   5.444   5.193 -0.0748  0.4758 -0.5340
 3797TIP3   OH232805   3.177   4.651   2.621  0.3388 -0.1625 -0.5501
 3797TIP3    H132806   3.136   4.735   2.640  1.7907  0.5157 -0.3039
 3797TIP3    H232807   3.219   4.663   2.536  2.7959  0.2890  0.6357
 3798TIP3   OH232808   6.256   4.599  15.687 -0.3205 -0.3344 -0.3835
 3798TIP3    H132809   6.161   4.607  15.674 -0.3217  1.8673  0.5958
 3798TIP3    H232810   6.293   4.674  15.639  0.8995 -0.8958 -0.3597
 3799TIP3   OH232811   0.617   5.794   2.175 -0.6277  0.5942  0.0811
 3799TIP3    H132812   0.672   5.842   2.236  0.8299 -1.2794  0.3189
 3799TIP3    H232813   0.527   5.813   2.202 -0.0733  2.2049  0.8661
 3800TIP3   OH232814   4.228   3.039   3.436 -0.1680  0.6584 -0.3820
 3800TIP3    H132815   4.298   3.024   3.500 -1.9138  1.1614  1.7447
 3800TIP3    H232816   4.202   3.130   3.450 -3.3580 -0.3519  1.2238
 3801TIP3   OH232817   3.291   5.825  15.636 -0.2937  1.0704  0.2760
 3801TIP3    H132818   3.230   5.794  15.570  2.2829 -0.8949 -1.3823
 3801TIP3    H232819   3.317   5.912  15.606 -1.6291  1.6136  0.6101
 3802TIP3   OH232820   6.027   4.254  11.010 -0.3309  0.1133 -0.0890
 3802TIP3    H132821   5.945   4.297  11.035 -0.6227 -0.3708 -0.1842
 3802TIP3    H232822   6.026   4.257  10.914 -1.7580 -2.5729 -0.2515
 3803TIP3   OH232823   4.912   6.656  16.629 -0.2352 -0.0974 -0.7248
 3803TIP3    H132824   4.856   6.705  16.688 -1.1662  0.6175 -2.1660
 3803TIP3    H232825   4.972   6.608  16.687  1.5312  3.5672  0.8029
 3804TIP3   OH232826   3.277   5.937   3.882  0.2424  0.3198 -0.5919
 3804TIP3    H132827   3.268   5.858   3.828 -1.7283 -0.2405  0.4931
 3804TIP3    H232828   3.251   5.910   3.970  1.4730  1.7181  0.2505
 3805TIP3   OH232829   2.095   6.103   0.987 -0.1690  0.1552  0.1992
 3805TIP3    H132830   2.026   6.041   0.963  0.7372 -1.0842  0.6361
 3805TIP3    H232831   2.166   6.085   0.925  0.4237  0.1515  0.8581
 3806TIP3   OH232832   2.695   4.941   5.377  0.5882  0.1816 -0.6894
 3806TIP3    H132833   2.754   5.016   5.390  0.3090  0.0784  1.6242
 3806TIP3    H232834   2.624   4.956   5.439  0.9002 -2.3556  0.4137
 3807TIP3   OH232835   2.509   3.970   3.961  0.9500  0.0340 -0.5535
 3807TIP3    H132836   2.581   3.953   3.900  0.6844  0.5188 -0.9983
 3807TIP3    H232837   2.450   3.895   3.949  0.5722  0.4538 -1.3670
 3808TIP3   OH232838   5.958   2.124   3.166 -0.1232 -0.6153 -0.2121
 3808TIP3    H132839   6.052   2.143   3.168 -0.3220  0.4688 -0.7191
 3808TIP3    H232840   5.946   2.076   3.084  0.2469 -2.3154  0.6836
 3809TIP3   OH232841   6.259   1.538  12.954  0.5848  0.1720  0.1250
 3809TIP3    H132842   6.172   1.519  12.990  0.7969  1.6190  1.5071
 3809TIP3    H232843   6.306   1.455  12.962 -0.7413 -0.7419 -0.9740
 3810TIP3   OH232844   0.101   3.786   2.425 -0.4690  0.1514 -0.2372
 3810TIP3    H132845   0.176   3.745   2.468 -0.0211  1.8914  0.7335
 3810TIP3    H232846   0.137   3.827   2.347 -0.7064 -0.3243 -0.6011
 3811TIP3   OH232847   4.601   6.259  17.005  0.4033 -0.1126 -0.4648
 3811TIP3    H132848   4.667   6.189  16.995  0.8397  0.1195  0.6026
 3811TIP3    H232849   4.628   6.326  16.943  1.2476  0.0195  0.0297
 3812TIP3   OH232850   3.198   1.822  13.263  0.0608 -0.2996  0.1746
 3812TIP3    H132851   3.220   1.914  13.248 -1.6183  0.2478  0.7692
 3812TIP3    H232852   3.259   1.794  13.331  0.0513  0.6243  0.5822
 3813TIP3   OH232853   5.663   3.692   6.691 -0.0117 -0.3300 -0.5119
 3813TIP3    H132854   5.757   3.692   6.708 -0.2958 -0.1328  1.1899
 3813TIP3    H232855   5.646   3.778   6.652  0.2762  0.2884  0.6925
 3814TIP3   OH232856   1.347   1.510   1.092  0.4639 -0.2518  0.3844
 3814TIP3    H132857   1.430   1.497   1.047 -0.3573  1.1430 -1.6561
 3814TIP3    H232858   1.372   1.551   1.175  1.8282 -0.0540 -0.0901
 3815TIP3   OH232859   6.120   4.256   0.639  0.4860  0.5040  0.5502
 3815TIP3    H132860   6.109   4.183   0.699  1.9963  0.0836  0.3591
 3815TIP3    H232861   6.143   4.215   0.555 -0.1872  1.1385  0.0461
 3816TIP3   OH232862   5.939   3.188  13.889  0.1248  0.1458 -0.0926
 3816TIP3    H132863   5.906   3.139  13.964  0.5621 -0.8188 -0.5074
 3816TIP3    H232864   5.999   3.252  13.926 -1.5399  1.3957  0.5963
 3817TIP3   OH232865   1.029   2.089  15.044 -0.7560 -0.1576 -0.0288
 3817TIP3    H132866   1.103   2.129  14.997 -1.0237  1.1492  0.6094
 3817TIP3    H232867   1.047   1.995  15.041 -0.1065 -0.0237 -1.6175
 3818TIP3   OH232868   4.529   0.175   0.180  0.0444 -0.3247  0.3848
 3818TIP3    H132869   4.561   0.091   0.150 -0.5001  0.2140 -1.9032
 3818TIP3    H232870   4.439   0.180   0.147 -0.6357  0.3504  2.1982
 3819TIP3   OH232871   5.491   0.773   4.872 -0.2157  0.2245 -0.5471
 3819TIP3    H132872   5.504   0.805   4.961  1.9683  0.1591 -0.7896
 3819TIP3    H232873   5.401   0.739   4.872 -0.3557  0.4289  1.5484
 3820TIP3   OH232874   1.466   1.435   1.940  0.1881  0.1984  0.1014
 3820TIP3    H132875   1.532   1.504   1.939 -0.0365  0.4162  0.0322
 3820TIP3    H232876   1.394   1.470   1.886  0.7854 -0.7957 -1.4096
 3821TIP3   OH232877   3.019   3.660  11.583 -0.1131 -0.0237  0.1044
 3821TIP3    H132878   3.085   3.606  11.539 -0.9085 -0.4202 -0.6267
 3821TIP3    H232879   3.070   3.731  11.624  0.6573  0.6219 -1.8345
 3822TIP3   OH232880   3.742   3.370  13.743 -0.3924  0.1197  0.4226
 3822TIP3    H132881   3.772   3.280  13.755  1.8073  0.7404  0.0161
 3822TIP3    H232882   3.716   3.399  13.830 -1.0358 -0.8471  0.5735
 3823TIP3   OH232883   2.436   4.679   1.390 -1.2970 -0.1522 -0.3248
 3823TIP3    H132884   2.419   4.772   1.380 -0.6819 -0.0355 -0.3156
 3823TIP3    H232885   2.527   4.674   1.420 -1.7104 -0.6876  0.9274
 3824TIP3   OH232886   0.996   1.774   2.994 -0.8634  0.3421 -0.0539
 3824TIP3    H132887   0.959   1.737   3.074 -0.3396  0.0721  0.0651
 3824TIP3    H232888   0.955   1.860   2.987 -1.6110 -0.0023  0.0022
 3825TIP3   OH232889   2.365   1.382  13.991  0.1572  0.3518 -0.2733
 3825TIP3    H132890   2.451   1.341  13.991 -0.7055 -1.5786 -0.0346
 3825TIP3    H232891   2.348   1.402  14.083 -0.7316 -1.7918  0.0776
 3826TIP3   OH232892   1.001   0.540  15.335  0.0630 -0.3167  0.3545
 3826TIP3    H132893   0.951   0.498  15.265  1.4270 -0.7497 -0.3875
 3826TIP3    H232894   1.033   0.467  15.389 -0.0861 -0.0479  0.8119
 3827TIP3   OH232895   0.953   4.344   1.057  0.0251 -0.2359 -0.3556
 3827TIP3    H132896   0.982   4.296   1.135  2.5865  0.8012 -0.5805
 3827TIP3    H232897   0.921   4.275   0.998  1.6303 -1.4796  0.1447
 3828TIP3   OH232898   3.795   6.629   0.477 -0.1586  0.0493  0.2824
 3828TIP3    H132899   3.734   6.556   0.490 -1.7991  1.5309  1.3068
 3828TIP3    H232900   3.849   6.630   0.556  1.7937 -1.7025 -0.9260
 3829TIP3   OH232901   5.356   0.471  16.869 -0.0956 -0.1118  0.8640
 3829TIP3    H132902   5.393   0.396  16.823 -0.2106 -0.3185  1.1097
 3829TIP3    H232903   5.284   0.435  16.920 -1.4479  0.4768 -0.5547
 3830TIP3   OH232904   2.231   4.918  13.583  0.3020 -0.4738 -0.1846
 3830TIP3    H132905   2.284   4.839  13.597 -1.5047 -2.1630 -2.1095
 3830TIP3    H232906   2.227   4.927  13.487 -1.5445  0.5332 -0.0437
 3831TIP3   OH232907   2.483   1.891  10.155  0.2169 -0.0913 -0.0469
 3831TIP3    H132908   2.479   1.796  10.144  0.0827  0.0269 -1.1704
 3831TIP3    H232909   2.520   1.904  10.242  3.2847 -1.1827 -1.0573
 3832TIP3   OH232910   5.666   3.355  10.928  0.7230 -0.0677 -0.0656
 3832TIP3    H132911   5.757   3.372  10.903  0.5079  0.6776 -0.3519
 3832TIP3    H232912   5.641   3.431  10.980 -0.2991  0.6112 -1.4865
 3833TIP3   OH232913   4.181   5.087  16.897 -0.3652  0.4250 -0.3100
 3833TIP3    H132914   4.191   5.177  16.867  0.5179  0.5377  0.2807
 3833TIP3    H232915   4.145   5.040  16.822  1.9774  0.6360 -1.6598
 3834TIP3   OH232916   2.836   1.731  10.831  0.1105 -0.0541  0.0020
 3834TIP3    H132917   2.759   1.709  10.884  0.8492 -1.3058  0.5915
 3834TIP3    H232918   2.842   1.660  10.767 -0.0249  0.7771 -0.9504
 3835TIP3   OH232919   5.528   0.392   4.608 -0.1885 -0.4367 -0.2913
 3835TIP3    H132920   5.493   0.418   4.523  0.5283  1.8303  0.0256
 3835TIP3    H232921   5.451   0.379   4.663 -0.6396 -1.4939 -1.1389
 3836TIP3   OH232922   1.932   1.786  12.114 -0.3648 -0.1228  0.0080
 3836TIP3    H132923   1.945   1.820  12.025 -0.8002 -0.8592 -0.3575
 3836TIP3    H232924   1.840   1.760  12.116 -0.3869  0.0002  0.7228
 3837TIP3   OH232925   5.828   5.047  14.306 -0.0225  0.1529  0.3629
 3837TIP3    H132926   5.820   4.977  14.240 -1.2369  0.4969  0.1297
 3837TIP3    H232927   5.763   5.112  14.280  2.4172  2.3989 -0.6310
 3838TIP3   OH232928   5.587   4.165  11.484 -0.1971  0.0581  0.2384
 3838TIP3    H132929   5.650   4.234  11.464 -2.2105  1.6897 -0.9011
 3838TIP3    H232930   5.618   4.089  11.435  1.2761  0.5620  0.3382
 3839TIP3   OH232931   4.261   3.931   4.065  0.2505 -0.2404 -0.8211
 3839TIP3    H132932   4.295   3.937   4.154  1.7812 -0.8577 -1.3366
 3839TIP3    H232933   4.178   3.884   4.074 -0.6737  1.5276  0.5013
 3840TIP3   OH232934   4.083   0.631  12.393  0.6326  0.0275  0.4534
 3840TIP3    H132935   4.061   0.552  12.344 -0.9101 -0.8601  2.4283
 3840TIP3    H232936   4.130   0.686  12.331 -0.4223 -1.4032 -1.7071
 3841TIP3   OH232937   0.555   1.423   2.532  0.2654  0.0521 -0.1643
 3841TIP3    H132938   0.599   1.461   2.457 -0.2065  1.4214  0.2249
 3841TIP3    H232939   0.472   1.470   2.538 -0.8663 -1.8284 -0.3241
 3842TIP3   OH232940   5.968   5.349   5.533 -0.2939 -0.0570  0.5047
 3842TIP3    H132941   5.884   5.327   5.493 -0.1788  1.9657 -1.0296
 3842TIP3    H232942   5.999   5.426   5.484  1.3736  0.6708  2.5128
 3843TIP3   OH232943   6.699   5.274  12.099 -0.0957 -0.4342  0.2650
 3843TIP3    H132944   6.691   5.335  12.026  0.3232  1.3629  1.6444
 3843TIP3    H232945   6.794   5.265  12.112 -0.1648 -0.1365  1.0385
 3844TIP3   OH232946   1.494   4.794  11.610  0.0624 -0.0363 -0.0940
 3844TIP3    H132947   1.439   4.840  11.546  0.0040 -0.2587 -0.2063
 3844TIP3    H232948   1.564   4.856  11.631  0.6597 -0.3262 -1.1397
 3845TIP3   OH232949   6.715   3.654  15.204 -0.7022 -0.4262 -0.5687
 3845TIP3    H132950   6.762   3.582  15.161 -1.2471 -0.4317 -1.1576
 3845TIP3    H232951   6.651   3.683  15.140 -1.8781 -0.7645  0.4278
 3846TIP3   OH232952   6.338   2.089   2.337  0.0748 -0.3054 -0.8788
 3846TIP3    H132953   6.354   2.093   2.431 -0.7714 -0.9994 -0.6821
 3846TIP3    H232954   6.255   2.136   2.325  0.8475  0.9307 -1.4714
 3847TIP3   OH232955   1.649   1.938  13.279  0.0471 -0.9499 -0.1005
 3847TIP3    H132956   1.744   1.944  13.292  0.2189 -0.4757 -1.4261
 3847TIP3    H232957   1.636   1.957  13.186 -1.5539  1.4557  0.5133
 3848TIP3   OH232958   1.676   3.260   4.755  0.0886 -0.3580  0.1556
 3848TIP3    H132959   1.738   3.188   4.763 -0.4429 -1.0115 -1.3115
 3848TIP3    H232960   1.683   3.307   4.838 -0.5126 -2.8535  1.7188
 3849TIP3   OH232961   5.780   6.276   2.132 -0.2434 -0.3178 -0.9126
 3849TIP3    H132962   5.779   6.367   2.105  0.8785 -0.0587 -0.1285
 3849TIP3    H232963   5.853   6.269   2.194  0.2319 -1.9231 -1.5840
 3850TIP3   OH232964   3.435   0.589  16.626  0.4756 -0.3237  0.3729
 3850TIP3    H132965   3.410   0.666  16.677  1.3973 -0.8114  1.6041
 3850TIP3    H232966   3.359   0.530  16.632  0.1929  0.0290  0.3235
 3851TIP3   OH232967   4.934   5.027   2.451  0.1750 -0.1748 -0.0723
 3851TIP3    H132968   4.934   5.061   2.361 -1.0577 -0.1524 -0.0843
 3851TIP3    H232969   4.855   5.065   2.490 -0.0939 -1.3497  0.5644
 3852TIP3   OH232970   0.712   0.466  13.047 -0.4723  0.1824  0.3145
 3852TIP3    H132971   0.725   0.542  12.990  0.6873  1.4173  2.1195
 3852TIP3    H232972   0.654   0.498  13.117  0.9859 -0.1893  1.7522
 3853TIP3   OH232973   2.996   4.977   0.253  0.0325 -0.1245  0.1752
 3853TIP3    H132974   2.937   5.026   0.311  1.4574  1.0794  0.6503
 3853TIP3    H232975   3.055   5.043   0.218 -0.1040 -1.0129 -1.8260
 3854TIP3   OH232976   4.067   4.892   2.039 -0.1402 -0.2978 -0.1316
 3854TIP3    H132977   4.156   4.880   2.073 -0.3235 -0.9437  0.1304
 3854TIP3    H232978   4.026   4.806   2.047 -0.4225 -0.2889 -1.3126
 3855TIP3   OH232979   3.104   5.847  15.845  0.0615 -0.0769 -0.5006
 3855TIP3    H132980   3.189   5.847  15.802  0.5842 -0.1924  0.5126
 3855TIP3    H232981   3.088   5.755  15.866  0.0973  0.0486  0.0970
 3856TIP3   OH232982   1.724   2.270   3.255 -0.4878  0.1582  0.4546
 3856TIP3    H132983   1.729   2.282   3.350  2.6713  2.0638  0.2027
 3856TIP3    H232984   1.769   2.187   3.239 -1.1289 -0.2244  0.6146
 3857TIP3   OH232985   1.376   6.503   5.446 -0.7449 -0.4820  0.1296
 3857TIP3    H132986   1.365   6.581   5.392  0.0855  0.0564  0.7315
 3857TIP3    H232987   1.287   6.482   5.476 -1.0829 -0.2580 -0.6990
 3858TIP3   OH232988   4.928   2.840  12.465 -0.1027 -0.0023  0.6448
 3858TIP3    H132989   4.938   2.861  12.558 -0.5758  0.6461  0.5540
 3858TIP3    H232990   4.864   2.903  12.432  0.4339  0.1143 -0.2377
 3859TIP3   OH232991   4.808   3.763  14.287 -0.0927 -0.4705 -0.3188
 3859TIP3    H132992   4.897   3.766  14.321 -0.4469  0.1357  0.5890
 3859TIP3    H232993   4.753   3.757  14.365 -0.9222  0.8115 -0.7758
 3860TIP3   OH232994   4.812   5.204  12.029  0.4280  0.0452  0.2487
 3860TIP3    H132995   4.842   5.116  12.007  0.9198  0.3871 -0.4888
 3860TIP3    H232996   4.765   5.193  12.111  2.4677 -0.5458  1.4149
 3861TIP3   OH232997   6.270   4.701  16.577 -0.1077  0.1463  0.3765
 3861TIP3    H132998   6.330   4.705  16.652 -1.2546  1.2530  1.2858
 3861TIP3    H232999   6.192   4.658  16.612 -0.9235  1.2992  0.0412
 3862TIP3   OH233000   1.111   5.598   4.881  0.0004 -0.5054  0.1235
 3862TIP3    H133001   1.075   5.576   4.967  0.0993  0.1163  0.3283
 3862TIP3    H233002   1.205   5.606   4.895  0.1129 -1.1596 -0.2086
 3863TIP3   OH233003   0.050   4.459   5.217 -0.0682  0.3438 -0.5130
 3863TIP3    H133004   0.122   4.470   5.280 -0.2790 -1.3616  0.0845
 3863TIP3    H233005  -0.005   4.536   5.231 -1.1798 -0.8625  2.9197
 3864TIP3   OH233006   6.551   2.531  11.224 -0.0204 -0.2165 -0.1067
 3864TIP3    H133007   6.547   2.609  11.169 -0.1783 -0.0130  0.1960
 3864TIP3    H233008   6.475   2.479  11.198 -0.7968  0.4509  0.7827
 3865TIP3   OH233009   1.304   2.949  11.965  0.4937 -0.3537  0.6226
 3865TIP3    H133010   1.226   3.003  11.955  0.1334 -0.7301  1.3110
 3865TIP3    H233011   1.312   2.936  12.060  1.9716  0.5157  0.6363
 3866TIP3   OH233012   3.803   1.291   5.258  0.5524 -0.1744  0.7287
 3866TIP3    H133013   3.816   1.251   5.344  0.9505 -0.6961  0.4306
 3866TIP3    H233014   3.768   1.220   5.203  0.1079  0.2058  0.5111
 3867TIP3   OH233015   3.647   6.385   0.447 -0.0928 -0.0608 -0.1720
 3867TIP3    H133016   3.628   6.342   0.364 -2.3513  0.4489  0.0246
 3867TIP3    H233017   3.674   6.314   0.506  3.3586 -0.2400 -1.7116
 3868TIP3   OH233018   6.250   6.336   3.855  0.0251 -0.2118 -0.0303
 3868TIP3    H133019   6.315   6.266   3.855  0.8998  0.5648  1.3029
 3868TIP3    H233020   6.255   6.374   3.768 -0.3792 -1.7049 -0.7437
 3869TIP3   OH233021   5.585   5.634  15.984  0.4004  0.6221 -0.2759
 3869TIP3    H133022   5.501   5.609  15.946 -0.0228  0.3163  0.8324
 3869TIP3    H233023   5.609   5.561  16.041  0.9609  1.1149  0.1418
 3870TIP3   OH233024   4.205   6.353   2.880 -0.3813 -0.1136  0.0097
 3870TIP3    H133025   4.202   6.423   2.815 -2.8672  2.3371  2.4990
 3870TIP3    H233026   4.132   6.296   2.858  0.0157 -0.4517 -0.4633
 3871TIP3   OH233027   2.212   5.183   1.217 -0.5051  0.0078 -0.0136
 3871TIP3    H133028   2.264   5.174   1.137 -0.7187 -0.0966 -0.1437
 3871TIP3    H233029   2.247   5.261   1.260  0.2699 -0.5025  0.2935
 3872TIP3   OH233030   0.200   3.307   2.627  0.0003 -0.0373  0.1813
 3872TIP3    H133031   0.171   3.395   2.654  1.4870  0.5407 -0.0015
 3872TIP3    H233032   0.121   3.264   2.595 -0.8498  1.0633  0.7407
 3873TIP3   OH233033   6.605   4.861   4.921 -0.5637  0.1066 -0.3566
 3873TIP3    H133034   6.531   4.805   4.898 -0.9370  1.6204 -3.2213
 3873TIP3    H233035   6.565   4.946   4.940  0.3440  0.5754 -0.5114
 3874TIP3   OH233036   3.530   1.388  14.198 -0.4855 -0.0402  0.3841
 3874TIP3    H133037   3.560   1.329  14.129  0.7797  0.7009  0.2636
 3874TIP3    H233038   3.447   1.351  14.227 -0.4362 -1.0481 -0.6901
 3875TIP3   OH233039   1.291   1.139   6.198  0.6787 -0.0469  0.2695
 3875TIP3    H133040   1.221   1.203   6.200 -0.7216 -1.4220  4.3402
 3875TIP3    H233041   1.361   1.182   6.148 -0.5320  4.1791  1.7702
 3876TIP3   OH233042   0.560   5.425   1.695  0.2999  0.2827  0.8228
 3876TIP3    H133043   0.482   5.431   1.751  0.3257  0.1262  0.8781
 3876TIP3    H233044   0.563   5.333   1.668 -0.2599  0.5736 -0.2397
 3877TIP3   OH233045   2.476   5.818   6.167  0.5313 -0.2405 -1.0709
 3877TIP3    H133046   2.411   5.808   6.236 -0.6656 -0.6564 -2.2141
 3877TIP3    H233047   2.555   5.777   6.203 -0.5818 -2.1446 -0.6382
 3878TIP3   OH233048   6.134   1.627   1.357 -0.2158  0.1237  0.3582
 3878TIP3    H133049   6.213   1.625   1.411 -0.1885 -0.3636  0.3073
 3878TIP3    H233050   6.166   1.629   1.267 -0.2576 -0.4214  0.3284
 3879TIP3   OH233051   0.008   5.822   0.644 -0.0386  0.5999 -0.0187
 3879TIP3    H133052  -0.084   5.841   0.623 -0.5897 -3.1792 -1.7437
 3879TIP3    H233053   0.003   5.755   0.712  1.5363  1.2767  0.8008
 3880TIP3   OH233054   5.169   2.461   4.354 -0.7232  0.2753  0.7384
 3880TIP3    H133055   5.236   2.477   4.287 -1.5681  0.6388 -0.0436
 3880TIP3    H233056   5.191   2.522   4.424 -0.5276  0.7582  0.2687
 3881TIP3   OH233057   3.724   2.644  15.161  0.5149  0.5873 -0.0447
 3881TIP3    H133058   3.754   2.682  15.078 -0.0370  0.4589 -0.3051
 3881TIP3    H233059   3.794   2.583  15.185  1.2354  1.4902  0.1968
 3882TIP3   OH233060   0.449   1.940   0.258  0.6035  0.6032  0.1351
 3882TIP3    H133061   0.456   1.927   0.353 -0.8515  0.5636  0.2631
 3882TIP3    H233062   0.433   2.034   0.248  0.0349  0.4964 -0.0090
 3883TIP3   OH233063   0.681   4.725  13.409  0.0491 -0.0580  0.0817
 3883TIP3    H133064   0.737   4.790  13.366  0.5788 -0.2549  0.4618
 3883TIP3    H233065   0.602   4.723  13.356  1.0713 -1.0411 -1.5021
 3884TIP3   OH233066   0.640   0.248  16.042 -0.3229  0.2604  0.4152
 3884TIP3    H133067   0.624   0.205  15.958 -3.0665  0.3270  0.8273
 3884TIP3    H233068   0.597   0.333  16.034  1.0089  1.0593  1.2647
 3885TIP3   OH233069   5.146   1.261  12.638 -0.1654 -0.5234 -0.4988
 3885TIP3    H133070   5.215   1.237  12.576  0.2381 -1.0642  0.1390
 3885TIP3    H233071   5.126   1.180  12.684 -1.3100 -0.3936 -0.7393
 3886TIP3   OH233072   4.371   2.481   0.325  0.1260  0.5076 -0.3900
 3886TIP3    H133073   4.352   2.539   0.251  2.6130  0.0730 -1.4675
 3886TIP3    H233074   4.368   2.538   0.402 -0.6255  1.3694 -1.0437
 3887TIP3   OH233075   5.933   1.407   1.613  0.2709 -0.0693  0.5217
 3887TIP3    H133076   5.875   1.342   1.654  0.3064 -0.5264 -0.1450
 3887TIP3    H233077   6.012   1.405   1.667 -0.1344  0.1876  1.1335
 3888TIP3   OH233078   2.567   4.940   1.073  0.0072  0.2989 -0.2690
 3888TIP3    H133079   2.655   4.969   1.098 -0.1922  0.4824  0.2325
 3888TIP3    H233080   2.573   4.845   1.071  0.4628  0.3355 -1.1642
 3889TIP3   OH233081   5.451   0.582   4.174  0.1851 -0.1405 -0.5636
 3889TIP3    H133082   5.516   0.527   4.219  0.1807  0.1023 -0.2602
 3889TIP3    H233083   5.418   0.527   4.103 -1.8240 -1.5668  1.3499
 3890TIP3   OH233084   5.909   2.643  16.493  0.3132 -0.3261  0.1249
 3890TIP3    H133085   5.822   2.623  16.459  0.3347  0.2232 -0.2534
 3890TIP3    H233086   5.965   2.574  16.457 -0.3799 -2.2464  2.4247
 3891TIP3   OH233087   2.149   3.508  13.409 -0.1861 -0.1121 -0.5704
 3891TIP3    H133088   2.117   3.521  13.498  0.1713 -1.5754 -0.2021
 3891TIP3    H233089   2.243   3.523  13.415 -0.5368  3.1237 -1.4351
 3892TIP3   OH233090   0.991   0.524   1.248  0.1346  0.0584  0.2368
 3892TIP3    H133091   0.972   0.504   1.156  3.1019  0.4114 -0.5677
 3892TIP3    H233092   1.074   0.479   1.265 -1.3649 -1.8111  3.4838
 3893TIP3   OH233093   5.747   5.470  16.826 -0.1525  0.0950 -0.3075
 3893TIP3    H133094   5.685   5.537  16.852  0.3753  0.3625  0.2743
 3893TIP3    H233095   5.763   5.487  16.733 -0.9507  0.0104 -0.4677
 3894TIP3   OH233096   0.427   4.068   5.738  0.0436  0.1423 -0.0052
 3894TIP3    H133097   0.398   3.993   5.791 -0.8290 -0.8426 -1.7758
 3894TIP3    H233098   0.349   4.095   5.690  1.0746  0.1512 -1.7478
 3895TIP3   OH233099   4.043   1.745   2.634 -0.1921  0.1242  0.1714
 3895TIP3    H133100   4.034   1.698   2.716  0.7205 -0.5104 -0.0777
 3895TIP3    H233101   4.136   1.737   2.611 -0.3242  0.7514 -0.6394
 3896TIP3   OH233102   2.797   4.378   6.052  0.1422 -0.0582 -0.1309
 3896TIP3    H133103   2.711   4.421   6.053  0.1903  0.1300 -1.7157
 3896TIP3    H233104   2.830   4.389   6.141 -0.3028  2.2901 -0.1771
 3897TIP3   OH233105   4.068   2.471   3.953 -0.4469 -0.3223 -0.2624
 3897TIP3    H133106   4.163   2.466   3.964 -0.2457 -0.7262 -1.9584
 3897TIP3    H233107   4.037   2.381   3.967 -0.7683  0.0233  1.5255
 3898TIP3   OH233108   1.604   4.774   3.759 -0.3332 -0.0671 -0.2235
 3898TIP3    H133109   1.540   4.740   3.821  0.0163  1.4045  1.0009
 3898TIP3    H233110   1.689   4.758   3.801 -0.0418  0.1153 -0.7328
 3899TIP3   OH233111   6.658   5.860   5.031  0.1006  0.0438  0.4108
 3899TIP3    H133112   6.648   5.777   4.984 -1.0199  0.3461  0.0927
 3899TIP3    H233113   6.697   5.836   5.115  2.4371 -0.4876 -0.7356
 3900TIP3   OH233114   6.032   5.845   5.578  0.5313 -1.2073 -0.0895
 3900TIP3    H133115   5.998   5.773   5.632  0.8470 -2.1323 -1.0942
 3900TIP3    H233116   5.993   5.923   5.616 -1.6215 -2.1018 -0.3498
 3901TIP3   OH233117   4.121   0.685   2.954  0.1146  0.5115 -0.1260
 3901TIP3    H133118   4.066   0.649   3.024  2.0690  0.3165  1.3937
 3901TIP3    H233119   4.173   0.611   2.923 -0.1982  0.7581 -1.3012
 3902TIP3   OH233120   4.249   6.403  12.143  0.1830 -0.6647 -0.0578
 3902TIP3    H133121   4.163   6.417  12.103  0.5667  1.1820 -0.3307
 3902TIP3    H233122   4.278   6.491  12.168  2.0050 -1.2454 -0.0013
 3903TIP3   OH233123   1.802   2.327  11.284 -0.3098  0.5925 -0.1828
 3903TIP3    H133124   1.877   2.328  11.224 -1.1127  1.1849 -1.1869
 3903TIP3    H233125   1.832   2.273  11.358  1.2154  1.0663 -0.4197
 3904TIP3   OH233126   5.351   2.506   0.489 -0.4155 -0.1249 -0.2640
 3904TIP3    H133127   5.266   2.549   0.480  0.0655  0.7216 -1.0758
 3904TIP3    H233128   5.393   2.519   0.403 -0.3422 -2.4761 -0.6444
 3905TIP3   OH233129   5.299   1.964  12.578  0.6669  0.1938  0.4700
 3905TIP3    H133130   5.246   2.037  12.609  1.0727  0.7438 -0.1251
 3905TIP3    H233131   5.256   1.936  12.498  0.4058 -0.3463  0.7929
 3906TIP3   OH233132   6.366   0.387  16.259  0.2488 -0.1480 -0.5096
 3906TIP3    H133133   6.431   0.405  16.191  0.3460 -0.7728 -0.5887
 3906TIP3    H233134   6.312   0.317  16.222  0.8748 -1.1620  0.4189
 3907TIP3   OH233135   2.582   5.910  13.865 -0.0608 -0.6822 -0.3508
 3907TIP3    H133136   2.528   5.989  13.875 -0.2544 -0.4100 -2.9201
 3907TIP3    H233137   2.672   5.940  13.878 -0.2782 -0.5205  0.8897
 3908TIP3   OH233138   3.831   4.650   0.911  0.4293 -0.6002 -0.4111
 3908TIP3    H133139   3.921   4.625   0.888  1.0588  1.5029 -0.5254
 3908TIP3    H233140   3.818   4.614   0.998  1.5287 -0.6745 -0.2578
 3909TIP3   OH233141   2.936   4.821   0.020 -0.1948 -0.2956 -0.3910
 3909TIP3    H133142   2.964   4.867   0.098  1.0078 -0.4242 -0.7288
 3909TIP3    H233143   2.918   4.731   0.049 -0.2002 -0.2277 -0.1857
 3910TIP3   OH233144   0.087   1.785   4.224 -0.2172  0.1601 -0.1170
 3910TIP3    H133145   0.043   1.711   4.181  0.8752  0.3213 -1.6047
 3910TIP3    H233146   0.040   1.862   4.192  0.6275  0.2838 -1.1010
 3911TIP3   OH233147   2.337   6.747  15.793 -0.0297 -0.0453  0.1159
 3911TIP3    H133148   2.305   6.657  15.791 -1.7819  0.5185  0.8167
 3911TIP3    H233149   2.313   6.780  15.879  0.8513  1.0121 -0.0154
 3912TIP3   OH233150   3.585   3.434  13.192  0.7089 -0.0136 -0.0250
 3912TIP3    H133151   3.606   3.353  13.238  2.4843  0.4230 -0.0019
 3912TIP3    H233152   3.667   3.459  13.150 -0.1526  1.1006 -1.0813
 3913TIP3   OH233153   6.245   3.774   1.547  0.2762 -1.0984 -0.8579
 3913TIP3    H133154   6.318   3.722   1.581  1.2259  0.8764  0.3313
 3913TIP3    H233155   6.283   3.827   1.477  0.0072 -0.0833 -0.2637
 3914TIP3   OH233156   3.926   3.815   1.682 -0.0657 -0.0773 -0.4036
 3914TIP3    H133157   3.980   3.796   1.605 -0.5865  0.2832 -0.8680
 3914TIP3    H233158   3.839   3.831   1.646  0.1567  2.4897 -0.0035
 3915TIP3   OH233159   0.426   1.905   0.828  0.5041 -0.3341  0.4797
 3915TIP3    H133160   0.410   1.966   0.900  0.9435 -0.0617  0.3427
 3915TIP3    H233161   0.357   1.925   0.764 -0.0087 -0.7065  0.9009
 3916TIP3   OH233162   4.398   5.117  15.900 -0.2388  0.7123 -0.0262
 3916TIP3    H133163   4.453   5.062  15.843  1.2446  1.5000  0.5907
 3916TIP3    H233164   4.357   5.055  15.960  1.6899  0.2498  0.8937
 3917TIP3   OH233165   1.880   5.822  17.121  0.2383  0.4395  0.6181
 3917TIP3    H133166   1.908   5.830  17.030  0.3288  2.0822  0.7519
 3917TIP3    H233167   1.795   5.866  17.124  1.2966  2.5888  1.7422
 3918TIP3   OH233168   0.728   5.722  12.428  0.1260 -0.8169 -0.3389
 3918TIP3    H133169   0.810   5.748  12.386 -0.0324  1.8489  0.7720
 3918TIP3    H233170   0.754   5.700  12.518 -0.5038  2.7580  0.9101
 3919TIP3   OH233171   5.514   5.953  11.305  0.1482 -0.3153  0.5279
 3919TIP3    H133172   5.567   6.022  11.344  0.9121 -1.0730  0.8558
 3919TIP3    H233173   5.450   5.930  11.372 -0.7282  0.7164  0.0713
 3920TIP3   OH233174   4.160   4.309   5.144 -0.1951 -0.0518 -0.3973
 3920TIP3    H133175   4.147   4.292   5.238  2.1618  1.7989  0.3713
 3920TIP3    H233176   4.183   4.402   5.140  0.7390 -0.3325 -2.6933
 3921TIP3   OH233177   0.615   0.727  12.444  0.6564  0.9148 -0.2061
 3921TIP3    H133178   0.639   0.799  12.503  1.0306  1.8066 -1.4036
 3921TIP3    H233179   0.615   0.767  12.357  1.5030 -0.6903 -0.9806
 3922TIP3   OH233180   4.928   0.406   3.711 -0.4833 -0.6168  0.0156
 3922TIP3    H133181   4.858   0.349   3.679  0.3765 -1.5025 -0.3236
 3922TIP3    H233182   4.923   0.484   3.656 -1.1397 -0.7118 -0.0676
 3923TIP3   OH233183   2.241   3.275   0.408  0.3431  0.6247 -0.2615
 3923TIP3    H133184   2.335   3.266   0.421  0.6106  1.1713 -1.6662
 3923TIP3    H233185   2.209   3.312   0.490  1.3017  0.1658  0.3347
 3924TIP3   OH233186   3.368   4.349  11.603 -0.8536  0.1823  0.4975
 3924TIP3    H133187   3.380   4.257  11.583 -1.0288  0.4181 -0.7790
 3924TIP3    H233188   3.402   4.359  11.692  1.7076 -0.5829 -0.3184
 3925TIP3   OH233189   0.395   6.247  13.563 -0.0729  0.4750  0.1398
 3925TIP3    H133190   0.450   6.306  13.512 -0.9294  1.0560 -0.1320
 3925TIP3    H233191   0.316   6.298  13.583 -0.9487 -0.6491 -0.3298
 3926TIP3   OH233192   1.521   3.349  11.651  0.3189  0.7771  0.5391
 3926TIP3    H133193   1.541   3.437  11.620  1.6781 -0.0508 -1.1748
 3926TIP3    H233194   1.599   3.324  11.702 -0.4553  0.8753  1.8070
 3927TIP3   OH233195   2.260   5.965  10.657 -0.5709 -0.2317 -0.0417
 3927TIP3    H133196   2.270   5.910  10.735 -1.2738 -0.4343 -0.0893
 3927TIP3    H233197   2.345   5.960  10.614  0.2436  0.8704  1.3417
 3928TIP3   OH233198   3.510   6.062   1.958 -0.3617 -0.0013  0.3300
 3928TIP3    H133199   3.534   6.151   1.984 -3.1059  0.0959  3.2927
 3928TIP3    H233200   3.515   6.011   2.039  1.9411 -2.8892 -1.4193
 3929TIP3   OH233201   1.772   0.868   3.856 -0.0411 -0.0835  0.2120
 3929TIP3    H133202   1.800   0.838   3.943 -0.6374 -0.2295  0.3585
 3929TIP3    H233203   1.787   0.963   3.859 -1.7828  0.1969  1.1579
 3930TIP3   OH233204   4.018   1.163   2.713 -0.0054  0.5078 -0.3876
 3930TIP3    H133205   3.940   1.114   2.741  0.8918 -0.1774  0.9994
 3930TIP3    H233206   4.071   1.099   2.666  1.3319 -0.0476  1.7249
 3931TIP3   OH233207   0.282   4.780   5.200 -0.2404  0.5312 -0.3275
 3931TIP3    H133208   0.231   4.818   5.271 -0.2102  1.9583 -1.0263
 3931TIP3    H233209   0.259   4.833   5.124  1.1904  0.2696 -0.9608
 3932TIP3   OH233210   6.564   3.380   5.841 -0.2070  0.6561  0.3562
 3932TIP3    H133211   6.481   3.337   5.820  0.0227  0.1277  0.5046
 3932TIP3    H233212   6.590   3.342   5.925 -0.1638  1.3407  0.6552
 3933TIP3   OH233213   2.558   1.124  12.668  0.1659 -0.3037 -0.1139
 3933TIP3    H133214   2.511   1.202  12.637 -1.3844 -0.6482  1.2367
 3933TIP3    H233215   2.650   1.147  12.658 -0.2606  0.9540 -1.5456
 3934TIP3   OH233216   6.117   5.574  16.591 -0.1925  0.4275 -0.3130
 3934TIP3    H133217   6.103   5.540  16.679 -0.8941  1.1391 -0.1395
 3934TIP3    H233218   6.165   5.656  16.604 -0.1513  0.4513 -0.6051
 3935TIP3   OH233219   0.880   4.111  16.558  0.4498 -0.0511 -0.4803
 3935TIP3    H133220   0.798   4.137  16.517 -0.5180 -0.8970  0.8279
 3935TIP3    H233221   0.892   4.174  16.629 -0.1902 -1.1633  0.6448
 3936TIP3   OH233222   6.126   5.555   0.916  0.5308 -0.3409  0.0517
 3936TIP3    H133223   6.075   5.495   0.861 -1.2374 -0.6167  1.8720
 3936TIP3    H233224   6.210   5.511   0.928  0.3059 -1.0921 -0.9465
 3937TIP3   OH233225   5.770   6.339   6.338  0.3489 -0.4409 -0.1205
 3937TIP3    H133226   5.758   6.261   6.284  0.9242 -0.2180 -0.5782
 3937TIP3    H233227   5.711   6.326   6.412 -0.6185 -0.6504 -0.9088
 3938TIP3   OH233228   3.529   3.158  10.866  0.4903  0.2068 -0.0051
 3938TIP3    H133229   3.617   3.157  10.904  0.6068 -0.6636 -0.2868
 3938TIP3    H233230   3.502   3.067  10.865 -0.3755  0.4574 -0.0326
 3939TIP3   OH233231   5.685   2.348  12.018 -0.0275 -0.4179  0.0744
 3939TIP3    H133232   5.777   2.336  12.044 -0.1328 -0.1220  0.5832
 3939TIP3    H233233   5.674   2.287  11.945  0.5568 -0.5061  0.0486
 3940TIP3   OH233234   4.114   2.316  15.050 -0.3040  0.3061 -0.4401
 3940TIP3    H133235   4.190   2.373  15.059  0.0824  0.0505 -1.8036
 3940TIP3    H233236   4.111   2.295  14.956 -1.6136 -0.2941 -0.2859
 3941TIP3   OH233237   4.326   1.551   5.269  0.1179 -0.1859 -0.2196
 3941TIP3    H133238   4.312   1.627   5.326  0.8925 -2.3694  3.1277
 3941TIP3    H233239   4.407   1.572   5.221 -0.6233  1.7741 -0.7096
 3942TIP3   OH233240   4.858   0.517  12.810  0.1268 -0.0708 -0.2890
 3942TIP3    H133241   4.866   0.596  12.863 -2.0518 -0.4019  0.6253
 3942TIP3    H233242   4.764   0.500  12.805  0.4498 -1.7905 -1.7069
 3943TIP3   OH233243   2.304   2.820  13.488  0.3358  0.1051  0.6195
 3943TIP3    H133244   2.340   2.761  13.553  0.4492  0.4335  0.8596
 3943TIP3    H233245   2.372   2.887  13.476 -0.3394  0.9482  1.3633
 3944TIP3   OH233246   3.155   1.006  12.951 -0.1185  0.5815  0.8753
 3944TIP3    H133247   3.084   1.033  12.893  1.2022  2.0118 -0.1321
 3944TIP3    H233248   3.166   1.079  13.011 -0.0031  0.0288  1.5413
 3945TIP3   OH233249   5.492   0.762  12.094  0.2244  0.0282 -0.3030
 3945TIP3    H133250   5.408   0.730  12.128  0.8004  0.4268  1.6219
 3945TIP3    H233251   5.473   0.785  12.003 -1.9403  0.6812  0.2325
 3946TIP3   OH233252   2.413   2.472   0.697  0.5771 -0.3358 -0.6491
 3946TIP3    H133253   2.378   2.386   0.676 -0.2082 -0.6027  1.4732
 3946TIP3    H233254   2.494   2.455   0.745  1.4290  0.1870 -1.8521
 3947TIP3   OH233255   5.845   6.022  10.972  0.0068 -0.0318  0.3263
 3947TIP3    H133256   5.801   6.066  10.899 -0.9341 -0.9559  0.3306
 3947TIP3    H233257   5.853   6.090  11.040 -3.2529 -0.3258  1.1304
 3948TIP3   OH233258   3.264   3.580   6.137  0.0254 -0.1882 -0.1624
 3948TIP3    H133259   3.335   3.642   6.122 -1.8315  1.7056 -1.8829
 3948TIP3    H233260   3.184   3.631   6.123 -1.7429 -2.0814  2.1639
 3949TIP3   OH233261   2.577   2.336   2.892  0.4470  0.1760  0.1917
 3949TIP3    H133262   2.615   2.423   2.878  0.3106  0.4794  1.6370
 3949TIP3    H233263   2.537   2.341   2.978  0.7033 -1.4262  0.4237
 3950TIP3   OH233264   3.175   0.046  14.021  0.3111  0.4130 -0.2216
 3950TIP3    H133265   3.222   0.129  14.023  0.3721  0.3985 -0.9523
 3950TIP3    H233266   3.244  -0.021  14.018  0.2582  0.3477 -0.0115
 3951TIP3   OH233267   3.409   5.143  12.008  0.4210  0.8170 -0.2080
 3951TIP3    H133268   3.446   5.189  11.932  2.8758  1.0895  1.0521
 3951TIP3    H233269   3.477   5.079  12.032  0.2881  1.5962  2.4961
 3952TIP3   OH233270   1.209   2.500  12.916 -0.4554 -0.1425 -0.5036
 3952TIP3    H133271   1.262   2.562  12.966 -1.9401  1.1341 -0.4552
 3952TIP3    H233272   1.187   2.431  12.979  1.6899 -1.0979 -0.7073
 3953TIP3   OH233273   2.525   6.196  16.963  0.6263 -0.1560  0.7626
 3953TIP3    H133274   2.528   6.168  16.871  0.2226 -1.2295  1.0647
 3953TIP3    H233275   2.460   6.267  16.964 -1.5084 -2.0049  0.6720
 3954TIP3   OH233276   1.074   5.619  16.466 -0.1549 -0.1809  0.5410
 3954TIP3    H133277   1.165   5.646  16.467 -0.1969 -0.0386  1.1412
 3954TIP3    H233278   1.075   5.529  16.434  0.7003 -1.8302  4.5374
 3955TIP3   OH233279   1.806   2.029   5.896  0.3253  0.5723  0.5370
 3955TIP3    H133280   1.822   2.063   5.984  0.2404 -1.4189  1.3637
 3955TIP3    H233281   1.712   2.011   5.893  0.2204  1.1745 -0.1807
 3956TIP3   OH233282   6.677   3.893   3.070 -0.1465  0.5027  0.1446
 3956TIP3    H133283   6.583   3.912   3.073 -0.0605  1.4672 -1.6378
 3956TIP3    H233284   6.717   3.959   3.126 -0.3711  1.6352 -0.9876
 3957TIP3   OH233285   0.850   4.823  15.823 -0.4420  0.1082  0.0426
 3957TIP3    H133286   0.800   4.877  15.762 -2.0219 -0.2072  0.9942
 3957TIP3    H233287   0.884   4.885  15.888 -0.6186  0.2021  0.0482
 3958TIP3   OH233288   0.888   1.997   1.637 -0.1211 -0.2596 -0.5751
 3958TIP3    H133289   0.915   1.907   1.618  0.7182 -0.8279  2.6702
 3958TIP3    H233290   0.793   1.996   1.626 -0.4270 -2.2137  1.3861
 3959TIP3   OH233291   3.382   0.128   4.993  0.2210  0.4289 -0.3625
 3959TIP3    H133292   3.364   0.050   5.044  0.0023  0.6945 -0.0307
 3959TIP3    H233293   3.382   0.199   5.057 -2.3514  1.1040 -0.9804
 3960TIP3   OH233294   4.078   2.677  14.885  0.3039 -0.4539 -0.5004
 3960TIP3    H133295   4.060   2.638  14.971 -1.2582  0.0320 -0.5766
 3960TIP3    H233296   4.168   2.652  14.866  0.8126 -0.3005  1.4309
 3961TIP3   OH233297   4.084   4.879  11.090 -0.1833 -0.4368  0.1192
 3961TIP3    H133298   3.999   4.880  11.135  0.4517  0.1518  1.3462
 3961TIP3    H233299   4.087   4.794  11.047 -2.0433  0.1001 -1.2265
 3962TIP3   OH233300   3.956   0.136   1.261 -0.4629 -0.2622 -0.3791
 3962TIP3    H133301   3.999   0.150   1.346  1.4307 -0.2626 -1.2714
 3962TIP3    H233302   3.923   0.046   1.265 -1.1364  0.0148  0.6447
 3963TIP3   OH233303   0.116   2.962  13.063 -0.0266 -0.1054  0.4263
 3963TIP3    H133304   0.126   2.912  13.144  1.0308 -0.0901  0.3156
 3963TIP3    H233305   0.023   2.987  13.062  0.0267  0.2338  1.8266
 3964TIP3   OH233306   4.046   0.952   5.580  0.3898 -0.2432  0.0762
 3964TIP3    H133307   4.055   0.858   5.595 -0.7951 -0.2789  0.6661
 3964TIP3    H233308   4.057   0.992   5.667 -0.5192  0.0417  0.0661
 3965TIP3   OH233309   1.230   5.235  12.962 -0.4098 -0.0100  0.2767
 3965TIP3    H133310   1.151   5.191  12.932  0.7345 -2.2071  0.3300
 3965TIP3    H233311   1.249   5.197  13.048 -0.4525  2.0532  1.2624
 3966TIP3   OH233312   1.694   0.899   5.014 -0.1537  0.4947  0.5875
 3966TIP3    H133313   1.673   0.958   4.941 -0.6903  0.9613  1.1117
 3966TIP3    H233314   1.738   0.955   5.078  0.0219  0.1541  0.7677
 3967TIP3   OH233315   5.667   2.736   4.710 -0.5709  0.3590  0.1481
 3967TIP3    H133316   5.728   2.764   4.779 -0.1185  1.7984 -0.7957
 3967TIP3    H233317   5.601   2.805   4.706 -1.9409 -0.8466  0.6866
 3968TIP3   OH233318   2.946   0.896  17.085 -0.0638 -0.0170 -0.0325
 3968TIP3    H133319   2.929   0.827  17.149 -0.1692  0.0551  0.0164
 3968TIP3    H233320   2.874   0.958  17.097  1.2868  1.3244  1.5895
 3969TIP3   OH233321   5.624   3.125  13.644  0.0250 -0.9131 -0.7281
 3969TIP3    H133322   5.553   3.187  13.659  1.6512  0.5110  2.1226
 3969TIP3    H233323   5.592   3.043  13.681  0.3465  0.1501  2.1722
 3970TIP3   OH233324   4.670   4.131  10.660 -0.3204  0.8106  0.3207
 3970TIP3    H133325   4.622   4.160  10.583  0.0757 -1.0439 -0.6819
 3970TIP3    H233326   4.608   4.075  10.707 -0.1081  0.8278  0.6217
 3971TIP3   OH233327   4.087   3.782   1.104  0.4755  0.0692  0.3779
 3971TIP3    H133328   4.002   3.781   1.148  1.4282 -1.6799  2.3652
 3971TIP3    H233329   4.149   3.808   1.172  1.6490  0.5592 -0.8314
 3972TIP3   OH233330   4.630   2.425   0.381 -0.0925 -0.2300 -0.8491
 3972TIP3    H133331   4.626   2.431   0.476  1.8964  1.1137 -0.8034
 3972TIP3    H233332   4.540   2.438   0.352 -0.5079  0.7841  0.7926
 3973TIP3   OH233333   0.366   2.794  12.440  0.0394  0.2623  0.4700
 3973TIP3    H133334   0.405   2.857  12.500 -0.1579  0.6555  0.1871
 3973TIP3    H233335   0.323   2.729  12.497  1.1090 -0.1847  0.7853
 3974TIP3   OH233336   4.669   6.365   0.406  0.4716  0.3012 -0.0838
 3974TIP3    H133337   4.700   6.312   0.332  0.6939 -1.7154  1.3795
 3974TIP3    H233338   4.583   6.330   0.427  0.2142  1.1628  0.3364
 3975TIP3   OH233339   5.189   6.116   3.498  0.2278 -0.4236  0.0807
 3975TIP3    H133340   5.218   6.070   3.577  2.7439  0.9801  0.0782
 3975TIP3    H233341   5.103   6.152   3.521  0.5561 -0.7215  1.9077
 3976TIP3   OH233342   2.623   3.564  15.422 -0.1188  0.1506  0.1336
 3976TIP3    H133343   2.533   3.561  15.454 -0.3137  0.8891 -0.3134
 3976TIP3    H233344   2.631   3.650  15.381  0.0044 -0.8412 -2.1146
 3977TIP3   OH233345   4.162   5.331  17.198 -0.2486 -0.2581 -0.1669
 3977TIP3    H133346   4.211   5.325  17.116  0.1228 -0.2060  0.0542
 3977TIP3    H233347   4.115   5.414  17.192 -0.4329 -0.3775 -0.4404
 3978TIP3   OH233348   3.414   1.370  14.542 -0.3857 -0.1173 -0.0334
 3978TIP3    H133349   3.390   1.349  14.452  0.2601  1.5380 -0.6342
 3978TIP3    H233350   3.479   1.304  14.566 -0.5455 -0.5544 -0.7936
 3979TIP3   OH233351   1.842   6.327  12.870  0.2281 -0.3824 -0.1663
 3979TIP3    H133352   1.827   6.321  12.965 -0.0453  1.5091 -0.0455
 3979TIP3    H233353   1.937   6.338  12.862  0.0805  1.2372  0.0415
 3980TIP3   OH233354   6.514   0.821  17.190 -0.6378 -0.5644  0.4789
 3980TIP3    H133355   6.498   0.914  17.208  1.5713 -0.0082 -0.0984
 3980TIP3    H233356   6.511   0.780  17.277 -0.7124  0.2189  0.8663
 3981TIP3   OH233357   3.180   1.430  12.193  0.2240 -0.2633  0.0717
 3981TIP3    H133358   3.258   1.467  12.153  1.6802 -1.0085  2.0258
 3981TIP3    H233359   3.152   1.496  12.256  1.3066 -1.2949  1.7242
 3982TIP3   OH233360   5.858   6.781  14.395  0.0475 -0.7590 -0.7323
 3982TIP3    H133361   5.820   6.694  14.388 -0.1334 -0.6702 -0.8650
 3982TIP3    H233362   5.784   6.841  14.380  0.0458 -0.5771 -0.0695
 3983TIP3   OH233363   2.656   4.129  15.488 -0.3733  0.1225  0.1991
 3983TIP3    H133364   2.633   4.168  15.572  0.0358 -1.3571  1.0360
 3983TIP3    H233365   2.735   4.079  15.506 -0.9458 -1.1837 -0.7837
 3984TIP3   OH233366   1.883   4.491   0.051 -0.5745 -0.1798 -0.1116
 3984TIP3    H133367   1.890   4.559   0.119 -2.1040  0.2617 -0.3712
 3984TIP3    H233368   1.958   4.433   0.068  0.8250  1.5778  0.0738
 3985TIP3   OH233369   5.286   4.803  12.868  0.1434  0.6051 -0.4855
 3985TIP3    H133370   5.219   4.852  12.820  0.9095  0.8929 -1.2878
 3985TIP3    H233371   5.327   4.869  12.924 -0.4940  0.3485  0.2895
 3986TIP3   OH233372   4.154   2.699   0.936  0.2874 -0.1296  0.2807
 3986TIP3    H133373   4.118   2.677   1.022  0.5130  1.1126  0.7238
 3986TIP3    H233374   4.137   2.623   0.882 -1.8765 -0.0688  0.8093
 3987TIP3   OH233375   2.309   5.237  12.434 -0.6609  0.2109 -0.4592
 3987TIP3    H133376   2.342   5.324  12.411 -0.9633 -0.2803 -3.0386
 3987TIP3    H233377   2.229   5.228  12.382 -0.7800 -1.5054 -0.0105
 3988TIP3   OH233378   3.537   5.420   0.141 -0.5258 -0.2414 -0.3969
 3988TIP3    H133379   3.511   5.501   0.097 -0.4496  0.6218  1.0709
 3988TIP3    H233380   3.589   5.373   0.076 -2.0728  0.0339 -1.8835
 3989TIP3   OH233381   3.333   4.447  14.306 -0.3461  0.3421  0.4487
 3989TIP3    H133382   3.305   4.469  14.395 -0.0885 -0.8175  0.8346
 3989TIP3    H233383   3.365   4.529  14.270 -0.1969  0.7711  1.5256
 3990TIP3   OH233384   6.275   3.297   2.152  0.2436  0.6490 -0.0453
 3990TIP3    H133385   6.187   3.258   2.151  1.0573 -1.3163 -0.9032
 3990TIP3    H233386   6.276   3.356   2.076 -0.6910  1.6194  0.6717
 3991TIP3   OH233387   4.229   5.435  15.386  0.5718  0.6638 -0.0618
 3991TIP3    H133388   4.141   5.466  15.368 -0.0812 -0.4268  1.0898
 3991TIP3    H233389   4.229   5.343  15.360  2.0920  1.1921 -2.2141
 3992TIP3   OH233390   1.848   0.406   4.249  0.2594  0.3462 -0.0903
 3992TIP3    H133391   1.861   0.390   4.156 -0.4936 -0.2213 -0.1100
 3992TIP3    H233392   1.758   0.378   4.266  0.1961  0.9743  0.6909
 3993TIP3   OH233393   6.536   2.916  14.698  0.3201 -0.1693 -0.1128
 3993TIP3    H133394   6.495   2.915  14.785 -0.1210 -2.7118 -0.2692
 3993TIP3    H233395   6.529   3.007  14.670 -3.2311  0.0142  0.8238
 3994TIP3   OH233396   6.593   2.100   3.349  0.5547 -0.1100  0.0929
 3994TIP3    H133397   6.621   2.009   3.364 -0.7448 -0.6955 -0.8367
 3994TIP3    H233398   6.520   2.112   3.409  2.0345  1.0757  1.7713
 3995TIP3   OH233399   5.292   4.560  14.734 -0.2022 -0.0799 -0.1591
 3995TIP3    H133400   5.309   4.545  14.641  0.3825 -0.3312 -0.0116
 3995TIP3    H233401   5.203   4.596  14.736  0.1597  0.8906 -0.8982
 3996TIP3   OH233402   0.658   1.026   0.416 -0.2194 -0.1130  0.1224
 3996TIP3    H133403   0.692   1.085   0.484 -0.7114  0.4416 -0.1042
 3996TIP3    H233404   0.719   0.953   0.415  0.3394  0.3405  0.4925
 3997TIP3   OH233405   2.338   4.668  13.586 -0.7002  0.6473 -0.1853
 3997TIP3    H133406   2.353   4.608  13.659  1.2537  1.4646  0.1422
 3997TIP3    H233407   2.265   4.629  13.537  1.6237 -3.0971 -1.0853
 3998TIP3   OH233408   1.758   4.917  12.597  0.0938 -0.0202 -0.2534
 3998TIP3    H133409   1.722   4.828  12.606  2.1733 -0.8529  0.5112
 3998TIP3    H233410   1.753   4.953  12.685  2.2751 -0.6735  0.1926
 3999TIP3   OH233411   2.184   4.329  12.244 -0.8339  0.6072  0.2872
 3999TIP3    H133412   2.246   4.373  12.187 -1.2981  0.3658 -0.4229
 3999TIP3    H233413   2.098   4.364  12.218 -1.4196 -1.8319 -1.4753
 4000TIP3   OH233414   2.611   6.019  15.039 -0.2532  0.2323 -0.1037
 4000TIP3    H133415   2.594   6.012  14.945  0.4704  1.7354 -0.3801
 4000TIP3    H233416   2.596   6.111  15.059  2.2372  0.5494  0.6715
 4001TIP3   OH233417   3.474   1.469   2.251  0.3063  0.2914 -0.0241
 4001TIP3    H133418   3.427   1.530   2.194 -0.3570 -0.6212 -0.4812
 4001TIP3    H233419   3.428   1.385   2.240  2.1586 -0.7083 -0.6892
 4002TIP3   OH233420   4.428   0.102   2.075  0.3966  0.3732 -0.0161
 4002TIP3    H133421   4.364   0.172   2.064  0.2013  0.4214  1.3159
 4002TIP3    H233422   4.428   0.083   2.169  0.4220 -1.4259 -0.3314
 4003TIP3   OH233423   4.128   2.702   5.092 -0.2204  0.1168  0.0432
 4003TIP3    H133424   4.181   2.755   5.151 -0.0517  0.6455 -0.5831
 4003TIP3    H233425   4.192   2.660   5.033 -0.4861  0.6810 -0.6510
 4004TIP3   OH233426   5.924   3.691  12.744 -0.2970  1.0320  0.1372
 4004TIP3    H133427   5.884   3.629  12.806 -2.0787  1.5039 -0.4869
 4004TIP3    H233428   5.975   3.750  12.799 -0.7652  0.6357  1.0156
 4005TIP3   OH233429   5.315   5.402   1.457 -0.2965 -0.0903 -1.0279
 4005TIP3    H133430   5.332   5.334   1.521 -0.4346 -0.7187 -1.6422
 4005TIP3    H233431   5.343   5.365   1.373 -0.3041  0.6334 -1.3678
 4006TIP3   OH233432   3.034   5.926  13.914 -0.1124  0.6720 -0.7364
 4006TIP3    H133433   3.030   5.990  13.843  0.3129  0.6886 -0.7497
 4006TIP3    H233434   3.001   5.846  13.876  2.2225  0.0601 -1.6684
 4007TIP3   OH233435   0.007   0.819  13.437  0.4662 -0.0042  0.1881
 4007TIP3    H133436  -0.079   0.782  13.416  0.1994  1.3218 -1.2777
 4007TIP3    H233437   0.011   0.816  13.532 -1.0453 -0.4753  0.2752
 4008TIP3   OH233438   3.099   6.127  15.019 -0.5731 -0.6762 -0.2051
 4008TIP3    H133439   3.022   6.151  15.070 -0.1095 -0.1325  0.2570
 4008TIP3    H233440   3.161   6.198  15.035 -0.0033 -1.0735 -0.6245
 4009TIP3   OH233441   6.714   5.321  10.388 -0.5183  0.7404 -0.3230
 4009TIP3    H133442   6.645   5.282  10.442  0.7050  0.7025  1.3117
 4009TIP3    H233443   6.676   5.401  10.353 -1.9579 -0.1787 -0.9199
 4010TIP3   OH233444   1.672   1.773   1.502  0.2990  0.1726 -0.7628
 4010TIP3    H133445   1.604   1.717   1.539 -1.2846  1.2586 -1.8755
 4010TIP3    H233446   1.743   1.714   1.480  0.4167 -0.8049  1.8638
 4011TIP3   OH233447   1.648   0.138  16.867  0.6407  0.2882 -0.0488
 4011TIP3    H133448   1.741   0.119  16.877  0.8219  0.8463 -0.6044
 4011TIP3    H233449   1.609   0.115  16.952  1.0363 -1.3182 -0.2631
 4012TIP3   OH233450   2.305   6.007   2.901 -0.5382 -0.1488 -0.1112
 4012TIP3    H133451   2.212   5.996   2.922 -0.5923  0.2443 -0.1320
 4012TIP3    H233452   2.307   6.086   2.846 -0.2993 -0.6760 -0.8740
 4013TIP3   OH233453   6.784   0.273   4.976  0.6721 -0.6434  0.2874
 4013TIP3    H133454   6.731   0.330   5.032  0.2190 -0.4599 -0.3163
 4013TIP3    H233455   6.875   0.295   4.999  0.4976 -0.6321  1.0039
 4014TIP3   OH233456   6.055   2.455  16.392 -0.5612 -0.8099  0.3334
 4014TIP3    H133457   6.087   2.367  16.416 -0.8952 -0.9056  0.4288
 4014TIP3    H233458   6.114   2.484  16.323  2.1287  0.5240  2.9262
 4015TIP3   OH233459   3.171   3.277   1.241  0.1175  0.0229  0.0822
 4015TIP3    H133460   3.148   3.200   1.189  0.7926 -0.7681  0.9365
 4015TIP3    H233461   3.266   3.284   1.234  0.1901  0.0734  0.9512
 4016TIP3   OH233462   3.210   0.311  11.059 -0.4806 -0.1376  0.1823
 4016TIP3    H133463   3.212   0.266  11.143  1.2532  1.9461  1.3736
 4016TIP3    H233464   3.302   0.316  11.033 -0.6838  1.9231 -0.2936
 4017TIP3   OH233465   5.511   2.374  13.863  0.2182 -0.0570  0.1592
 4017TIP3    H133466   5.547   2.286  13.873  1.1213  0.4549  1.6727
 4017TIP3    H233467   5.528   2.417  13.947  1.1580  2.0610 -1.0355
 4018TIP3   OH233468   0.318   1.333   4.379  0.0201  0.5240 -0.6195
 4018TIP3    H133469   0.242   1.390   4.396 -0.1714  0.0367  0.2564
 4018TIP3    H233470   0.286   1.245   4.401  0.5440  0.1837 -1.2132
 4019TIP3   OH233471   5.471   3.376  11.785 -0.1049 -0.5581  0.5396
 4019TIP3    H133472   5.482   3.370  11.880  1.1473  0.1127  0.4523
 4019TIP3    H233473   5.558   3.396  11.751 -0.3695 -1.5805 -0.8394
 4020TIP3   OH233474   1.100   0.376  15.884  0.2923  0.1100  0.2447
 4020TIP3    H133475   1.161   0.375  15.958  0.8217  0.3416 -0.1840
 4020TIP3    H233476   1.023   0.422  15.918  1.4563  2.3959 -0.0438
 4021TIP3   OH233477   4.666   1.331  16.878 -0.6995  0.1749  0.4253
 4021TIP3    H133478   4.664   1.368  16.789 -0.1044  1.0985  0.7766
 4021TIP3    H233479   4.699   1.242  16.866 -1.1746  0.0903 -0.3442
 4022TIP3   OH233480   5.889   5.110  12.589 -0.3995  0.6529 -0.2821
 4022TIP3    H133481   5.951   5.042  12.616 -0.9222  0.4399  0.3987
 4022TIP3    H233482   5.925   5.144  12.507 -0.2059 -0.5350 -0.6990
 4023TIP3   OH233483   3.402   4.486   1.499 -0.5617 -0.1951  0.1339
 4023TIP3    H133484   3.414   4.547   1.571  0.3175 -0.6898  0.4127
 4023TIP3    H233485   3.400   4.399   1.540  1.6418 -0.6393 -0.5343
 4024TIP3   OH233486   6.113   3.753   3.767  0.2349  0.6887 -0.2525
 4024TIP3    H133487   6.109   3.820   3.835  0.9926 -1.3152  1.8965
 4024TIP3    H233488   6.187   3.698   3.792  1.0293  0.3038 -3.1783
 4025TIP3   OH233489   5.342   1.099   4.629 -0.6945  0.8496  0.2555
 4025TIP3    H133490   5.395   1.169   4.591 -1.7735  0.7772 -1.5031
 4025TIP3    H233491   5.385   1.018   4.600 -0.3777  0.7818  0.9061
 4026TIP3   OH233492   4.944   4.125   2.964 -0.7448  0.1044  0.4196
 4026TIP3    H133493   4.960   4.052   3.024  0.2909  0.3802  0.5043
 4026TIP3    H233494   4.996   4.103   2.886 -2.0493 -0.2329 -0.3803
 4027TIP3   OH233495   6.556   1.762  12.192  0.0061 -0.0453 -0.3221
 4027TIP3    H133496   6.610   1.823  12.141  0.7434 -1.5547 -1.4311
 4027TIP3    H233497   6.616   1.721  12.254 -0.4585  0.2504  0.3401
 4028TIP3   OH233498   4.757   0.868  11.257 -0.4451  0.3614 -0.7178
 4028TIP3    H133499   4.801   0.944  11.219 -1.6762  0.1936 -2.6131
 4028TIP3    H233500   4.708   0.903  11.332 -0.3151  1.2666 -1.0483
 4029TIP3   OH233501   3.650   2.083  14.675 -0.2097 -0.4096 -0.2633
 4029TIP3    H133502   3.679   2.174  14.672  1.0251 -0.8022 -0.9768
 4029TIP3    H233503   3.575   2.080  14.616 -1.8924  0.6558  1.7238
 4030TIP3   OH233504   0.474   6.768  15.308  0.8332 -0.6327 -0.6499
 4030TIP3    H133505   0.525   6.687  15.312  0.6366 -0.7239  0.6068
 4030TIP3    H233506   0.397   6.749  15.361  0.0144 -0.1266 -1.6359
 4031TIP3   OH233507   3.656   3.447   1.669  0.2161  0.3621  0.1714
 4031TIP3    H133508   3.650   3.541   1.650  1.4808  0.2782 -0.7942
 4031TIP3    H233509   3.653   3.405   1.583  2.3019 -0.2934  0.3738
 4032TIP3   OH233510   3.989   3.026   4.180 -0.0134 -0.1151  0.1824
 4032TIP3    H133511   4.079   3.054   4.164 -0.0654 -0.1903 -0.2618
 4032TIP3    H233512   3.965   2.978   4.101 -1.0087  1.3005 -0.4188
 4033TIP3   OH233513   2.729   1.752   2.720  0.0579 -0.4877  0.5079
 4033TIP3    H133514   2.818   1.727   2.696 -0.1145 -0.3285 -0.3310
 4033TIP3    H233515   2.688   1.672   2.752  0.2162 -0.7719  0.0003
 4034TIP3   OH233516   6.674   4.529   3.583  0.6631  0.5544  0.0355
 4034TIP3    H133517   6.715   4.482   3.510  0.2662  0.6681 -0.2644
 4034TIP3    H233518   6.609   4.585   3.541  0.0280  0.1980  0.5282
 4035TIP3   OH233519   2.558   3.436   5.107  0.1614  0.6567  0.3642
 4035TIP3    H133520   2.592   3.370   5.167  0.1698 -0.3100 -0.6723
 4035TIP3    H233521   2.607   3.422   5.026 -2.2570 -0.4265 -1.0213
 4036TIP3   OH233522   4.887   2.098   2.934 -0.2075  0.6134 -0.6103
 4036TIP3    H133523   4.838   2.053   3.003  0.1792  1.6672  0.3727
 4036TIP3    H233524   4.823   2.112   2.864  0.1915 -3.7949 -2.2018
 4037TIP3   OH233525   2.312   5.483   4.426  0.1343 -0.8273 -0.2227
 4037TIP3    H133526   2.381   5.483   4.360  0.6988  0.3886  0.3214
 4037TIP3    H233527   2.255   5.410   4.403  0.0411 -0.1365 -2.3353
 4038TIP3   OH233528   1.779   1.617   2.217  0.2303 -0.2657  0.2384
 4038TIP3    H133529   1.799   1.594   2.308 -0.0417  0.2639  0.4417
 4038TIP3    H233530   1.820   1.703   2.205 -0.9511  0.3405  0.3286
 4039TIP3   OH233531   2.921   2.531  13.121  0.3274 -0.3861 -0.2520
 4039TIP3    H133532   2.920   2.526  13.026  3.2189 -1.0290 -0.3266
 4039TIP3    H233533   3.003   2.577  13.142 -0.7554  0.7084  1.9206
 4040TIP3   OH233534   3.156   6.387  11.535 -0.2034  0.1205  0.2525
 4040TIP3    H133535   3.190   6.419  11.618  2.7050  0.9262 -1.1047
 4040TIP3    H233536   3.147   6.292  11.547 -1.0341  0.3523  1.7897
 4041TIP3   OH233537   0.182   0.967  13.684  0.6704 -0.0820  0.1787
 4041TIP3    H133538   0.251   0.953  13.748  0.7364 -1.3238 -0.1260
 4041TIP3    H233539   0.134   0.883  13.682 -0.2963  0.4559 -0.2502
 4042TIP3   OH233540   4.994   4.141   3.624 -0.4350  0.0994 -0.0831
 4042TIP3    H133541   5.056   4.068   3.620  0.3042  0.7444 -0.7239
 4042TIP3    H233542   4.917   4.104   3.668  0.0711 -0.9528 -0.0349
 4043TIP3   OH233543   5.051   1.915   5.925 -0.5945  0.0001  0.0332
 4043TIP3    H133544   5.085   2.004   5.920 -0.0365 -0.2424 -0.7398
 4043TIP3    H233545   5.009   1.910   6.011  1.7372  0.1882  1.2729
 4044TIP3   OH233546   5.296   0.692   0.876  0.0419  0.5260 -0.5998
 4044TIP3    H133547   5.314   0.785   0.889 -0.4043  0.8233 -1.9600
 4044TIP3    H233548   5.360   0.664   0.811  0.0378 -0.0683 -0.3475
 4045TIP3   OH233549   1.655   2.860   3.636 -0.3189  0.1078  0.3072
 4045TIP3    H133550   1.691   2.878   3.549 -0.7283  0.7385  0.2588
 4045TIP3    H233551   1.562   2.842   3.619 -0.7186  1.6046  0.7357
 4046TIP3   OH233552   3.169   6.433   4.435 -0.1863  0.1681  0.1294
 4046TIP3    H133553   3.082   6.400   4.412 -0.7023  0.6393  1.2894
 4046TIP3    H233554   3.173   6.425   4.531  1.1623 -0.1052  0.0667
 4047TIP3   OH233555   0.993   4.310   1.735  0.1670  0.3260 -0.4504
 4047TIP3    H133556   0.900   4.328   1.724  0.1635  0.6322  0.0769
 4047TIP3    H233557   1.037   4.391   1.709  0.3621 -0.2393 -1.9596
 4048TIP3   OH233558   5.715   4.995   1.486 -0.1616 -0.0526 -0.1773
 4048TIP3    H133559   5.769   4.978   1.409  0.5233  0.1197  0.2544
 4048TIP3    H233560   5.714   4.912   1.534  0.1443  0.0903  0.0759
 4049TIP3   OH233561   1.180   6.243   0.668 -0.1850 -0.4535  0.4334
 4049TIP3    H133562   1.233   6.179   0.715 -0.2160 -0.4453  0.4796
 4049TIP3    H233563   1.169   6.315   0.729 -1.6157 -1.1415  1.0409
 4050TIP3   OH233564   6.481   1.533  15.345 -0.2609  0.2434  0.5049
 4050TIP3    H133565   6.575   1.522  15.352 -0.0706 -0.9966 -2.4447
 4050TIP3    H233566   6.445   1.444  15.347 -1.1413  0.5587 -0.1554
 4051TIP3   OH233567   6.112   6.264   0.334  0.0555  0.3826  0.4026
 4051TIP3    H133568   6.032   6.287   0.288 -0.4520 -0.9481  0.6012
 4051TIP3    H233569   6.119   6.169   0.326  0.7241  0.2820  1.8201
 4052TIP3   OH233570   3.470   0.944  14.635  0.5967 -0.5190 -0.1978
 4052TIP3    H133571   3.491   0.890  14.711  0.1532  0.4962  0.6621
 4052TIP3    H233572   3.412   0.889  14.582  1.4354 -1.4799 -0.1511
 4053TIP3   OH233573   5.259   4.848  14.810 -0.2638 -0.5091 -0.0933
 4053TIP3    H133574   5.169   4.817  14.803 -0.7148  0.7632 -0.3872
 4053TIP3    H233575   5.269   4.907  14.735  1.0811 -1.2608 -0.5228
 4054TIP3   OH233576   1.762   6.454   0.344  0.1388  0.0698 -0.3482
 4054TIP3    H133577   1.672   6.452   0.312 -0.1919 -0.2601  0.5625
 4054TIP3    H233578   1.767   6.379   0.405  0.7599  0.6127  0.2808
 4055TIP3   OH233579   0.162   0.128   4.327 -0.3678  0.3310 -0.9392
 4055TIP3    H133580   0.070   0.146   4.345 -0.2822 -1.0640  1.2720
 4055TIP3    H233581   0.160   0.053   4.268 -0.6769 -0.3197 -0.1242
 4056TIP3   OH233582   1.882   0.509  13.686  0.2149  0.2110 -0.7186
 4056TIP3    H133583   1.910   0.563  13.759 -0.9797 -0.1047  0.0070
 4056TIP3    H233584   1.824   0.565  13.635 -1.8335 -0.5951  0.5815
 4057TIP3   OH233585   0.920   3.320  16.447  0.2328  0.3235  0.7433
 4057TIP3    H133586   0.858   3.381  16.488 -0.6777  1.3910 -2.0437
 4057TIP3    H233587   0.869   3.240  16.432 -0.1905  0.8123 -0.5293
 4058TIP3   OH233588   3.497   1.317  15.764  0.1790  0.5289 -0.3495
 4058TIP3    H133589   3.559   1.330  15.692  0.4082  0.7302 -0.1140
 4058TIP3    H233590   3.540   1.255  15.822  0.0841  0.5296 -0.2792
 4059TIP3   OH233591   1.921   4.677  16.772 -0.5141  0.0705 -0.0956
 4059TIP3    H133592   1.838   4.725  16.776 -0.1170  0.7701 -0.0875
 4059TIP3    H233593   1.927   4.633  16.857  0.4434  2.2894  1.0645
 4060TIP3   OH233594   5.950   6.134   5.740  0.0902  0.2085 -0.1178
 4060TIP3    H133595   5.954   6.172   5.828  0.8050  0.5467 -0.2842
 4060TIP3    H233596   6.028   6.169   5.695 -0.8330  0.9125 -1.2372
 4061TIP3   OH233597   1.371   6.241   2.325 -0.2859 -0.7783  0.1729
 4061TIP3    H133598   1.316   6.300   2.378 -0.8662 -1.5877  0.4892
 4061TIP3    H233599   1.313   6.167   2.304 -0.0993 -0.4469 -1.6711
 4062TIP3   OH233600   1.174   2.224   1.204  0.0189 -0.3454  0.3271
 4062TIP3    H133601   1.114   2.289   1.241 -0.3644 -1.0781  1.0194
 4062TIP3    H233602   1.167   2.237   1.110 -2.8549 -1.7862  0.2325
 4063TIP3   OH233603   2.019   2.725   2.106 -0.5896 -0.2108  0.8883
 4063TIP3    H133604   1.998   2.752   2.017 -0.9708 -1.6451  0.5165
 4063TIP3    H233605   1.974   2.788   2.162  2.4553  2.9076  0.1663
 4064TIP3   OH233606   0.970   3.660  10.950 -0.6292  0.4784 -0.2428
 4064TIP3    H133607   1.055   3.617  10.948  0.1732  2.0002 -0.8907
 4064TIP3    H233608   0.930   3.639  10.866 -0.8321 -0.1179  0.0025
 4065TIP3   OH233609   5.965   0.639  14.985 -0.0568  0.1247 -0.0950
 4065TIP3    H133610   6.030   0.585  14.940  0.2939  0.6000 -0.1555
 4065TIP3    H233611   6.000   0.650  15.074  0.9188  2.0027 -0.6748
 4066TIP3   OH233612   3.513   5.025  16.711  0.5494  0.1840  0.1872
 4066TIP3    H133613   3.505   4.933  16.685  0.5112  0.0014  0.8424
 4066TIP3    H233614   3.594   5.054  16.668  1.5342 -0.6512  1.4121
 4067TIP3   OH233615   6.058   3.330   6.115  0.1142 -0.5382  0.4206
 4067TIP3    H133616   6.064   3.369   6.028 -1.6405  0.8441  0.8630
 4067TIP3    H233617   5.965   3.311   6.126  0.6619 -3.6019  0.8240
 4068TIP3   OH233618   2.320   5.923   3.875  0.8303 -0.1249  0.0802
 4068TIP3    H133619   2.392   5.862   3.862  1.1872 -0.0533  1.6046
 4068TIP3    H233620   2.314   5.971   3.792  0.6368 -2.0971 -1.1121
 4069TIP3   OH233621   3.836   4.133  16.357  0.2579  0.1004  0.3322
 4069TIP3    H133622   3.761   4.074  16.358  1.5206 -1.5693  1.8632
 4069TIP3    H233623   3.883   4.111  16.276 -1.8177  2.5620 -1.7489
 4070TIP3   OH233624   3.191   2.366  12.899 -0.1121 -0.5212 -0.2617
 4070TIP3    H133625   3.199   2.277  12.935 -2.6369 -0.5959  0.2972
 4070TIP3    H233626   3.231   2.422  12.965  1.0394 -1.1699 -0.3736
 4071TIP3   OH233627   2.347   1.690   0.956  0.1970 -0.2743  0.1718
 4071TIP3    H133628   2.442   1.681   0.956  0.2985  0.5972  1.2991
 4071TIP3    H233629   2.314   1.602   0.941  1.1793 -0.6207  0.0070
 4072TIP3   OH233630   4.642   2.278   5.988  0.4371 -0.1508  0.2270
 4072TIP3    H133631   4.599   2.340   6.048  0.3694 -0.4020  0.4400
 4072TIP3    H233632   4.711   2.237   6.040  0.6107 -0.1115  0.0288
 4073TIP3   OH233633   3.388   5.210  15.760  0.2896 -0.6374  0.0820
 4073TIP3    H133634   3.370   5.269  15.687  0.9413 -1.2866 -0.6283
 4073TIP3    H233635   3.483   5.194  15.755 -0.1260 -3.4490 -1.1449
 4074TIP3   OH233636   0.633   6.518  16.984  0.0294  0.3749  0.3722
 4074TIP3    H133637   0.546   6.499  17.018  0.4494  2.8538  3.3030
 4074TIP3    H233638   0.691   6.461  17.035  0.2611 -0.0124 -0.3190
 4075TIP3   OH233639   2.485   1.888  11.401  0.0202 -0.4847  0.4069
 4075TIP3    H133640   2.553   1.895  11.333 -0.3103  0.0383  0.1177
 4075TIP3    H233641   2.453   1.798  11.395 -1.0063 -0.0507 -1.1249
 4076TIP3   OH233642   3.852   5.128   0.473 -1.1006  0.2228  0.0091
 4076TIP3    H133643   3.872   5.076   0.396  0.4322 -0.9837  1.1568
 4076TIP3    H233644   3.788   5.193   0.443 -1.0395 -0.6290 -2.0841
 4077TIP3   OH233645   3.230   4.587   5.404 -0.1687 -0.0654 -0.1275
 4077TIP3    H133646   3.216   4.602   5.497 -0.1323 -0.8809  0.0183
 4077TIP3    H233647   3.319   4.554   5.398 -0.6446 -1.3877 -0.2781
 4078TIP3   OH233648   1.479   6.730   2.445 -0.0415 -0.5447 -0.0923
 4078TIP3    H133649   1.476   6.710   2.538 -0.9999 -3.4009 -0.6142
 4078TIP3    H233650   1.406   6.680   2.408  2.9004 -3.2187 -2.8935
 4079TIP3   OH233651   1.103   3.546   2.009  0.1180 -0.0373  0.3272
 4079TIP3    H133652   1.034   3.519   1.950 -0.9274  1.2726  0.8873
 4079TIP3    H233653   1.132   3.465   2.051 -1.7438 -0.5196  0.7759
 4080TIP3   OH233654   6.164   1.380   1.734 -0.2123 -0.0109  0.3640
 4080TIP3    H133655   6.230   1.420   1.791  0.2285  0.7264 -0.6335
 4080TIP3    H233656   6.209   1.305   1.694 -0.9050 -1.3277  1.8975
 4081TIP3   OH233657   0.533   2.278   3.201  0.1709 -0.4078  0.4698
 4081TIP3    H133658   0.522   2.333   3.123  1.3632  0.6691  1.0184
 4081TIP3    H233659   0.505   2.190   3.173 -1.0026  0.2949 -0.6641
 4082TIP3   OH233660   5.005   0.152  12.488  0.1890 -0.6799 -0.2430
 4082TIP3    H133661   5.100   0.141  12.485  0.2113 -0.3402 -0.9586
 4082TIP3    H233662   4.971   0.094  12.420 -0.3654 -3.0082  1.8524
 4083TIP3   OH233663   3.833   6.361   0.775  0.5095  0.1148  0.0941
 4083TIP3    H133664   3.924   6.392   0.772 -0.3617  2.8798 -1.1732
 4083TIP3    H233665   3.781   6.440   0.786 -1.9123 -1.0232 -2.0776
 4084TIP3   OH233666   2.840   6.617  14.931 -0.2691  0.4946  0.3600
 4084TIP3    H133667   2.864   6.552  14.865 -0.5840  0.5988  0.1387
 4084TIP3    H233668   2.744   6.620  14.927 -0.2408  1.1963  0.1513
 4085TIP3   OH233669   6.595   6.783  13.323  0.0916 -0.1218  0.2272
 4085TIP3    H133670   6.591   6.719  13.252  1.1642  0.0273  0.0187
 4085TIP3    H233671   6.669   6.840  13.300  0.3609  0.0140  1.3878
 4086TIP3   OH233672   5.471   4.630  12.735  0.5220 -0.0315  0.0912
 4086TIP3    H133673   5.395   4.671  12.777 -0.5287 -2.3264  0.5975
 4086TIP3    H233674   5.468   4.660  12.645 -2.4319 -1.8151 -0.5390
 4087TIP3   OH233675   5.357   0.484   0.405 -0.5289  0.4134  0.3758
 4087TIP3    H133676   5.279   0.480   0.460 -0.2383 -2.7165  0.7817
 4087TIP3    H233677   5.355   0.571   0.365 -2.8430  1.3426  2.2982
 4088TIP3   OH233678   6.484   0.569   0.787 -0.0210 -0.1549 -0.8063
 4088TIP3    H133679   6.518   0.593   0.873 -1.3878  0.1454 -0.3435
 4088TIP3    H233680   6.551   0.600   0.726  0.8735 -0.1999  0.1212
 4089TIP3   OH233681   1.577   5.354  16.310 -0.2204  0.2996 -0.2455
 4089TIP3    H133682   1.654   5.346  16.253 -0.5901 -0.6798 -0.6168
 4089TIP3    H233683   1.610   5.400  16.387  0.9550 -0.8908 -0.0003
 4090TIP3   OH233684   0.153   6.044  12.757 -0.1116 -0.2534  0.0612
 4090TIP3    H133685   0.066   6.012  12.782  0.1418 -1.1047 -0.1224
 4090TIP3    H233686   0.204   6.041  12.838 -0.5235  1.2242  0.4020
 4091TIP3   OH233687   6.574   3.359  15.941 -0.0740  0.4987 -0.2355
 4091TIP3    H133688   6.521   3.345  16.020 -0.6597  0.4136 -0.6283
 4091TIP3    H233689   6.511   3.351  15.869  0.6675 -0.7561 -0.7911
 4092TIP3   OH233690   6.584   5.905   1.202 -0.4738 -0.9386  0.2822
 4092TIP3    H133691   6.490   5.886   1.202 -1.2575  2.3451  0.7353
 4092TIP3    H233692   6.610   5.898   1.110 -0.8666 -2.8078  0.2690
 4093TIP3   OH233693   2.100   5.811   3.621  0.0323  0.3335  0.1953
 4093TIP3    H133694   2.085   5.758   3.699 -0.3304 -1.2174 -0.8751
 4093TIP3    H233695   2.054   5.893   3.638  1.1430  0.6156  2.1606
 4094TIP3   OH233696   4.836   0.305  12.989 -0.3053 -0.0307  0.0413
 4094TIP3    H133697   4.846   0.372  12.922  0.9146  0.1397  0.3628
 4094TIP3    H233698   4.742   0.304  13.009 -0.3912  1.3451 -0.2071
 4095TIP3   OH233699   6.120   1.968   0.837  0.0185  0.2075  0.6811
 4095TIP3    H133700   6.127   1.944   0.744 -2.7968 -2.8137  1.0294
 4095TIP3    H233701   6.187   1.916   0.880  0.8637  1.0784  0.4446
 4096TIP3   OH233702   3.676   6.402   4.277 -0.3326 -0.0593  0.4964
 4096TIP3    H133703   3.735   6.397   4.352 -0.1151 -2.1395  0.2604
 4096TIP3    H233704   3.588   6.400   4.314 -0.2685  1.4492  0.7773
 4097TIP3   OH233705   2.108   6.777   1.512  0.3689  0.2125  0.1202
 4097TIP3    H133706   2.199   6.790   1.540 -0.0502  0.3705  1.5060
 4097TIP3    H233707   2.098   6.682   1.508  0.6132  0.1948 -0.1083
 4098TIP3   OH233708   2.039   2.717  16.975 -0.1635 -0.3509  0.8427
 4098TIP3    H133709   2.076   2.732  16.888  0.4228 -0.1434  1.1239
 4098TIP3    H233710   2.110   2.738  17.035 -0.5264 -0.6149  1.3701
 4099TIP3   OH233711   2.053   3.258  12.629  0.4135 -0.3691  0.4462
 4099TIP3    H133712   2.064   3.197  12.702  0.4805 -0.5856  0.2558
 4099TIP3    H233713   2.032   3.341  12.670 -0.4079 -0.6844  0.6782
 4100TIP3   OH233714   4.805   1.534   5.005  0.2332 -0.3416 -0.0385
 4100TIP3    H133715   4.875   1.500   4.950  0.8492  1.2097 -0.2846
 4100TIP3    H233716   4.850   1.591   5.068 -0.5479 -1.3404  1.4976
 4101TIP3   OH233717   3.419   2.847   2.520  1.0307  0.6098  0.2429
 4101TIP3    H133718   3.350   2.914   2.520 -0.7476 -1.1374 -0.0655
 4101TIP3    H233719   3.498   2.895   2.494  0.0912  2.7953  1.1285
 4102TIP3   OH233720   3.850   1.286   1.378  0.5797  0.0620  0.5950
 4102TIP3    H133721   3.940   1.255   1.386  0.9710  0.5993 -1.1743
 4102TIP3    H233722   3.853   1.349   1.305 -1.0576  0.7684  1.0875
 4103TIP3   OH233723   4.169   6.631   4.728 -0.0988 -0.3314 -0.3102
 4103TIP3    H133724   4.218   6.709   4.754 -1.5327  0.2906  0.6643
 4103TIP3    H233725   4.212   6.560   4.776  1.2691 -0.1903 -1.2625
 4104TIP3   OH233726   4.245   0.094   5.472  1.0706  0.4259  0.0079
 4104TIP3    H133727   4.226   0.003   5.496  0.6597  0.2803 -0.8327
 4104TIP3    H233728   4.197   0.108   5.390 -0.3028  1.9428  1.0240
 4105TIP3   OH233729   1.004   0.350   1.803 -0.1879  0.5010 -0.0232
 4105TIP3    H133730   1.035   0.281   1.744 -0.2734  0.3397  0.1180
 4105TIP3    H233731   0.916   0.322   1.829  0.3734 -0.1559  1.2797
 4106TIP3   OH233732   0.086   5.842  15.528  0.3856  0.6678 -0.3689
 4106TIP3    H133733   0.167   5.804  15.563  1.0305  0.7702 -1.6983
 4106TIP3    H233734   0.021   5.824  15.595  0.7358 -2.3803 -0.6992
 4107TIP3   OH233735   1.358   1.740  15.233 -0.3332  0.4297 -0.1051
 4107TIP3    H133736   1.366   1.683  15.310 -1.1463 -1.0678 -1.0774
 4107TIP3    H233737   1.447   1.774  15.219 -0.0005  0.0381  0.9725
 4108TIP3   OH233738   5.270   3.121   4.457  0.2255 -0.0216 -0.6322
 4108TIP3    H133739   5.228   3.092   4.538 -1.1820  3.0242 -0.1310
 4108TIP3    H233740   5.209   3.097   4.388  0.1792 -0.2621 -0.5093
 4109TIP3   OH233741   4.245   4.885   5.157 -0.3679  0.2309  0.7886
 4109TIP3    H133742   4.329   4.915   5.123 -0.6604  0.5030  0.2939
 4109TIP3    H233743   4.248   4.789   5.148 -0.5415  0.3115 -0.2789
 4110TIP3   OH233744   1.264   5.561   4.009 -0.1848  0.3302 -0.5419
 4110TIP3    H133745   1.239   5.648   4.039 -1.8382  0.5256 -2.2932
 4110TIP3    H233746   1.332   5.578   3.943  1.3188  0.0904  0.8916
 4111TIP3   OH233747   2.167   4.295   1.745  0.7347  0.0635 -0.1547
 4111TIP3    H133748   2.074   4.275   1.731  0.6607  1.2933 -1.6383
 4111TIP3    H233749   2.167   4.378   1.793  1.0728  0.0703 -0.1622
 4112TIP3   OH233750   6.514   1.686   4.245 -0.4661  0.3933  0.3051
 4112TIP3    H133751   6.460   1.703   4.168 -2.5878 -1.3917  1.2679
 4112TIP3    H233752   6.596   1.652   4.211 -1.0262  0.4861 -1.1807
 4113TIP3   OH233753   3.165   4.658  13.011  0.2803 -0.1818 -0.7238
 4113TIP3    H133754   3.237   4.668  13.073  0.9619 -0.4946 -1.4407
 4113TIP3    H233755   3.207   4.623  12.932 -0.4712  0.7935 -1.5662
 4114TIP3   OH233756   1.590   4.968  15.598 -0.4615  0.7339  0.4634
 4114TIP3    H133757   1.572   4.896  15.659 -1.4135 -0.0779 -0.7315
 4114TIP3    H233758   1.684   4.986  15.611 -0.4333 -0.0329  1.5015
 4115TIP3   OH233759   5.299   6.704   0.026  0.5849 -0.0486  0.7824
 4115TIP3    H133760   5.223   6.712   0.083 -0.5102  0.2904 -0.6717
 4115TIP3    H233761   5.298   6.613  -0.002 -0.4125  0.3838 -0.6945
 4116TIP3   OH233762   3.730   4.775   5.698  0.0902  0.5407  0.1902
 4116TIP3    H133763   3.751   4.838   5.767 -0.0254 -0.2738  0.9714
 4116TIP3    H233764   3.639   4.750   5.716  0.2259 -0.0560  0.0422
 4117TIP3   OH233765   4.535   0.802  13.160 -0.3029  0.6258 -0.1823
 4117TIP3    H133766   4.617   0.821  13.207 -0.6621  1.7969 -0.0002
 4117TIP3    H233767   4.481   0.880  13.174 -2.1681 -0.8064  1.2027
 4118TIP3   OH233768   4.357   2.860   0.885  0.8329 -0.1570 -0.2685
 4118TIP3    H133769   4.279   2.805   0.882  0.7654 -0.0569 -0.3359
 4118TIP3    H233770   4.378   2.878   0.793  1.3771 -0.8129 -0.2788
 4119TIP3   OH233771   2.287   4.965   5.864  0.1514  0.6922  0.7774
 4119TIP3    H133772   2.265   4.935   5.952 -0.9184  0.3192  0.4075
 4119TIP3    H233773   2.317   5.055   5.876 -0.8539  0.9611  1.4320
 4120TIP3   OH233774   2.002   5.379  15.279  0.1411  0.0930  0.2255
 4120TIP3    H133775   2.006   5.352  15.371 -0.3842 -1.5548 -0.2132
 4120TIP3    H233776   1.962   5.466  15.282 -2.3909 -1.0084  1.4059
 4121TIP3   OH233777   0.813   3.295   5.052  0.3744 -0.7281  0.0122
 4121TIP3    H133778   0.889   3.352   5.068 -0.5943  0.3868  0.7790
 4121TIP3    H233779   0.849   3.222   5.002  1.4952  1.0630 -1.9672
 4122TIP3   OH233780   1.359   0.897   0.524 -0.0634 -0.0709 -0.1757
 4122TIP3    H133781   1.342   0.912   0.617  2.8536  0.4435  0.3531
 4122TIP3    H233782   1.451   0.872   0.520 -0.0316  0.2161 -2.9791
 4123TIP3   OH233783   4.827   1.154  11.912 -0.0749  0.0821  0.3524
 4123TIP3    H133784   4.920   1.142  11.892 -0.1172 -1.2440  0.8461
 4123TIP3    H233785   4.796   1.214  11.844  0.6751 -1.0930 -1.0940
 4124TIP3   OH233786   0.943   5.481  15.223 -0.3343 -0.1411  0.4269
 4124TIP3    H133787   1.036   5.463  15.206 -0.7884 -1.7049 -0.6821
 4124TIP3    H233788   0.936   5.488  15.318  0.8286 -0.5101  0.5522
 4125TIP3   OH233789   5.815   2.931   4.352  0.2932  0.2937 -0.1910
 4125TIP3    H133790   5.733   2.937   4.304 -0.5344  1.0944  1.2326
 4125TIP3    H233791   5.811   3.002   4.416  2.3453  0.6963 -0.4128
 4126TIP3   OH233792   1.491   1.443   2.202  0.0450  0.1160 -0.1844
 4126TIP3    H133793   1.478   1.445   2.107 -1.3121  1.8761 -0.0071
 4126TIP3    H233794   1.405   1.419   2.237  0.2745  0.4745  0.6450
 4127TIP3   OH233795   4.935   6.116   3.613 -0.3840 -0.0324  0.5615
 4127TIP3    H133796   4.912   6.023   3.614  0.8168 -0.3657  2.1242
 4127TIP3    H233797   4.980   6.130   3.697 -0.7452  2.0199  0.4599
 4128TIP3   OH233798   2.203   3.660   2.431  0.1441 -0.5406 -0.3216
 4128TIP3    H133799   2.122   3.690   2.473  1.9280  2.4013  1.3692
 4128TIP3    H233800   2.208   3.712   2.350  0.3410 -0.7725 -0.4580
 4129TIP3   OH233801   2.207   2.453  13.964  0.0377  0.0158  0.5079
 4129TIP3    H133802   2.208   2.357  13.963  2.1404 -0.0647 -2.5119
 4129TIP3    H233803   2.279   2.477  14.023  0.4223 -0.3128  0.1801
 4130TIP3   OH233804   1.520   3.953  11.705  0.0271  0.2273 -0.0424
 4130TIP3    H133805   1.556   3.981  11.621  0.9100  1.1734  0.6270
 4130TIP3    H233806   1.591   3.967  11.768 -0.0963 -1.8708  0.6478
 4131TIP3   OH233807   3.758   4.799  13.233 -0.3149 -0.1961 -0.0245
 4131TIP3    H133808   3.700   4.807  13.157 -2.2397  1.0087  1.5039
 4131TIP3    H233809   3.846   4.799  13.194 -1.2475 -1.3604 -2.3645
 4132TIP3   OH233810   5.185   2.101  15.403  0.1848 -0.3891  0.0427
 4132TIP3    H133811   5.190   2.161  15.328  0.0017 -1.7905 -1.1190
 4132TIP3    H233812   5.126   2.032  15.375  0.4797 -1.1895  1.3226
 4133TIP3   OH233813   4.361   3.208   3.870 -0.3206  0.2002  0.0337
 4133TIP3    H133814   4.373   3.172   3.782  0.4423  0.7625 -0.0946
 4133TIP3    H233815   4.412   3.150   3.926  1.2658  1.2871 -0.2273
 4134TIP3   OH233816   2.809   2.344   5.155 -0.0407  0.0684 -0.5023
 4134TIP3    H133817   2.887   2.311   5.111  0.1833  0.8142 -0.6776
 4134TIP3    H233818   2.739   2.336   5.091 -0.2789 -1.3031 -0.0947
 4135TIP3   OH233819   3.957   6.251  11.505  0.2605  0.0171  0.3522
 4135TIP3    H133820   3.878   6.205  11.532 -0.1457  0.4920 -0.0133
 4135TIP3    H233821   4.018   6.182  11.481  0.0238 -0.3594  0.8124
 4136TIP3   OH233822   5.907   0.018   4.794 -0.7694  0.3350  0.5299
 4136TIP3    H133823   5.957  -0.009   4.717  0.5387  0.8465  1.1654
 4136TIP3    H233824   5.861  -0.061   4.821 -0.6373 -0.0475 -0.3255
 4137TIP3   OH233825   1.746   2.017  16.501  0.0074 -0.1535 -0.0428
 4137TIP3    H133826   1.746   1.972  16.416  0.2242  1.5920 -1.0144
 4137TIP3    H233827   1.654   2.014  16.529 -0.2831  0.2477 -0.9130
 4138TIP3   OH233828   5.436   5.613   3.537 -0.2856  1.1033 -0.0319
 4138TIP3    H133829   5.494   5.618   3.461 -0.0995  1.5729  0.1365
 4138TIP3    H233830   5.437   5.701   3.574 -0.1446  0.8035  0.6906
 4139TIP3   OH233831   3.045   1.955  16.363 -0.0412  0.4796  0.1077
 4139TIP3    H133832   3.082   1.867  16.357 -1.9453 -0.2598 -2.5265
 4139TIP3    H233833   3.085   2.003  16.290 -1.2058  0.8559 -0.3091
 4140TIP3   OH233834   1.665   4.893  17.050  0.4168  0.5832  0.6854
 4140TIP3    H133835   1.743   4.944  17.072  0.7456 -0.2610  1.5110
 4140TIP3    H233836   1.656   4.829  17.120 -1.4397  1.1024  0.9988
 4141TIP3   OH233837   4.143   4.244  14.888  0.4906  0.0122  0.1321
 4141TIP3    H133838   4.179   4.254  14.800 -1.1818  2.2114 -0.3755
 4141TIP3    H233839   4.215   4.206  14.939  2.4226  1.2264 -1.5499
 4142TIP3   OH233840   3.687   4.623   1.841 -0.1612  0.4760 -0.4321
 4142TIP3    H133841   3.621   4.679   1.880  0.0070 -0.5676  1.4801
 4142TIP3    H233842   3.769   4.673   1.847 -0.2419  0.5522  0.0533
 4143TIP3   OH233843   0.901   1.648  16.626 -0.5334 -0.1212 -0.0980
 4143TIP3    H133844   0.886   1.742  16.633 -1.9052 -0.2681 -0.7126
 4143TIP3    H233845   0.930   1.635  16.535  1.3161 -0.1204  0.4508
 4144TIP3   OH233846   2.992   2.997  15.753  0.2589  0.2734  0.3044
 4144TIP3    H133847   3.000   2.905  15.730 -0.6752  0.6033 -1.5153
 4144TIP3    H233848   3.032   3.043  15.680 -1.1744  1.3604  0.1597
 4145TIP3   OH233849   3.218   4.970  15.776 -0.5507 -0.3220  0.8365
 4145TIP3    H133850   3.302   5.016  15.781 -0.4050 -0.6520  1.6003
 4145TIP3    H233851   3.152   5.040  15.778 -0.2970 -0.0383 -0.1668
 4146TIP3   OH233852   2.896   0.272  17.154 -0.6750  0.5064 -0.3661
 4146TIP3    H133853   2.883   0.243  17.245 -1.9025  0.7591 -0.4396
 4146TIP3    H233854   2.950   0.350  17.161  3.3649 -2.0321 -0.2017
 4147TIP3   OH233855   0.692   0.991   2.739  0.6135 -0.1267  0.0722
 4147TIP3    H133856   0.639   1.058   2.782  0.5275  0.0560 -0.3078
 4147TIP3    H233857   0.656   0.987   2.650  0.1865 -1.1423  0.2798
 4148TIP3   OH233858   5.308   2.137   3.435 -0.0273  0.9046 -0.2360
 4148TIP3    H133859   5.337   2.145   3.344 -1.2918 -1.9824 -0.9790
 4148TIP3    H233860   5.387   2.113   3.483  0.3616  0.9649 -0.8307
 4149TIP3   OH233861   2.330   2.020  16.662  0.2040  0.0715 -0.2368
 4149TIP3    H133862   2.307   2.073  16.738 -0.5124  0.8119 -0.9514
 4149TIP3    H233863   2.399   1.962  16.693 -0.7185 -0.2939  1.2331
 4150TIP3   OH233864   2.569   6.167  11.039  0.0076  0.4740  1.2033
 4150TIP3    H133865   2.579   6.200  10.950  0.7100  0.4216  1.2556
 4150TIP3    H233866   2.479   6.188  11.063 -1.0383 -1.7444 -0.4319
 4151TIP3   OH233867   4.452   0.820   1.219  0.1417 -0.7932 -0.5748
 4151TIP3    H133868   4.386   0.766   1.263  1.4551 -0.0311  2.6852
 4151TIP3    H233869   4.533   0.770   1.228  0.9393  0.5927  0.4052
 4152TIP3   OH233870   5.488   3.425   0.404  0.5995  0.3873  0.2262
 4152TIP3    H133871   5.568   3.389   0.366  0.1047 -0.6519  0.1170
 4152TIP3    H233872   5.498   3.519   0.396  0.7221  0.2408 -2.1007
 4153TIP3   OH233873   3.196   6.688  14.873 -0.2087  0.2171  0.3605
 4153TIP3    H133874   3.109   6.728  14.886  0.0013  1.1454 -0.8650
 4153TIP3    H233875   3.257   6.761  14.881  0.2680 -0.0103 -0.9974
 4154TIP3   OH233876   3.500   5.027   5.687  0.1909  0.2965  0.2201
 4154TIP3    H133877   3.571   5.059   5.632 -3.0010  3.0321 -2.7477
 4154TIP3    H233878   3.522   5.058   5.775  3.5203 -0.7271 -0.1182
 4155TIP3   OH233879   2.712   0.584  12.779 -0.2096 -0.2610  0.0155
 4155TIP3    H133880   2.785   0.645  12.768  0.1396 -0.6893 -0.0653
 4155TIP3    H233881   2.693   0.554  12.690 -3.3512  3.0890 -0.6733
 4156TIP3   OH233882   0.850   2.654   1.228  0.5933 -0.1831 -0.4323
 4156TIP3    H133883   0.859   2.696   1.313  1.4406 -0.0003 -0.6024
 4156TIP3    H233884   0.756   2.639   1.218  0.4302  0.3547  0.2629
 4157TIP3   OH233885   2.718   2.468  12.018  0.0404 -0.7359 -0.1827
 4157TIP3    H133886   2.674   2.541  11.974  1.7076  0.7552  0.4952
 4157TIP3    H233887   2.811   2.482  11.999  0.4364 -2.5214  0.2596
 4158TIP3   OH233888   0.008   5.684  11.125 -0.2753 -0.1386  0.3147
 4158TIP3    H133889   0.068   5.666  11.197  0.0194 -0.3390  0.0224
 4158TIP3    H233890   0.034   5.771  11.093  1.0244 -0.9329 -0.9337
 4159TIP3   OH233891   4.611   1.629  16.944  0.3074 -0.3057 -0.7443
 4159TIP3    H133892   4.606   1.537  16.916  1.4887 -0.2096 -1.3350
 4159TIP3    H233893   4.693   1.660  16.908 -0.1686  1.0541 -0.7048
 4160TIP3   OH233894   5.099   5.640  16.100 -0.6826 -0.2036  0.0259
 4160TIP3    H133895   5.008   5.647  16.129 -0.3914  1.0293  0.6786
 4160TIP3    H233896   5.144   5.713  16.141  0.6689 -0.9154 -0.1131
 4161TIP3   OH233897   4.177   5.250   3.171 -0.1379 -0.0184 -0.1678
 4161TIP3    H133898   4.097   5.207   3.201 -0.2500  0.9883  1.1062
 4161TIP3    H233899   4.149   5.305   3.098 -0.3573 -0.6329 -0.5510
 4162TIP3   OH233900   2.304   5.077   3.167 -0.8038 -0.2116  0.3194
 4162TIP3    H133901   2.219   5.106   3.200 -2.2315 -2.5948 -0.9606
 4162TIP3    H233902   2.296   5.082   3.072  1.5066  2.0200  0.1330
 4163TIP3   OH233903   4.990   3.101   2.629  0.2801 -0.2424 -0.0224
 4163TIP3    H133904   5.037   3.097   2.547  1.5980 -0.2593  0.7109
 4163TIP3    H233905   4.910   3.050   2.613  0.8269 -0.7948 -1.0828
 4164TIP3   OH233906   5.558   5.643  11.690  0.0657 -0.4612 -0.2377
 4164TIP3    H133907   5.469   5.656  11.657  0.5847  0.1412 -1.4489
 4164TIP3    H233908   5.576   5.550  11.675 -0.2496 -0.5217 -0.2420
 4165TIP3   OH233909   5.646   5.946   5.306  0.1261 -0.6400  0.1530
 4165TIP3    H133910   5.653   5.882   5.377 -2.3167  0.4591  1.5050
 4165TIP3    H233911   5.561   5.929   5.266 -0.8639  2.0148  0.9249
 4166TIP3   OH233912   1.758   6.377  16.125 -0.0428  0.1381 -0.4064
 4166TIP3    H133913   1.674   6.408  16.092 -0.3156 -1.2936 -1.1122
 4166TIP3    H233914   1.807   6.352  16.047  0.6184 -0.0895  0.0678
 4167TIP3   OH233915   4.689   1.060   0.056  0.1922 -1.4113  0.0196
 4167TIP3    H133916   4.735   1.081  -0.025 -3.5958 -0.3496 -2.1083
 4167TIP3    H233917   4.731   1.115   0.122  0.6162  1.1028 -2.1825
 4168TIP3   OH233918   5.277   3.973   5.251  0.1779  0.1120 -0.3900
 4168TIP3    H133919   5.196   4.024   5.257 -1.2442 -2.0883  0.2822
 4168TIP3    H233920   5.346   4.037   5.264 -1.5345  1.7454  1.2860
 4169TIP3   OH233921   0.139   5.931   5.127  0.0728  0.3185 -0.1978
 4169TIP3    H133922   0.058   5.915   5.077 -0.2357 -1.6640  0.8604
 4169TIP3    H233923   0.195   5.857   5.107  0.4332  0.1205  1.3918
 4170TIP3   OH233924   5.462   3.131  16.021  0.2190 -0.6802  0.2190
 4170TIP3    H133925   5.428   3.221  16.027 -0.5142 -0.8344 -1.2262
 4170TIP3    H233926   5.536   3.130  16.081  0.4558  1.0013  0.0145
 4171TIP3   OH233927   3.433   0.673  13.209  0.4650  0.4915 -0.3074
 4171TIP3    H133928   3.447   0.603  13.273  0.4679  2.0149  1.4156
 4171TIP3    H233929   3.426   0.753  13.261 -0.1322  1.7228 -2.1787
 4172TIP3   OH233930   0.472   1.405   5.273 -0.2052 -0.4748 -0.0308
 4172TIP3    H133931   0.543   1.349   5.301  1.1073  0.9333 -0.4228
 4172TIP3    H233932   0.394   1.370   5.317  0.8440 -1.5833  0.9966
 4173TIP3   OH233933   1.124   5.394  16.139  0.3777 -0.3078 -0.0442
 4173TIP3    H133934   1.084   5.366  16.221 -2.8388 -1.7821 -1.9165
 4173TIP3    H233935   1.203   5.341  16.132  0.0607 -1.0434  1.5213
 4174TIP3   OH233936   6.588   4.043   1.184 -0.1187  0.1307 -0.3159
 4174TIP3    H133937   6.646   4.097   1.131 -0.5569 -0.0540 -0.9968
 4174TIP3    H233938   6.539   4.106   1.238  2.1237  0.2042  1.8004
 4175TIP3   OH233939   6.419   0.496   1.621  0.2309  0.1426 -0.6321
 4175TIP3    H133940   6.326   0.500   1.642 -0.2605 -0.9967 -2.3953
 4175TIP3    H233941   6.426   0.540   1.537  1.2012 -0.3215 -0.7998
 4176TIP3   OH233942   3.464   4.850   3.300 -0.5519 -0.1587 -0.6229
 4176TIP3    H133943   3.421   4.766   3.284 -1.5302 -0.0614  1.2075
 4176TIP3    H233944   3.546   4.827   3.345  0.0465 -0.2010 -1.7064
 4177TIP3   OH233945   4.185   4.431   6.082  0.4551 -0.0903 -0.4721
 4177TIP3    H133946   4.254   4.486   6.044  1.3983 -1.5965 -1.0213
 4177TIP3    H233947   4.186   4.351   6.029 -1.9097 -0.0732 -0.6541
 4178TIP3   OH233948   2.876   4.019   4.262 -0.4225  0.0294 -0.0875
 4178TIP3    H133949   2.836   4.101   4.231  2.6816  1.3580 -1.0212
 4178TIP3    H233950   2.933   3.993   4.190  1.3045 -1.0192  1.5969
 4179TIP3   OH233951   2.006   0.626  16.475 -0.2780 -0.2196  0.5495
 4179TIP3    H133952   1.997   0.682  16.398 -2.3950  2.2696  2.4093
 4179TIP3    H233953   2.070   0.670  16.530 -1.6437  0.2246  1.8580
 4180TIP3   OH233954   2.993   6.751   5.769 -0.3546 -0.3008  0.2434
 4180TIP3    H133955   3.022   6.806   5.842 -0.4863  0.4164 -0.2357
 4180TIP3    H233956   3.045   6.781   5.694 -3.7093  2.5385 -1.1993
 4181TIP3   OH233957   6.400   4.657   1.790  0.5593 -0.1972  0.2114
 4181TIP3    H133958   6.395   4.577   1.737  1.1374  0.4087 -0.7906
 4181TIP3    H233959   6.355   4.635   1.871 -0.8923 -0.9601 -0.7646
 4182TIP3   OH233960   1.695   6.095  15.979  0.3664 -0.1143  0.5059
 4182TIP3    H133961   1.701   6.151  16.056  1.5286  0.5657 -0.0613
 4182TIP3    H233962   1.629   6.029  16.002  0.7407  0.0411  2.0989
 4183TIP3   OH233963   0.136   2.431   5.772  0.1269 -0.1702 -0.5115
 4183TIP3    H133964   0.157   2.366   5.839 -0.2305 -0.9804 -1.1559
 4183TIP3    H233965   0.067   2.485   5.810  1.5036  0.8518  0.6311
 4184TIP3   OH233966   5.938   1.073  12.638 -0.0408 -0.3399 -0.1288
 4184TIP3    H133967   5.844   1.077  12.619  0.1343 -0.2540 -0.9957
 4184TIP3    H233968   5.961   1.164  12.661 -0.0835 -0.2769 -0.3341
 4185TIP3   OH233969   4.351   3.168   6.223  0.3415  0.3704 -0.0180
 4185TIP3    H133970   4.305   3.098   6.177  0.1140  1.2213 -1.1207
 4185TIP3    H233971   4.422   3.124   6.269  0.4914 -0.5357 -1.0748
 4186TIP3   OH233972   3.609   5.684  10.807 -0.4004  0.1132  0.0949
 4186TIP3    H133973   3.539   5.645  10.860  0.0953 -0.3177  0.4491
 4186TIP3    H233974   3.601   5.640  10.722 -1.4280  1.0677 -0.3294
 4187TIP3   OH233975   3.269   6.090  16.543  0.5930 -0.6582 -0.2333
 4187TIP3    H133976   3.205   6.148  16.502  0.1297 -0.1256  1.1911
 4187TIP3    H233977   3.308   6.042  16.470 -0.2661  0.1818 -1.2763
 4188TIP3   OH233978   0.284   3.097  13.277 -0.4485 -0.0248 -0.1662
 4188TIP3    H133979   0.316   3.172  13.326 -1.6687  0.0834  0.4935
 4188TIP3    H233980   0.248   3.038  13.343 -2.8885  0.4939 -0.9443
 4189TIP3   OH233981   3.379   5.020   1.187  0.0958 -0.4847 -0.3417
 4189TIP3    H133982   3.467   4.986   1.203  0.9340  1.3027 -0.9168
 4189TIP3    H233983   3.338   5.018   1.274  1.5125  0.7554  0.4196
 4190TIP3   OH233984   4.390   3.589   2.655  0.0626 -0.0915 -0.3815
 4190TIP3    H133985   4.472   3.541   2.645 -0.8353 -1.9832  0.7548
 4190TIP3    H233986   4.399   3.634   2.739  0.0498 -0.0865 -0.3828
 4191TIP3   OH233987   4.725   1.986   0.751 -0.1785  0.7100 -0.1704
 4191TIP3    H133988   4.818   2.000   0.732 -0.1455  0.3571 -0.2917
 4191TIP3    H233989   4.688   1.958   0.668 -0.0807 -0.6195  0.1959
 4192TIP3   OH233990   2.930   1.577  17.097 -0.1003 -0.1773  0.5021
 4192TIP3    H133991   2.980   1.593  17.177 -1.5051  0.6502  1.2720
 4192TIP3    H233992   2.842   1.556  17.129 -0.4193 -0.8920 -0.8151
 4193TIP3   OH233993   6.255   6.463  13.522  0.0609  0.1351  0.0162
 4193TIP3    H133994   6.220   6.386  13.567 -0.1321 -0.4306 -1.0547
 4193TIP3    H233995   6.349   6.458  13.533  0.3177 -1.7374 -2.1994
 4194TIP3   OH233996   0.798   0.874   6.314 -0.4821  0.3144  0.1654
 4194TIP3    H133997   0.889   0.899   6.297 -0.5709  0.9961  0.6581
 4194TIP3    H233998   0.804   0.787   6.354 -0.1215 -0.1460 -0.8682
 4195TIP3   OH233999   0.143   0.458   6.224  0.3116  0.0521  0.0359
 4195TIP3    H134000   0.183   0.428   6.306 -0.2427  1.5962  0.9112
 4195TIP3    H234001   0.127   0.551   6.238  1.5242  0.7214 -2.3630
 4196TIP3   OH234002   5.319   1.557  16.099 -0.0493 -0.5027  0.4345
 4196TIP3    H134003   5.294   1.469  16.072 -0.0127 -0.8322  1.4509
 4196TIP3    H234004   5.269   1.573  16.179 -0.4417  0.5984 -0.0029
 4197TIP3   OH234005   6.371   3.622   3.862 -0.1549 -0.0155 -0.0099
 4197TIP3    H134006   6.404   3.637   3.773  1.1102 -0.5442  0.3526
 4197TIP3    H234007   6.449   3.618   3.916 -0.5180 -4.1269  0.5006
 4198TIP3   OH234008   3.602   4.844  12.706  0.5283  0.1070  0.2735
 4198TIP3    H134009   3.543   4.886  12.768  2.1298 -0.1659  2.0695
 4198TIP3    H234010   3.591   4.894  12.625  0.0310  1.9516  1.4156
 4199TIP3   OH234011   3.128   5.508  12.246  0.0212  0.3548 -0.0843
 4199TIP3    H134012   3.115   5.512  12.151 -1.1127 -0.1738  0.0300
 4199TIP3    H234013   3.070   5.438  12.275  2.2212 -1.2332  0.7025
 4200TIP3   OH234014   1.972   4.404   0.739 -0.5510 -0.0434  0.3794
 4200TIP3    H134015   1.888   4.359   0.749 -1.0729  0.9915  0.8562
 4200TIP3    H234016   2.037   4.334   0.734 -1.1711 -0.8651  2.5550
 4201TIP3   OH234017   4.159   3.363   5.265  0.7737 -0.0252 -0.1098
 4201TIP3    H134018   4.146   3.277   5.226  1.1786  0.3850 -1.1765
 4201TIP3    H234019   4.189   3.345   5.354 -1.6480 -0.9772  0.5736
 4202TIP3   OH234020   1.070   4.611  15.487  0.2714  0.0389  0.2004
 4202TIP3    H134021   0.997   4.669  15.465  0.3343  0.2586  0.5583
 4202TIP3    H234022   1.117   4.600  15.404 -1.4098 -1.8923 -0.5733
 4203TIP3   OH234023   6.161   3.450   3.952 -0.3043  0.1963 -0.8768
 4203TIP3    H134024   6.078   3.471   3.909  0.3383  0.9226 -1.7904
 4203TIP3    H234025   6.224   3.512   3.915  0.3855  0.5187  0.7552
 4204TIP3   OH234026   6.768   0.864  16.221  0.0846  0.0373 -0.2117
 4204TIP3    H134027   6.813   0.861  16.137 -1.3620  1.4799 -1.0952
 4204TIP3    H234028   6.758   0.958  16.239 -0.0635 -0.2555  1.3396
 4205TIP3   OH234029   1.064   5.822  16.669 -0.6772 -0.3721 -0.2346
 4205TIP3    H134030   1.091   5.752  16.610  1.5675 -0.6942  1.0695
 4205TIP3    H234031   1.078   5.902  16.619  0.2922 -0.6869 -0.4859
 4206TIP3   OH234032   4.904   2.862  11.181  0.6823  0.0300 -0.0666
 4206TIP3    H134033   4.948   2.839  11.099  1.4825  1.0691  0.0515
 4206TIP3    H234034   4.826   2.806  11.183  0.4171  0.2952 -1.7465
 4207TIP3   OH234035   0.911   4.653   2.987  0.8098 -0.4350  0.1506
 4207TIP3    H134036   0.948   4.567   2.966 -0.9938 -0.4756 -3.5982
 4207TIP3    H234037   0.830   4.634   3.034 -0.6904 -1.0567 -2.4828
 4208TIP3   OH234038   1.063   3.776   4.437  0.3443 -0.0712  0.1852
 4208TIP3    H134039   1.156   3.774   4.415  0.3552 -0.1980  0.2409
 4208TIP3    H234040   1.060   3.817   4.524  0.3416 -0.0078  0.1557
 4209TIP3   OH234041   6.521   2.792   0.168 -0.3185  0.2012 -0.6163
 4209TIP3    H134042   6.546   2.873   0.123 -1.7469  1.0419  0.0450
 4209TIP3    H234043   6.435   2.771   0.133 -1.2070  0.5562  1.2687
 4210TIP3   OH234044   3.956   1.658   5.243 -0.9550 -0.2123 -0.5311
 4210TIP3    H134045   3.882   1.625   5.293 -0.2999 -1.2213 -0.1979
 4210TIP3    H234046   4.031   1.647   5.302 -0.3514 -0.3273 -1.3035
 4211TIP3   OH234047   2.088   3.121  14.768  0.3895  0.3882  0.1817
 4211TIP3    H134048   2.029   3.182  14.724 -0.9934  0.0836  1.5533
 4211TIP3    H234049   2.031   3.049  14.796  1.8215 -1.1028 -0.5678
 4212TIP3   OH234050   5.846   2.235  14.774  0.2964  0.3038  0.3282
 4212TIP3    H134051   5.872   2.278  14.855  1.8165 -0.4366  0.2801
 4212TIP3    H234052   5.757   2.267  14.756 -0.8038 -0.8078  3.1907
 4213TIP3   OH234053   2.743   4.957  15.530  0.0271 -0.1126  0.5438
 4213TIP3    H134054   2.681   5.010  15.580 -1.1005 -1.0386  0.1549
 4213TIP3    H234055   2.690   4.888  15.490  0.8862  0.5018 -1.8378
 4214TIP3   OH234056   5.229   3.984   3.218 -0.3809 -0.3121 -0.6270
 4214TIP3    H134057   5.273   4.068   3.233  0.1350 -0.7185  0.1804
 4214TIP3    H234058   5.274   3.947   3.142  0.8904 -0.8559  0.3620
 4215TIP3   OH234059   3.360   3.652   2.073  0.3198  0.3368 -0.2931
 4215TIP3    H134060   3.371   3.592   2.000 -2.5437 -1.2250  0.4301
 4215TIP3    H234061   3.279   3.699   2.055 -0.5911 -0.2548  1.9477
 4216TIP3   OH234062   6.543   6.137  12.602 -0.3361  0.3634 -0.3422
 4216TIP3    H134063   6.587   6.201  12.657 -0.8168 -0.2660  0.8099
 4216TIP3    H234064   6.464   6.114  12.650  0.6029 -2.3053  0.1149
 4217TIP3   OH234065   3.441   5.290   4.753 -0.1953 -0.5036 -0.0857
 4217TIP3    H134066   3.444   5.243   4.670 -0.4310 -0.4309 -0.1339
 4217TIP3    H234067   3.392   5.233   4.811  0.1381 -0.6447  0.0618
 4218TIP3   OH234068   5.351   2.645   1.586  0.8005  0.3325  0.3567
 4218TIP3    H134069   5.261   2.651   1.556  1.2202  2.5575 -0.6116
 4218TIP3    H234070   5.374   2.734   1.613  2.1866 -0.5157  2.1984
 4219TIP3   OH234071   6.187   6.751  16.765  0.1430  0.1707 -0.1439
 4219TIP3    H134072   6.232   6.780  16.685  0.3373 -0.2298 -0.1841
 4219TIP3    H234073   6.229   6.668  16.787 -0.0846  0.1539  0.2326
 4220TIP3   OH234074   6.318   4.587  12.124  0.0222 -0.5531  0.4686
 4220TIP3    H134075   6.382   4.622  12.185 -0.4597  0.2657  0.5238
 4220TIP3    H234076   6.359   4.597  12.038 -0.9415  2.2515  0.2384
 4221TIP3   OH234077   5.655   1.011   3.576 -0.4503  0.0409 -0.4744
 4221TIP3    H134078   5.695   1.091   3.613 -2.4664  1.1759 -0.6388
 4221TIP3    H234079   5.716   0.941   3.601  1.5189  1.6314 -0.5395
 4222TIP3   OH234080   1.429   4.773   1.635  0.2575  0.2497  0.3955
 4222TIP3    H134081   1.513   4.727   1.623  0.0753 -1.8596  4.8127
 4222TIP3    H234082   1.453   4.865   1.641  2.4424 -0.3178  1.8494
 4223TIP3   OH234083   0.141   0.557  16.647  0.0818  0.1588 -0.0109
 4223TIP3    H134084   0.093   0.546  16.729  1.5677  1.4481  1.0903
 4223TIP3    H234085   0.111   0.641  16.613  2.0892  1.4402  1.1597
 4224TIP3   OH234086   5.379   2.456   4.172 -0.4116  0.2711 -0.6617
 4224TIP3    H134087   5.430   2.536   4.186 -0.3549  0.2041 -0.4776
 4224TIP3    H234088   5.433   2.387   4.212 -1.1372  0.3439  0.5019
 4225TIP3   OH234089   6.250   5.513   2.109  0.1054 -0.0721 -0.6197
 4225TIP3    H134090   6.282   5.444   2.051  2.4748  0.0472  0.4422
 4225TIP3    H234091   6.257   5.476   2.197 -0.9832  0.6586 -0.2022
 4226TIP3   OH234092   6.236   2.269  12.789  0.1664 -0.2080  0.5722
 4226TIP3    H134093   6.155   2.269  12.840 -0.4350  0.7436 -0.3674
 4226TIP3    H234094   6.294   2.330  12.836  1.3630 -2.7834  2.7339
 4227TIP3   OH234095   5.754   6.699  12.184  0.6208  0.1559  0.8636
 4227TIP3    H134096   5.777   6.762  12.252 -0.3297 -0.1875  1.5263
 4227TIP3    H234097   5.776   6.614  12.221 -0.4849 -0.0801  1.0008
 4228TIP3   OH234098   0.517   3.617  13.718  0.3402  0.7740 -0.4575
 4228TIP3    H134099   0.426   3.612  13.687 -0.4083  0.8513  1.5892
 4228TIP3    H234100   0.539   3.710  13.710 -1.7112  1.8973  3.8890
 4229TIP3   OH234101   0.321   3.657  14.216 -0.4611 -0.6041 -0.1972
 4229TIP3    H134102   0.227   3.640  14.211 -0.7574  0.7611  0.2739
 4229TIP3    H234103   0.349   3.611  14.296 -1.1397  0.6235  0.7818
 4230TIP3   OH234104   0.678   5.727   4.857 -0.1561  0.2795  0.7690
 4230TIP3    H134105   0.746   5.794   4.859  0.3465 -0.2245  0.7335
 4230TIP3    H234106   0.690   5.683   4.772 -1.1826  0.8577  0.3022
 4231TIP3   OH234107   2.354   6.387   1.511 -0.5101 -0.2261  0.1399
 4231TIP3    H134108   2.365   6.470   1.555 -1.1687  0.0830 -0.2515
 4231TIP3    H234109   2.336   6.324   1.581  3.2446 -0.7731  0.8272
 4232TIP3   OH234110   2.317   4.026   4.513  0.6141  0.6336  0.4345
 4232TIP3    H134111   2.374   4.008   4.438  1.5753  2.3040  0.7239
 4232TIP3    H234112   2.300   4.120   4.508 -2.4868  0.1715  0.1385
 4233TIP3   OH234113   0.628   3.290  15.132  0.3069  0.2539  0.0955
 4233TIP3    H134114   0.610   3.270  15.224 -0.1805  1.0322  0.1838
 4233TIP3    H234115   0.546   3.274  15.087  0.2538  0.8375 -0.0275
 4234TIP3   OH234116   1.028   1.629   0.478 -0.0569 -0.6824  0.4429
 4234TIP3    H134117   1.043   1.559   0.542  1.2488 -2.8469 -2.0136
 4234TIP3    H234118   0.990   1.584   0.402  3.7580  0.4891 -2.5146
 4235TIP3   OH234119   1.241   3.334  14.406  0.2595  1.1131 -0.6321
 4235TIP3    H134120   1.220   3.320  14.499 -0.6576  2.9509 -0.5259
 4235TIP3    H234121   1.265   3.247  14.375  1.3696  0.5745  1.5019
 4236TIP3   OH234122   1.073   5.177  15.910 -0.0692  0.4745 -0.0953
 4236TIP3    H134123   1.162   5.210  15.923  0.3611 -1.0655  1.1831
 4236TIP3    H234124   1.079   5.126  15.829  0.3152  0.0936  0.1660
 4237TIP3   OH234125   1.584   2.046   2.159  0.3787 -0.0865  0.1785
 4237TIP3    H134126   1.592   1.959   2.197 -1.0283  0.2881  1.4221
 4237TIP3    H234127   1.537   2.097   2.224  0.2342  1.3301 -0.9704
 4238TIP3   OH234128   1.768   3.915  13.222 -0.0458  0.6103  0.1688
 4238TIP3    H134129   1.852   3.897  13.180 -0.4675 -2.5412  0.4168
 4238TIP3    H234130   1.779   3.882  13.311 -1.4271  0.5535  0.3341
 4239TIP3   OH234131   5.963   0.768  16.811 -0.0493  0.2572 -0.4787
 4239TIP3    H134132   6.027   0.813  16.757 -0.2637 -1.0003 -1.8465
 4239TIP3    H234133   6.015   0.715  16.872  0.1887  0.6637 -0.3218
 4240TIP3   OH234134   3.392   4.007  15.608  0.1181  0.1068  0.1269
 4240TIP3    H134135   3.426   3.918  15.611  1.2194  0.5362  1.8060
 4240TIP3    H234136   3.319   4.007  15.670  0.1241  0.3815  0.1358
 4241TIP3   OH234137   6.707   3.347  15.050 -0.2636 -0.5672 -0.0635
 4241TIP3    H134138   6.756   3.273  15.086  0.1963  0.1289  0.7774
 4241TIP3    H234139   6.775   3.409  15.022 -0.6409 -0.5082 -0.8587
 4242TIP3   OH234140   6.167   6.733  13.895 -0.0308  0.1410 -0.0233
 4242TIP3    H134141   6.161   6.697  13.807  0.0354 -1.9446  0.7722
 4242TIP3    H234142   6.111   6.811  13.893  0.9192  0.8660 -2.1990
 4243TIP3   OH234143   1.368   4.413   0.105  0.4983 -0.6616  0.1625
 4243TIP3    H134144   1.461   4.433   0.095  0.6800 -0.6303  1.6345
 4243TIP3    H234145   1.367   4.324   0.142 -0.1395 -1.4306 -1.6195
 4244TIP3   OH234146   3.800   2.341   1.527  0.3723 -0.5898  0.3499
 4244TIP3    H134147   3.878   2.300   1.490  0.0813 -0.9963  0.1805
 4244TIP3    H234148   3.736   2.339   1.455  0.4395  0.3993  0.2521
 4245TIP3   OH234149   1.461   1.142   3.605  0.5141  0.0253  0.0448
 4245TIP3    H134150   1.527   1.198   3.647 -0.3274  0.4241  0.8819
 4245TIP3    H234151   1.425   1.196   3.535  0.0614  0.3590  0.5255
 4246TIP3   OH234152   3.211   6.678   3.892 -0.2968  0.1761 -0.7635
 4246TIP3    H134153   3.201   6.771   3.916 -0.2566  0.7665 -2.8711
 4246TIP3    H234154   3.123   6.641   3.904  0.0487  0.0074  1.7587
 4247TIP3   OH234155   3.829   1.368   2.401  0.3419  0.0380  0.2182
 4247TIP3    H134156   3.845   1.274   2.402 -0.2206 -0.0609  1.1522
 4247TIP3    H234157   3.740   1.376   2.367  0.9930  0.3511 -1.4819
 4248TIP3   OH234158   2.450   6.540   5.084  0.1338  0.5588  0.3022
 4248TIP3    H134159   2.430   6.600   5.156 -1.1686 -0.6592  0.9954
 4248TIP3    H234160   2.485   6.462   5.127 -0.3647 -0.0600 -0.4023
 4249TIP3   OH234161   3.152   4.754   0.294 -0.1226 -0.5737 -0.0720
 4249TIP3    H134162   3.083   4.819   0.280 -0.2800 -0.9849 -1.3679
 4249TIP3    H234163   3.231   4.797   0.260 -0.5473 -1.6702 -2.6923
 4250TIP3   OH234164   2.339   0.362  17.200 -0.1978  0.1393  0.3114
 4250TIP3    H134165   2.355   0.434  17.261 -0.1514 -0.7153  1.3314
 4250TIP3    H234166   2.403   0.375  17.131 -0.8293  1.6334 -0.0370
 4251TIP3   OH234167   1.952   6.038  15.861  0.7026  0.3902  0.5894
 4251TIP3    H134168   1.861   6.065  15.871  0.6616  0.1641  0.8148
 4251TIP3    H234169   2.002   6.117  15.880  0.5805  0.3314  1.1785
 4252TIP3   OH234170   5.250   0.481   5.406  0.1570 -0.1005  0.3432
 4252TIP3    H134171   5.280   0.566   5.441  0.1404 -0.1307  0.4321
 4252TIP3    H234172   5.330   0.430   5.395  0.2045  0.0677 -0.0906
 4253TIP3   OH234173   3.264   1.651   5.174 -0.6367  0.0761 -0.2617
 4253TIP3    H134174   3.180   1.606   5.176 -0.2820 -0.6175  1.2923
 4253TIP3    H234175   3.289   1.659   5.267 -0.1135  2.4521 -0.5577
 4254TIP3   OH234176   3.249   6.438  14.203  0.3853  0.0335  0.1138
 4254TIP3    H134177   3.257   6.460  14.295 -2.1313 -0.2943  0.4897
 4254TIP3    H234178   3.201   6.355  14.202 -1.6279  1.0970 -1.4444
 4255TIP3   OH234179   2.184   5.182   4.708  0.3966  0.2013  0.3507
 4255TIP3    H134180   2.277   5.204   4.714  0.6555 -0.6934 -0.2473
 4255TIP3    H234181   2.139   5.261   4.738  1.3641 -0.0635  2.7026
 4256TIP3   OH234182   3.113   5.637   3.262 -0.7723 -0.4909  0.2115
 4256TIP3    H134183   3.076   5.649   3.350  1.8442  1.0550  1.2037
 4256TIP3    H234184   3.169   5.713   3.249 -0.6939 -0.9546 -2.6288
 4257TIP3   OH234185   0.796   2.975  17.069  0.2073 -0.2613  0.2235
 4257TIP3    H134186   0.776   3.005  16.980 -0.9318 -0.6724  0.3205
 4257TIP3    H234187   0.711   2.952  17.106  0.3139  2.2793  2.3151
 4258TIP3   OH234188   0.218   6.218   4.094  0.8049 -0.9325  0.2328
 4258TIP3    H134189   0.171   6.257   4.020  0.2315 -1.0423  0.5308
 4258TIP3    H234190   0.307   6.203   4.062  0.4377 -1.3983 -0.5742
 4259TIP3   OH234191   0.204   0.204  16.855 -0.6070  0.3089  0.6317
 4259TIP3    H134192   0.132   0.166  16.805 -0.4377  1.1153 -0.2640
 4259TIP3    H234193   0.169   0.288  16.887 -0.3316  0.3263  0.8896
 4260TIP3   OH234194   5.169   3.113  16.025  0.4153  0.2725 -0.2541
 4260TIP3    H134195   5.264   3.114  16.012  0.4401 -0.9913 -0.3169
 4260TIP3    H234196   5.157   3.083  16.116  0.0675 -0.0232 -0.3950
 4261TIP3   OH234197   5.076   5.345  12.743 -0.0612  0.1485  0.3753
 4261TIP3    H134198   5.023   5.266  12.744  0.6340 -0.3388  1.7485
 4261TIP3    H234199   5.100   5.359  12.835 -0.6072  2.2614  0.2551
 4262TIP3   OH234200   1.265   3.328   4.578 -0.1025  0.1010 -0.5435
 4262TIP3    H134201   1.218   3.342   4.661 -0.1621  0.2143 -0.5968
 4262TIP3    H234202   1.305   3.241   4.588  1.7346  1.0086  0.5087
 4263TIP3   OH234203   6.180   6.219  15.440  0.0181  0.4414  0.0138
 4263TIP3    H134204   6.103   6.188  15.391  0.7522 -0.1679 -0.7842
 4263TIP3    H234205   6.184   6.160  15.516 -1.4853  1.7810  1.1992
 4264TIP3   OH234206   3.317   4.132   4.832  0.0585  0.0961  0.6086
 4264TIP3    H134207   3.376   4.128   4.908 -1.4234 -1.7322  1.7470
 4264TIP3    H234208   3.237   4.172   4.867 -0.6159 -0.7019  0.0002
 4265TIP3   OH234209   6.387   3.759  12.689  0.1785  0.1719  0.1904
 4265TIP3    H134210   6.381   3.815  12.767  2.5052 -0.2427  0.7349
 4265TIP3    H234211   6.404   3.672  12.724 -0.3961 -0.3399 -0.7632
 4266TIP3   OH234212   1.680   6.664  13.499  0.6765 -0.5489 -0.4432
 4266TIP3    H134213   1.724   6.620  13.572  0.7499  0.7827  0.3629
 4266TIP3    H234214   1.743   6.729  13.469  1.5236 -2.4637 -3.1762
 4267TIP3   OH234215   5.095   2.389  11.349 -0.3373  0.5602 -0.5691
 4267TIP3    H134216   5.086   2.453  11.278  1.1109 -1.1662 -2.4512
 4267TIP3    H234217   5.150   2.432  11.414 -0.5082  1.6906 -1.1537
 4268TIP3   OH234218   2.581   5.244   2.049 -0.3051 -0.0241 -0.1601
 4268TIP3    H134219   2.602   5.169   2.104 -0.1276  0.0041 -0.1884
 4268TIP3    H234220   2.486   5.239   2.035 -0.3449 -0.0504  0.1200
 4269TIP3   OH234221   4.736   4.248   0.417  0.0713 -0.3496  0.1023
 4269TIP3    H134222   4.685   4.236   0.497  0.0220  0.7068  0.2372
 4269TIP3    H234223   4.757   4.159   0.389 -2.5834 -0.9014 -0.4298
 4270TIP3   OH234224   0.306   4.148   5.229 -0.0185 -0.6262  0.2199
 4270TIP3    H134225   0.297   4.077   5.166  0.1845 -0.6483  0.2145
 4270TIP3    H234226   0.287   4.107   5.314 -2.7780 -0.0678 -0.0422
 4271TIP3   OH234227   4.254   2.955  11.939 -0.6917 -0.1811 -0.0506
 4271TIP3    H134228   4.230   2.999  11.857  0.0552  0.3492  0.0033
 4271TIP3    H234229   4.219   2.866  11.930 -1.0588  0.0284 -0.7297
 4272TIP3   OH234230   0.279   4.815   4.894 -0.0840 -0.3538 -0.2753
 4272TIP3    H134231   0.340   4.853   4.831  0.7869  1.8256  1.7170
 4272TIP3    H234232   0.317   4.731   4.917  0.4837 -0.4086 -1.3699
 4273TIP3   OH234233   0.177   3.546   0.420 -0.3910  0.8874 -0.1447
 4273TIP3    H134234   0.215   3.631   0.398  0.5230 -0.2831 -3.6930
 4273TIP3    H234235   0.089   3.549   0.383  0.2534 -0.2502 -1.8584
 4274TIP3   OH234236   2.796   2.133  11.557  0.0448 -0.1772  0.2680
 4274TIP3    H134237   2.853   2.165  11.628  0.3439  1.2198 -0.5678
 4274TIP3    H234238   2.754   2.212  11.524 -0.3112 -0.8547 -0.9240
 4275TIP3   OH234239   2.187   6.302  16.834 -0.2594  0.8196  0.4426
 4275TIP3    H134240   2.201   6.212  16.864 -0.1933 -0.1381 -2.2613
 4275TIP3    H234241   2.272   6.344  16.844  0.6755 -0.4721 -1.4577
 4276TIP3   OH234242   6.731   0.594  13.088 -0.0992  0.7668  0.3813
 4276TIP3    H134243   6.681   0.536  13.031 -0.2693  1.1479  0.1391
 4276TIP3    H234244   6.690   0.679  13.078  0.0872  0.9128  0.8115
 4277TIP3   OH234245   5.297   3.140  16.317  0.1555  0.6424 -0.0362
 4277TIP3    H134246   5.392   3.135  16.303  0.6057  2.5874  1.8236
 4277TIP3    H234247   5.283   3.228  16.352 -2.3188  0.2929 -0.0234
 4278TIP3   OH234248   3.123   4.889  16.010 -0.5473 -0.3814  0.2485
 4278TIP3    H134249   3.176   4.941  15.950 -0.8762  0.3095  0.5492
 4278TIP3    H234250   3.187   4.833  16.055 -0.2762 -0.7526 -0.5833
 4279TIP3   OH234251   6.345   2.241   0.100 -0.5832 -0.3551  0.0558
 4279TIP3    H134252   6.383   2.223   0.186 -1.8833  0.5761  0.8685
 4279TIP3    H234253   6.294   2.322   0.113 -0.2878  0.1666 -1.7528
 4280TIP3   OH234254   6.411   6.126  14.274 -0.4396  0.0807 -0.0551
 4280TIP3    H134255   6.470   6.051  14.261 -0.7255 -0.1855  0.1594
 4280TIP3    H234256   6.354   6.098  14.346 -0.6116  0.4685 -0.0419
 4281TIP3   OH234257   1.258   1.479   1.719 -0.3069 -0.4614  0.3103
 4281TIP3    H134258   1.213   1.518   1.794  1.2483 -0.4700  1.2952
 4281TIP3    H234259   1.262   1.386   1.739 -0.3151 -0.5344 -0.0250
 4282TIP3   OH234260   3.302   4.838   2.225 -0.3309 -0.6577 -0.0577
 4282TIP3    H134261   3.277   4.824   2.134 -0.8064  0.8703 -0.1994
 4282TIP3    H234262   3.362   4.913   2.221 -1.3638  0.2629  0.9891
 4283TIP3   OH234263   2.348   6.540  13.025 -0.1613  0.4421 -0.2634
 4283TIP3    H134264   2.296   6.615  12.996  1.0675  2.1671  1.7021
 4283TIP3    H234265   2.401   6.517  12.948  0.1336  2.2447 -0.6605
 4284TIP3   OH234266   4.262   0.930   1.780  0.6014  0.3019 -0.4301
 4284TIP3    H134267   4.179   0.974   1.799  0.2738 -1.2608  2.4942
 4284TIP3    H234268   4.327   0.978   1.831  1.8467  2.1520 -3.5009
 4285TIP3   OH234269   4.598   1.823  15.752  0.0225 -0.4186  0.1590
 4285TIP3    H134270   4.531   1.792  15.813 -0.3244 -0.8134 -0.4127
 4285TIP3    H234271   4.680   1.788  15.786 -0.0547  0.0663  0.8637
 4286TIP3   OH234272   1.217   5.226   0.311  0.2593  0.6485  0.3923
 4286TIP3    H134273   1.281   5.267   0.252  1.6031  0.8043  1.8761
 4286TIP3    H234274   1.140   5.283   0.306  0.2065  0.4715 -1.4258
 4287TIP3   OH234275   6.554   0.655   0.161  0.3097  0.5126  0.0165
 4287TIP3    H134276   6.645   0.677   0.180  0.5654 -0.5070  0.0557
 4287TIP3    H234277   6.551   0.559   0.168 -0.3271  0.3649 -1.8845
 4288TIP3   OH234278   4.544   3.763   1.500  0.6827 -0.5649 -0.4676
 4288TIP3    H134279   4.478   3.693   1.504  0.0101 -0.0231 -1.5110
 4288TIP3    H234280   4.570   3.765   1.408  1.0511  0.2304 -0.3505
 4289TIP3   OH234281   0.434   2.277   2.560  0.0350  0.3493  0.8369
 4289TIP3    H134282   0.511   2.332   2.577  1.4940 -1.0906 -0.6729
 4289TIP3    H234283   0.457   2.193   2.598  0.1774 -0.7076 -1.4132
 4290TIP3   OH234284   4.204   6.199  15.341 -0.6538  0.7697 -0.2063
 4290TIP3    H134285   4.247   6.201  15.426  2.1169 -4.0344 -1.1641
 4290TIP3    H234286   4.271   6.229  15.279 -1.3363  0.5658 -1.0782
 4291TIP3   OH234287   0.087   4.645  13.596 -0.3043 -0.1773 -0.0203
 4291TIP3    H134288   0.169   4.673  13.636 -1.2271  0.3629  1.5863
 4291TIP3    H234289   0.067   4.562  13.639 -0.1650 -0.7894 -1.0845
 4292TIP3   OH234290   1.611   0.109  15.526 -0.1256  0.3404  0.1162
 4292TIP3    H134291   1.571   0.022  15.525 -1.1229  0.7969 -1.0139
 4292TIP3    H234292   1.582   0.148  15.609  0.9883 -0.6756  1.0196
 4293TIP3   OH234293   4.301   1.312  12.419 -0.0016  0.0002 -0.5706
 4293TIP3    H134294   4.254   1.290  12.339 -1.3704 -2.0022  0.6835
 4293TIP3    H234295   4.378   1.255  12.418  0.5227  0.7086 -0.9319
 4294TIP3   OH234296   1.899   6.031  13.980 -0.4959 -0.7926  0.5543
 4294TIP3    H134297   1.835   5.976  14.025 -1.3470 -0.2067  0.0838
 4294TIP3    H234298   1.965   5.970  13.948 -1.3197 -1.5248  0.2090
 4295TIP3   OH234299   5.688   0.680   0.110 -0.1448  0.4522  0.4235
 4295TIP3    H134300   5.604   0.726   0.115  0.8396  2.6525 -1.4754
 4295TIP3    H234301   5.682   0.628   0.030 -0.0386 -0.2361  0.8485
 4296TIP3   OH234302   6.441   5.568   3.114 -0.0971 -0.5105  0.3015
 4296TIP3    H134303   6.382   5.567   3.039 -0.4719 -0.7383  0.5954
 4296TIP3    H234304   6.468   5.660   3.122 -0.3009 -0.4293  0.0785
 4297TIP3   OH234305   2.859   0.793   3.913 -0.0948  0.2249 -0.4019
 4297TIP3    H134306   2.842   0.850   3.988 -0.9731  0.9173 -1.1111
 4297TIP3    H234307   2.780   0.740   3.904 -0.7927  1.4437 -1.9463
 4298TIP3   OH234308   3.141   0.579  16.544 -0.0457 -0.1082 -0.2539
 4298TIP3    H134309   3.145   0.524  16.622  1.0076 -0.2042 -0.3565
 4298TIP3    H234310   3.159   0.519  16.472  0.4234  0.2346 -0.4289
 4299TIP3   OH234311   1.466   1.509   3.895 -0.0116  0.1322 -0.6421
 4299TIP3    H134312   1.444   1.422   3.860  2.0375 -1.0498  0.7946
 4299TIP3    H234313   1.490   1.560   3.817 -0.5696 -0.7892 -1.4470
 4300TIP3   OH234314   4.305   2.601  15.031 -0.0570  0.0234  0.0491
 4300TIP3    H134315   4.386   2.653  15.037 -0.3528  0.4239  0.7126
 4300TIP3    H234316   4.274   2.595  15.122 -0.6343 -0.3482 -0.1691
 4301TIP3   OH234317   4.455   0.645   3.747  0.0682 -0.4995 -0.2141
 4301TIP3    H134318   4.529   0.690   3.788  1.5360 -2.0827 -0.9852
 4301TIP3    H234319   4.422   0.586   3.815 -0.6533  0.3798  0.2065
 4302TIP3   OH234320   1.723   6.384   5.031 -0.1347 -0.4198 -0.5633
 4302TIP3    H134321   1.762   6.355   4.948 -0.7479 -3.7385  0.1808
 4302TIP3    H234322   1.629   6.375   5.017 -0.2166 -2.0492  0.7671
 4303TIP3   OH234323   5.269   6.694  15.521  0.2572 -0.7222  0.6956
 4303TIP3    H134324   5.318   6.764  15.566 -1.1206  0.8171 -0.1075
 4303TIP3    H234325   5.177   6.718  15.533 -0.2056 -1.7693 -0.5947
 4304TIP3   OH234326   6.779   5.342  14.074  0.4148  0.6739 -0.1712
 4304TIP3    H134327   6.789   5.350  14.169  1.6713 -2.9331  0.1451
 4304TIP3    H234328   6.793   5.249  14.056  1.3469  1.3891 -4.0295
 4305TIP3   OH234329   1.495   1.382  14.034 -0.0737 -0.4713 -0.4644
 4305TIP3    H134330   1.578   1.429  14.029 -0.6329  0.7375  0.7724
 4305TIP3    H234331   1.460   1.406  14.120 -2.8035  0.9564 -1.8695
 4306TIP3   OH234332   1.158   4.592   5.052  0.0113 -0.5638  0.0652
 4306TIP3    H134333   1.117   4.544   4.980  0.1031  1.4648 -1.4428
 4306TIP3    H234334   1.145   4.684   5.030  1.0847  0.1447  2.0796
 4307TIP3   OH234335   3.787   6.534  11.744 -0.6629 -0.4316 -0.2357
 4307TIP3    H134336   3.855   6.595  11.775 -0.9185 -0.7879  1.0738
 4307TIP3    H234337   3.835   6.454  11.724 -0.2894  0.2076 -2.1818
 4308TIP3   OH234338   1.720   0.877   2.505 -0.3677 -0.0111  0.4115
 4308TIP3    H134339   1.688   0.857   2.593  1.4013  0.4792  1.2054
 4308TIP3    H234340   1.711   0.972   2.497  0.4528  0.0845  0.4950
 4309TIP3   OH234341   2.622   4.947   2.788 -0.0197 -0.0064  0.0412
 4309TIP3    H134342   2.600   5.036   2.761 -1.4104 -0.9193 -2.1133
 4309TIP3    H234343   2.537   4.907   2.808  0.4594 -1.1926 -0.2494
 4310TIP3   OH234344   4.658   1.454  16.620  0.3854  0.0619  0.6405
 4310TIP3    H134345   4.654   1.380  16.559  1.1218 -1.2368  2.0873
 4310TIP3    H234346   4.571   1.493  16.617  0.8942  1.2366 -2.6031
 4311TIP3   OH234347   3.923   4.852   1.565  0.1767  0.2336  0.0069
 4311TIP3    H134348   3.999   4.881   1.617  0.4410  0.8809 -0.7130
 4311TIP3    H234349   3.881   4.934   1.537 -1.1701 -0.1255  0.9285
 4312TIP3   OH234350   6.539   5.827  17.091 -0.2202  0.6592  0.0208
 4312TIP3    H134351   6.610   5.851  17.151  0.2652  0.4699 -0.4621
 4312TIP3    H234352   6.490   5.908  17.079 -0.6654  0.5598  1.1127
 4313TIP3   OH234353   2.004   4.776   0.457 -0.8868 -0.6429 -0.1524
 4313TIP3    H134354   2.073   4.711   0.474  0.0453  0.6862  1.3899
 4313TIP3    H234355   2.019   4.845   0.521 -2.3751  0.7227 -1.1871
 4314TIP3   OH234356   2.661   4.119   0.474 -0.0977 -0.0683  0.2383
 4314TIP3    H134357   2.680   4.099   0.382 -1.4368 -0.7715  0.0786
 4314TIP3    H234358   2.726   4.185   0.498  0.0021  0.4733 -1.3552
 4315TIP3   OH234359   1.698   2.695  16.571 -0.4649 -0.5141  0.4212
 4315TIP3    H134360   1.647   2.636  16.515  0.4599 -3.0520  2.1173
 4315TIP3    H234361   1.788   2.667  16.560  0.0144  0.6291  1.2930
 4316TIP3   OH234362   0.644   0.299   1.231  0.1558  0.1063 -0.3421
 4316TIP3    H134363   0.655   0.251   1.314  0.2716 -0.5718 -0.7406
 4316TIP3    H234364   0.713   0.266   1.175 -0.6771 -0.3527 -1.1212
 4317TIP3   OH234365   2.572   2.532  16.756 -0.8967 -0.1041  1.1657
 4317TIP3    H134366   2.542   2.529  16.665  1.1199  0.1082  0.4564
 4317TIP3    H234367   2.607   2.445  16.773  1.2328  0.6274  0.7991
 4318TIP3   OH234368   0.487   2.557  11.240 -0.5563  0.1865  0.1365
 4318TIP3    H134369   0.536   2.561  11.158  0.1033  1.3007  0.5723
 4318TIP3    H234370   0.432   2.479  11.231  0.2704 -0.2950 -0.9353
 4319TIP3   OH234371   4.276   5.426  14.882 -0.3310 -0.7887  0.2434
 4319TIP3    H134372   4.286   5.466  14.968 -0.5095 -1.1310  0.4226
 4319TIP3    H234373   4.254   5.500  14.824 -0.1953 -0.5564  0.4852
 4320TIP3   OH234374   3.731   1.279  12.847  0.4051 -0.0766  0.4116
 4320TIP3    H134375   3.671   1.241  12.911 -0.1732  0.5875  0.2810
 4320TIP3    H234376   3.780   1.205  12.812  0.3072 -0.5180  1.1867
 4321TIP3   OH234377   0.135   4.926   0.544  0.2386 -0.6753  0.5358
 4321TIP3    H134378   0.141   4.894   0.455 -0.9568  1.6742 -0.4845
 4321TIP3    H234379   0.055   4.885   0.579  0.3572 -1.1021  0.3031
 4322TIP3   OH234380   6.345   1.182  15.472  0.0558  1.2243  0.5163
 4322TIP3    H134381   6.386   1.118  15.414 -0.6502 -0.4914  1.8141
 4322TIP3    H234382   6.373   1.155  15.560 -0.1678  2.7895  1.0966
 4323TIP3   OH234383   0.747   3.510   3.126 -1.0639 -0.3551  0.8833
 4323TIP3    H134384   0.820   3.563   3.093 -1.0992 -0.5189  0.5331
 4323TIP3    H234385   0.673   3.534   3.072 -0.9681 -1.1007  0.4000
 4324TIP3   OH234386   3.053   6.646  15.683  0.5056 -0.2956 -0.0662
 4324TIP3    H134387   2.995   6.631  15.609  1.1354  2.1291 -1.1491
 4324TIP3    H234388   3.141   6.644  15.646  0.9186 -0.4004  0.8777
 4325TIP3   OH234389   6.624   4.008  14.727 -0.3009  0.6001  0.0732
 4325TIP3    H134390   6.604   3.955  14.649  0.8954 -1.4972  1.0760
 4325TIP3    H234391   6.597   3.953  14.800  3.1811  0.2266  1.2570
 4326TIP3   OH234392   3.693   5.383   2.033 -0.4043 -0.0473 -0.2141
 4326TIP3    H134393   3.687   5.333   2.115  1.7751  0.8530  0.5913
 4326TIP3    H234394   3.730   5.322   1.970 -3.0263 -1.0468 -0.8815
 4327TIP3   OH234395   5.300   0.862   2.708  0.3571 -0.1298 -0.0547
 4327TIP3    H134396   5.389   0.894   2.691 -0.4238  2.7523  0.7903
 4327TIP3    H234397   5.256   0.866   2.623  0.7378 -0.6778 -0.2890
 4328TIP3   OH234398   4.546   6.210   5.308 -0.5286 -0.5405  0.2939
 4328TIP3    H134399   4.549   6.115   5.319 -1.3143 -0.4478  1.4934
 4328TIP3    H234400   4.637   6.238   5.320  0.3753 -1.3840 -3.2960
 4329TIP3   OH234401   5.193   2.681  16.066  0.1402 -0.2682 -0.5248
 4329TIP3    H134402   5.158   2.719  15.986  0.0551 -0.1247 -0.4203
 4329TIP3    H234403   5.267   2.626  16.037 -0.9624 -1.6195 -0.8883
 4330TIP3   OH234404   1.890   1.775   3.602  0.2499  0.0636  0.0290
 4330TIP3    H134405   1.947   1.702   3.625  0.2516  0.0813  0.0823
 4330TIP3    H234406   1.920   1.847   3.657 -0.6059 -0.2642  0.9671
 4331TIP3   OH234407   6.238   5.831  16.631  0.6904 -0.4892 -0.1193
 4331TIP3    H134408   6.260   5.885  16.707  3.4069  0.7805 -1.6740
 4331TIP3    H234409   6.322   5.815  16.587 -0.8073 -0.6207 -3.2081
 4332TIP3   OH234410   4.010   0.236   4.685 -0.2608 -0.4402  0.3569
 4332TIP3    H134411   4.027   0.185   4.764 -0.2606 -0.1474  0.5487
 4332TIP3    H234412   4.029   0.176   4.613  1.6134 -0.1447  0.5517
 4333TIP3   OH234413   6.084   6.470  15.991 -0.3112  0.8037  0.3263
 4333TIP3    H134414   6.168   6.434  15.964  0.5152  0.3303  3.2325
 4333TIP3    H234415   6.028   6.460  15.914  1.7090 -0.7178 -1.0448
 4334TIP3   OH234416   3.129   6.523   2.030 -0.0825  0.2935  0.2746
 4334TIP3    H134417   3.043   6.550   1.997 -0.2101  0.5400  0.7916
 4334TIP3    H234418   3.146   6.583   2.102  0.5828  0.3251  0.0979
 4335TIP3   OH234419   5.176   5.541  16.500  0.3093 -0.1535 -0.2408
 4335TIP3    H134420   5.170   5.491  16.581  1.5076  1.6754  1.0840
 4335TIP3    H234421   5.112   5.501  16.441 -2.3979 -0.0683  2.4084
 4336TIP3   OH234422   6.072   3.120  13.072  0.0013 -0.0431 -0.6470
 4336TIP3    H134423   6.151   3.127  13.125  2.2608  0.8111 -3.8367
 4336TIP3    H234424   6.082   3.039  13.023 -1.3702 -0.1443 -0.8201
 4337TIP3   OH234425   0.960   1.744  11.273  0.0119 -0.0513 -0.2146
 4337TIP3    H134426   0.937   1.741  11.366 -0.0770  1.7168 -0.1422
 4337TIP3    H234427   0.902   1.811  11.236  2.8038  2.3663 -0.6442
 4338TIP3   OH234428   2.062   4.730  14.992 -0.0603 -0.4819  0.0328
 4338TIP3    H134429   2.079   4.786  15.067 -0.4009 -1.4531  0.8689
 4338TIP3    H234430   2.054   4.790  14.918  0.7455  0.4571  0.6862
 4339TIP3   OH234431   1.636   5.191   1.400 -0.7713 -0.0083 -0.1597
 4339TIP3    H134432   1.723   5.232   1.403 -0.9849  0.4058  0.7081
 4339TIP3    H234433   1.651   5.104   1.365  0.0164  0.0158  0.1058
 4340TIP3   OH234434   3.362   3.811   5.017  0.3892 -0.1466  0.2254
 4340TIP3    H134435   3.301   3.751   5.060 -0.4558  1.5376  1.5313
 4340TIP3    H234436   3.399   3.863   5.089  1.8124  0.2569 -0.7543
 4341TIP3   OH234437   4.787   5.697  10.124 -0.3534 -0.3203 -0.4847
 4341TIP3    H134438   4.781   5.764  10.193 -0.5875 -0.0624 -0.7535
 4341TIP3    H234439   4.879   5.671  10.124 -0.7031 -1.7612  1.2754
 4342TIP3   OH234440   4.580   0.716   0.952 -0.3315 -0.1367 -0.1477
 4342TIP3    H134441   4.654   0.668   0.916 -1.0467 -3.3226  2.2053
 4342TIP3    H234442   4.613   0.753   1.034 -0.5129  1.3009 -0.6936
 4343TIP3   OH234443   4.344   1.340  14.921  0.6029 -0.1989 -0.3986
 4343TIP3    H134444   4.297   1.419  14.950 -0.6041 -1.3738  0.9987
 4343TIP3    H234445   4.372   1.360  14.832  0.8063  2.0111  0.1031
 4344TIP3   OH234446   2.306   3.945   4.797  0.1572 -0.0804  1.0722
 4344TIP3    H134447   2.287   4.037   4.817  0.8531  0.1619  0.6387
 4344TIP3    H234448   2.303   3.940   4.701 -1.0491 -0.7707  1.1248
 4345TIP3   OH234449   1.981   4.278  15.379 -0.2571  0.1285 -0.3236
 4345TIP3    H134450   1.963   4.323  15.461  0.3469  0.4379 -0.3602
 4345TIP3    H234451   2.011   4.191  15.406 -1.2435 -0.2113 -0.2508
 4346TIP3   OH234452   6.155   6.116  16.253  0.0044 -0.0543 -0.0618
 4346TIP3    H134453   6.108   6.199  16.246 -1.7672 -0.7569  2.1597
 4346TIP3    H234454   6.094   6.050  16.221  0.5056 -0.7184  0.3085
 4347TIP3   OH234455   6.730   1.328   2.885  0.1392 -0.4811  0.1261
 4347TIP3    H134456   6.744   1.274   2.808 -0.0980 -1.2730  0.6178
 4347TIP3    H234457   6.812   1.375   2.898  0.6383 -1.3319  0.1370
 4348TIP3   OH234458   5.601   2.562  16.996  0.5386 -0.3197 -0.1790
 4348TIP3    H134459   5.646   2.540  16.915 -1.7745 -1.6156 -1.2123
 4348TIP3    H234460   5.559   2.646  16.979  1.1038  0.0364  0.1574
 4349TIP3   OH234461   0.485   2.014   2.123 -0.6818  0.0763  0.3069
 4349TIP3    H134462   0.541   1.936   2.131 -0.9757 -0.1286  0.3665
 4349TIP3    H234463   0.396   1.979   2.120 -1.1742  0.6008  4.2788
 4350TIP3   OH234464   5.045   4.138  11.444 -0.0398 -0.6108 -0.4373
 4350TIP3    H134465   4.986   4.199  11.400 -0.2482 -0.6301 -0.1855
 4350TIP3    H234466   4.989   4.091  11.506  0.1986 -0.7748 -0.3462
 4351TIP3   OH234467   1.551   2.485  11.853  0.1647 -0.2526  0.2604
 4351TIP3    H134468   1.502   2.510  11.775  0.5623 -1.3072 -0.3568
 4351TIP3    H234469   1.494   2.508  11.926  0.1574  1.5827 -0.2746
 4352TIP3   OH234470   4.362   2.979   5.496 -0.8440  0.2820 -0.1662
 4352TIP3    H134471   4.425   3.029   5.445 -0.5858  0.8364  0.6716
 4352TIP3    H234472   4.382   3.000   5.587 -1.5826 -0.3267  0.1533
 4353TIP3   OH234473   0.403   0.611  12.887  0.0091  0.8345  0.1225
 4353TIP3    H134474   0.478   0.574  12.842  0.7339  1.1908  1.0118
 4353TIP3    H234475   0.366   0.674  12.824  1.6963  2.1886  0.4112
 4354TIP3   OH234476   5.184   3.864   4.718 -0.2969  0.3744  0.6628
 4354TIP3    H134477   5.228   3.903   4.792  0.6269  1.0488 -0.2147
 4354TIP3    H234478   5.141   3.937   4.673  0.8900  0.3303 -0.6179
 4355TIP3   OH234479   3.895   4.316  14.385 -0.3112  0.5468 -0.1097
 4355TIP3    H134480   3.906   4.377  14.457  0.8802  0.1807  0.0529
 4355TIP3    H234481   3.971   4.332  14.329 -0.6010  0.0226 -0.6626
 4356TIP3   OH234482   2.447   2.127   2.427  0.2315  0.1541  0.0739
 4356TIP3    H134483   2.401   2.195   2.477 -0.2928 -1.3210  1.6753
 4356TIP3    H234484   2.520   2.101   2.484 -0.1503 -1.3022 -0.0713
 4357TIP3   OH234485   3.304   5.576  16.268 -0.2534 -0.0194 -0.0945
 4357TIP3    H134486   3.260   5.660  16.278 -1.5052 -0.6578 -0.0965
 4357TIP3    H234487   3.387   5.597  16.225  0.1401  1.3819  1.2732
 4358TIP3   OH234488   2.664   3.883  16.049  0.9388 -0.2737 -0.2473
 4358TIP3    H134489   2.684   3.900  16.140 -0.8951 -0.7461  0.2839
 4358TIP3    H234490   2.747   3.851  16.012  1.4157 -1.2877  1.5583
 4359TIP3   OH234491   5.477   4.456  16.849 -0.5751  0.5464  0.4303
 4359TIP3    H134492   5.422   4.521  16.805 -0.8814  0.3882  0.5701
 4359TIP3    H234493   5.567   4.485  16.835 -0.7533  2.3669  2.5359
 4360TIP3   OH234494   4.847   4.896   1.709 -0.4157 -0.1629  0.2062
 4360TIP3    H134495   4.800   4.897   1.626  1.0481  0.0613 -0.6396
 4360TIP3    H234496   4.885   4.983   1.717 -1.6571  0.3023  1.8168
 4361TIP3   OH234497   1.494   5.942  16.328  0.6904  0.8783  0.0877
 4361TIP3    H134498   1.492   5.904  16.240  0.4982 -1.0943  0.8985
 4361TIP3    H234499   1.448   6.026  16.318 -0.6528  0.0341 -1.3976
 4362TIP3   OH234500   0.861   1.460  11.178 -0.6385  0.4465  0.1030
 4362TIP3    H134501   0.860   1.526  11.247  3.3795  0.6203  0.2080
 4362TIP3    H234502   0.895   1.381  11.221 -0.6203 -0.2250 -1.0926
 4363TIP3   OH234503   1.035   1.734  13.627  0.0945 -0.2968  0.0614
 4363TIP3    H134504   1.053   1.669  13.695 -0.0594  0.4547  0.8298
 4363TIP3    H234505   0.993   1.806  13.673 -0.4441  0.0339 -0.9107
 4364TIP3   OH234506   5.862   0.942  14.516 -0.6076 -0.4237 -0.3636
 4364TIP3    H134507   5.788   1.002  14.522 -1.0238 -0.7113 -2.0069
 4364TIP3    H234508   5.938   0.999  14.503 -0.8155 -0.2048 -0.6210
 4365TIP3   OH234509   5.960   3.084   0.006 -0.5670 -0.3670  0.2100
 4365TIP3    H134510   5.954   3.179  -0.004 -1.1764 -0.2420  1.5585
 4365TIP3    H234511   5.934   3.068   0.097  1.8865 -1.6018  0.7684
 4366TIP3   OH234512   6.211   1.465   3.776  0.5799  0.0949  0.5955
 4366TIP3    H134513   6.289   1.416   3.800 -0.7301 -2.6974 -0.4524
 4366TIP3    H234514   6.162   1.473   3.857  0.5974 -0.7700  0.6964
 4367TIP3   OH234515   3.594   5.319   3.180 -0.0724  0.3671 -0.1137
 4367TIP3    H134516   3.632   5.232   3.197  0.6822  0.6522 -0.3199
 4367TIP3    H234517   3.661   5.365   3.130 -0.9170  0.7016 -0.9667
 4368TIP3   OH234518   5.975   4.322  15.680 -0.0149 -0.4908 -0.5439
 4368TIP3    H134519   5.965   4.412  15.649  0.0518 -0.7791 -1.4274
 4368TIP3    H234520   6.023   4.278  15.610  3.8774 -0.2082  1.6216
 4369TIP3   OH234521   5.642   1.739  12.953  0.1844  0.3245 -0.7004
 4369TIP3    H134522   5.704   1.812  12.957 -2.2423  2.4795  1.0955
 4369TIP3    H234523   5.627   1.715  13.044 -0.0738 -1.5806 -1.2063
 4370TIP3   OH234524   1.624   3.907  14.393 -0.2304 -0.1434 -0.5768
 4370TIP3    H134525   1.556   3.893  14.327 -2.8541 -0.3526  1.9485
 4370TIP3    H234526   1.587   3.974  14.451  1.2129 -1.0622  1.5297
 4371TIP3   OH234527   3.348   1.618  11.684  0.0110 -0.8063  0.4581
 4371TIP3    H134528   3.329   1.675  11.610  0.6310 -0.5221  0.5126
 4371TIP3    H234529   3.315   1.665  11.761  0.2915 -0.6380  0.4745
 4372TIP3   OH234530   3.890   3.883   3.659 -0.2663 -0.0406 -0.0264
 4372TIP3    H134531   3.857   3.957   3.607  1.8158 -0.0007 -1.3943
 4372TIP3    H234532   3.897   3.918   3.748  0.9606  1.5372 -0.7043
 4373TIP3   OH234533   0.915   5.293  11.634 -0.5791  0.4649  1.1443
 4373TIP3    H134534   0.979   5.354  11.669  2.1826 -0.6175 -1.5581
 4373TIP3    H234535   0.889   5.331  11.549 -0.6378 -0.9133  0.5126
 4374TIP3   OH234536   2.759   1.544  12.278 -0.1867  0.1114  0.0025
 4374TIP3    H134537   2.751   1.610  12.209 -0.6492  0.2036  0.1450
 4374TIP3    H234538   2.827   1.578  12.336  0.0049  0.1691 -0.2544
 4375TIP3   OH234539   0.063   0.166  14.823  0.4047  0.4384  0.2291
 4375TIP3    H134540   0.115   0.103  14.773 -0.2201 -0.6787  0.9532
 4375TIP3    H234541   0.002   0.203  14.758 -2.2246 -2.9321  0.5240
 4376TIP3   OH234542   5.204   5.205  16.473  0.2819 -0.2399  0.1920
 4376TIP3    H134543   5.278   5.248  16.515 -0.5108 -0.0160  1.4017
 4376TIP3    H234544   5.186   5.258  16.396 -0.9872  1.9854  1.9034
 4377TIP3   OH234545   4.853   4.505  10.514  0.2409  0.1757  0.1129
 4377TIP3    H134546   4.768   4.515  10.557  1.0628  0.4611  1.7472
 4377TIP3    H234547   4.894   4.432  10.559  1.6099  1.2394  0.6605
 4378TIP3   OH234548   6.422   1.766   0.945 -0.0949  0.1219  0.1662
 4378TIP3    H134549   6.412   1.730   0.856 -1.5362  0.1466  0.2967
 4378TIP3    H234550   6.516   1.759   0.963  0.0181 -1.3024 -0.7762
 4379TIP3   OH234551   0.715   0.059   5.015  0.2594 -0.1778 -0.1381
 4379TIP3    H134552   0.793   0.031   4.968 -0.1677  0.4901 -1.2896
 4379TIP3    H234553   0.657  -0.017   5.014  1.7454 -1.5181  2.8145
 4380TIP3   OH234554   2.309   4.131  15.294  0.0949  0.5417 -0.5653
 4380TIP3    H134555   2.311   4.039  15.270  1.4057  0.5052 -0.4038
 4380TIP3    H234556   2.398   4.150  15.323  0.0604  2.0765 -1.3835
 4381TIP3   OH234557   4.938   5.693   5.967  0.7659 -1.0527 -0.5040
 4381TIP3    H134558   4.962   5.679   6.058 -0.0294 -0.9050 -0.2651
 4381TIP3    H234559   4.877   5.767   5.969  0.3971 -1.3293 -1.1021
 4382TIP3   OH234560   1.063   5.891  16.939  0.2343  0.0777 -0.0749
 4382TIP3    H134561   1.143   5.877  16.988 -0.9755 -0.5496  1.8212
 4382TIP3    H234562   1.080   5.850  16.854  2.3098  1.0293 -0.1880
 4383TIP3   OH234563   6.622   5.138   2.030  0.0419  0.1010  0.5484
 4383TIP3    H134564   6.676   5.201   2.079  1.0971 -0.6035  0.3447
 4383TIP3    H234565   6.558   5.107   2.094 -1.4817  2.4386  0.2576
 4384TIP3   OH234566   2.897   1.149  15.444 -0.2328  0.1985  0.0328
 4384TIP3    H134567   2.983   1.143  15.486  0.8623  0.8736 -1.9667
 4384TIP3    H234568   2.916   1.144  15.350 -2.5976 -1.6252 -0.4358
 4385TIP3   OH234569   2.374   4.073   3.082 -0.0290 -0.4155 -0.4710
 4385TIP3    H134570   2.362   3.982   3.107 -0.8817 -0.2802 -0.3826
 4385TIP3    H234571   2.420   4.069   2.998 -1.0025 -0.9459 -0.9850
 4386TIP3   OH234572   4.303   5.490  13.228  0.4518  0.2835  0.1673
 4386TIP3    H134573   4.308   5.567  13.172 -2.7681 -0.5214 -1.4838
 4386TIP3    H234574   4.348   5.421  13.179 -0.3016  0.1549 -0.3658
 4387TIP3   OH234575   0.163   3.534   5.037  0.1428  0.8450 -0.2529
 4387TIP3    H134576   0.128   3.448   5.061  1.4814  0.9047  2.1586
 4387TIP3    H234577   0.088   3.593   5.045 -0.5861  0.0785 -1.1194
 4388TIP3   OH234578   3.449   3.204   4.326  0.6247  0.0594 -0.6082
 4388TIP3    H134579   3.475   3.160   4.245  1.0921  0.0075 -0.4352
 4388TIP3    H234580   3.356   3.224   4.314  0.6798  0.0150 -1.1390
 4389TIP3   OH234581   2.098   4.214   3.886  0.0896 -0.2848 -0.0249
 4389TIP3    H134582   2.120   4.223   3.979  0.9754  1.5310 -0.3541
 4389TIP3    H234583   2.003   4.212   3.884  0.0538  0.0161  0.9013
 4390TIP3   OH234584   6.661   2.481   4.028  0.1128  0.5789 -0.6579
 4390TIP3    H134585   6.610   2.410   3.989  0.9422 -0.6474  0.3973
 4390TIP3    H234586   6.728   2.501   3.962 -1.3919  1.8931 -1.8557
 4391TIP3   OH234587   3.461   6.530   2.678 -0.4087  0.7828  0.5266
 4391TIP3    H134588   3.511   6.603   2.640 -0.3812 -0.5623 -2.2799
 4391TIP3    H234589   3.528   6.467   2.706 -0.4661  0.3999 -0.1822
 4392TIP3   OH234590   4.687   5.471   1.336 -0.0036 -0.5281  0.3050
 4392TIP3    H134591   4.688   5.534   1.264 -0.0976  0.5428  1.2017
 4392TIP3    H234592   4.701   5.525   1.415 -1.0228 -1.5034  1.1891
 4393TIP3   OH234593   3.061   0.562  17.061 -0.1570 -0.0230  0.1426
 4393TIP3    H134594   3.136   0.502  17.063  2.2086  2.5590 -2.4141
 4393TIP3    H234595   3.065   0.607  17.146  1.9042  0.7599 -0.3036
 4394TIP3   OH234596   6.562   1.398   0.458 -0.7980 -0.4558  0.0725
 4394TIP3    H134597   6.654   1.377   0.442 -0.5463  0.8165 -0.3068
 4394TIP3    H234598   6.562   1.493   0.472 -2.1642 -0.2888 -0.8515
 4395TIP3   OH234599   2.691   1.971   2.538 -0.5192 -0.4611 -0.4028
 4395TIP3    H134600   2.705   1.906   2.606  0.4976  1.3903  1.2577
 4395TIP3    H234601   2.673   2.052   2.585 -3.5305  0.2007 -2.3986
 4396TIP3   OH234602   0.136   2.947  15.018 -0.2420  0.0330  0.1442
 4396TIP3    H134603   0.155   3.021  14.961 -2.7128  0.0407 -0.7835
 4396TIP3    H234604   0.116   2.987  15.103 -0.5546  0.3487 -0.0766
 4397TIP3   OH234605   4.731   3.872   2.344  0.4045  0.0622 -0.3707
 4397TIP3    H134606   4.687   3.955   2.324  0.2166 -0.0020 -0.2201
 4397TIP3    H234607   4.669   3.805   2.317  0.9978 -0.0465 -1.5284
 4398TIP3   OH234608   1.874   3.388   1.951 -0.3482  0.1454 -0.3680
 4398TIP3    H134609   1.889   3.331   1.876 -0.7776 -0.2719 -0.1408
 4398TIP3    H234610   1.950   3.446   1.953 -0.2361  0.0199 -0.9981
 4399TIP3   OH234611   4.730   6.367   1.402 -0.1372  0.2759 -0.3333
 4399TIP3    H134612   4.647   6.415   1.409  0.6605  1.8663 -1.1246
 4399TIP3    H234613   4.755   6.348   1.492 -1.6158 -0.7455 -0.0984
 4400TIP3   OH234614   6.124   2.651  13.492  0.5147  0.1529 -0.0553
 4400TIP3    H134615   6.035   2.670  13.465  0.5015 -2.2648 -2.1505
 4400TIP3    H234616   6.124   2.659  13.587 -1.4140  1.9752 -0.1561
 4401TIP3   OH234617   3.860   3.853  14.477 -0.1651  0.2515 -0.4567
 4401TIP3    H134618   3.770   3.831  14.453  0.1146 -1.3201 -0.1254
 4401TIP3    H234619   3.866   3.836  14.571  1.1165 -2.1067 -0.8868
 4402TIP3   OH234620   6.018   3.631   1.362 -0.4866  0.4330  0.1134
 4402TIP3    H134621   5.974   3.561   1.313 -2.0765  1.0641  0.5817
 4402TIP3    H234622   6.111   3.619   1.342 -0.8145 -1.1738 -0.6316
 4403TIP3   OH234623   1.732   4.060  12.217 -0.1154  0.0065 -0.4191
 4403TIP3    H134624   1.809   4.006  12.197  0.6054  0.1382  1.7021
 4403TIP3    H234625   1.658   4.001  12.206  0.5187 -0.9286  0.1761
 4404TIP3   OH234626   4.357   1.042   4.188 -0.1026  0.4737 -1.0261
 4404TIP3    H134627   4.409   1.035   4.268 -1.6540 -0.9859 -0.0868
 4404TIP3    H234628   4.267   1.054   4.219 -0.9481 -1.5141 -2.4778
 4405TIP3   OH234629   1.909   2.993   5.639  0.0797 -0.2057  0.3396
 4405TIP3    H134630   1.863   3.038   5.568  1.2092 -1.2224 -1.1002
 4405TIP3    H234631   1.963   3.061   5.679  2.6377 -0.3456 -2.5357
 4406TIP3   OH234632   3.873   0.840   0.226 -0.5630  0.1850 -0.1321
 4406TIP3    H134633   3.906   0.814   0.311  0.4889 -0.5325 -0.7386
 4406TIP3    H234634   3.906   0.929   0.213  1.6340 -0.6872 -0.9365
 4407TIP3   OH234635   5.790   3.422   4.443 -0.0063  0.1558  0.2338
 4407TIP3    H134636   5.852   3.390   4.377 -0.9926 -0.7927 -0.2469
 4407TIP3    H234637   5.819   3.380   4.524  0.3064  0.1452  0.1213
 4408TIP3   OH234638   2.367   1.367  13.530  0.1929  0.1557 -0.2268
 4408TIP3    H134639   2.398   1.449  13.568  0.0110 -1.1239  2.9358
 4408TIP3    H234640   2.272   1.379  13.522 -0.0099 -0.1787  1.4800
 4409TIP3   OH234641   5.907   2.442   0.227  0.6427  0.4794 -0.5396
 4409TIP3    H134642   5.829   2.387   0.236  1.7934 -0.8712  2.4801
 4409TIP3    H234643   5.885   2.522   0.275  1.1376 -0.0080  0.5392
 4410TIP3   OH234644   2.206   1.772   0.334 -0.4488  0.4538  0.1266
 4410TIP3    H134645   2.163   1.732   0.258 -0.4211 -0.4433  0.5606
 4410TIP3    H234646   2.284   1.718   0.348 -0.6793  0.3445  1.0442
 4411TIP3   OH234647   0.247   0.095  13.764  0.7161 -0.0284 -0.2183
 4411TIP3    H134648   0.287   0.171  13.721 -1.8200  0.7689 -1.3267
 4411TIP3    H234649   0.276   0.102  13.855  0.7254  2.1599 -0.3277
 4412TIP3   OH234650   1.755   0.308  13.957  0.1473 -0.1385  0.0775
 4412TIP3    H134651   1.729   0.311  13.865 -1.0930 -0.0375  0.4123
 4412TIP3    H234652   1.673   0.293  14.005  0.8404 -0.6749  1.1345
 4413TIP3   OH234653   4.726   5.105   5.681  0.6220  0.7320  0.2756
 4413TIP3    H134654   4.749   5.197   5.694  1.2138  0.6357 -0.0666
 4413TIP3    H234655   4.759   5.060   5.759  0.8845  0.7204  0.1601
 4414TIP3   OH234656   5.423   3.872  14.181 -0.4449  0.0937 -0.2147
 4414TIP3    H134657   5.349   3.904  14.130 -1.4654  0.8615  1.6167
 4414TIP3    H234658   5.424   3.928  14.259  0.3744 -1.6405  1.1029
 4415TIP3   OH234659   0.217   3.069  11.307 -0.0834 -0.0641 -0.1891
 4415TIP3    H134660   0.167   3.097  11.384 -2.0751 -1.0089 -1.0585
 4415TIP3    H234661   0.269   2.995  11.338 -1.1405 -0.6664  0.1980
 4416TIP3   OH234662   0.844   2.120  13.284  0.0505  0.1314  0.3257
 4416TIP3    H134663   0.782   2.192  13.276  1.7770  1.7487  0.5391
 4416TIP3    H234664   0.874   2.104  13.194 -0.9705 -0.9579  0.1619
 4417TIP3   OH234665   2.270   4.206  14.052  0.1262 -0.2366 -0.7604
 4417TIP3    H134666   2.228   4.287  14.081 -0.9231 -0.9661 -0.1619
 4417TIP3    H234667   2.219   4.179  13.976 -1.1568 -1.6046  0.5058
 4418TIP3   OH234668   3.419   3.686   2.345 -0.4900 -0.1241  0.4327
 4418TIP3    H134669   3.403   3.667   2.253  3.9380 -0.7166 -0.4375
 4418TIP3    H234670   3.388   3.775   2.358 -2.0138 -0.3451 -1.3258
 4419TIP3   OH234671   2.074   2.471   5.075 -0.3958  0.0753  0.4492
 4419TIP3    H134672   2.027   2.538   5.025  0.3535 -0.3130 -0.8236
 4419TIP3    H234673   2.129   2.520   5.135 -0.7144  0.5762  0.3408
 4420TIP3   OH234674   5.297   4.941  11.755  0.1500 -0.8280 -0.2126
 4420TIP3    H134675   5.300   4.857  11.710 -2.5383  0.2875 -2.8263
 4420TIP3    H234676   5.204   4.965  11.754  0.9637  2.8569 -1.0433
 4421TIP3   OH234677   3.842   3.621   3.352  0.4754 -0.0116  0.7301
 4421TIP3    H134678   3.753   3.594   3.330  0.3271  0.0662  1.2032
 4421TIP3    H234679   3.886   3.631   3.268 -0.4468  1.5933  0.3906
 4422TIP3   OH234680   4.819   4.435  11.909  0.4630  0.5736  1.1622
 4422TIP3    H134681   4.790   4.401  11.993 -1.3941  1.1695  0.8224
 4422TIP3    H234682   4.820   4.530  11.920  1.2486  0.6119  0.8197
 4423TIP3   OH234683   5.904   5.246  16.761 -0.1905 -0.3741 -0.2892
 4423TIP3    H134684   5.938   5.318  16.814 -0.2725  1.1465 -2.1995
 4423TIP3    H234685   5.810   5.264  16.753 -0.1828 -0.5746 -0.9196
 4424TIP3   OH234686   4.240   2.569  12.565 -0.3292  0.2981 -0.1498
 4424TIP3    H134687   4.267   2.490  12.520  0.6856  0.1909  0.6211
 4424TIP3    H234688   4.149   2.582  12.538  0.3855  0.5650 -2.6645
 4425TIP3   OH234689   1.891   5.932  12.021  0.6153  0.2645  0.5449
 4425TIP3    H134690   1.887   5.852  11.969 -0.4409  0.3661  0.4461
 4425TIP3    H234691   1.819   5.986  11.988 -0.1902  0.2561  2.2122
 4426TIP3   OH234692   4.565   5.509   2.208  0.5695  0.4798  0.1175
 4426TIP3    H134693   4.628   5.439   2.229  0.7073  1.1203  1.9428
 4426TIP3    H234694   4.610   5.590   2.233 -0.9101  0.9587  1.3373
 4427TIP3   OH234695   4.861   2.522   1.902 -0.0412  0.2341 -0.0686
 4427TIP3    H134696   4.945   2.478   1.909 -0.6899 -0.8902  1.0297
 4427TIP3    H234697   4.826   2.492   1.818  1.2243  1.8229 -1.2215
 4428TIP3   OH234698   0.624   2.964  14.508  0.1914 -0.0703  0.2804
 4428TIP3    H134699   0.718   2.969  14.489  0.1711  0.7815  0.3678
 4428TIP3    H234700   0.618   2.911  14.587  0.5382 -0.7234 -0.1169
 4429TIP3   OH234701   6.494   0.327  13.333  0.2722  0.0514  0.0787
 4429TIP3    H134702   6.432   0.257  13.349  0.4932  0.0839  1.1767
 4429TIP3    H234703   6.456   0.378  13.262 -0.7782 -0.1372  0.4985
 4430TIP3   OH234704   4.059   2.676   4.137  0.5226 -0.0168 -0.5414
 4430TIP3    H134705   4.080   2.609   4.072  1.8537  1.1339 -1.3565
 4430TIP3    H234706   3.970   2.703   4.115  1.0525  0.5683 -2.1139
 4431TIP3   OH234707   2.417   2.464  14.578  1.0893 -0.8056 -0.5765
 4431TIP3    H134708   2.492   2.415  14.611  0.1562 -0.8134  1.6632
 4431TIP3    H234709   2.342   2.408  14.597  0.2448  0.4355 -0.1769
 4432TIP3   OH234710   0.170   4.442   4.881 -0.0203 -0.2109 -0.1248
 4432TIP3    H134711   0.129   4.461   4.965  0.8834  0.1987  0.2351
 4432TIP3    H234712   0.103   4.465   4.816  0.0534  1.7127  0.4005
 4433TIP3   OH234713   1.968   0.490  17.078  0.4976 -0.2163  0.3103
 4433TIP3    H134714   1.944   0.421  17.140  2.1046  0.4040  1.7195
 4433TIP3    H234715   2.027   0.447  17.016  2.6573  0.0585  2.0119
 4434TIP3   OH234716   6.311   1.426   0.600 -0.3317 -0.4511  0.0790
 4434TIP3    H134717   6.393   1.411   0.554 -0.5017 -2.6422  0.3800
 4434TIP3    H234718   6.325   1.508   0.648  1.2946 -0.2669 -0.6513
 4435TIP3   OH234719   5.833   5.801  17.065 -0.2336 -0.2657  0.0813
 4435TIP3    H134720   5.764   5.810  16.999 -0.3093  1.0060  0.3138
 4435TIP3    H234721   5.906   5.762  17.018 -0.6556 -0.3930 -0.4845
 4436TIP3   OH234722   1.793   6.755   5.355  0.4961  0.0218  0.6494
 4436TIP3    H134723   1.722   6.788   5.411  0.6777  0.1161  0.8240
 4436TIP3    H234724   1.842   6.696   5.411 -0.3654 -1.2834  0.0777
 4437TIP3   OH234725   0.318   4.005   1.830  0.1517 -0.3075 -0.0713
 4437TIP3    H134726   0.371   3.963   1.898  1.7981  0.3056 -0.9314
 4437TIP3    H234727   0.307   3.937   1.763 -1.1645 -0.7948  0.5958
 4438TIP3   OH234728   1.569   6.170  12.065  0.2236  0.4951  0.0556
 4438TIP3    H134729   1.570   6.113  11.988  0.4828 -0.7278  0.9234
 4438TIP3    H234730   1.483   6.152  12.106  0.3429  0.6545  0.3790
 4439TIP3   OH234731   3.194   0.856   4.036  0.2085  0.1547 -0.6712
 4439TIP3    H134732   3.150   0.775   4.014  0.6607 -0.1481 -0.4776
 4439TIP3    H234733   3.214   0.848   4.130 -0.9181  1.0514 -0.3378
 4440TIP3   OH234734   0.458   1.366   6.409 -0.2209  0.4775  0.3304
 4440TIP3    H134735   0.527   1.324   6.357 -0.8195 -2.5563  1.7312
 4440TIP3    H234736   0.388   1.385   6.347  0.5213  0.3850 -0.5506
 4441TIP3   OH234737   2.421   3.436  14.427  0.7660  0.0365  0.3671
 4441TIP3    H134738   2.477   3.468  14.356  0.2301 -1.1538 -0.6168
 4441TIP3    H234739   2.334   3.429  14.388  0.4012 -0.3494  1.2248
 4442TIP3   OH234740   3.230   1.514   3.334 -0.4885  0.3627 -0.6877
 4442TIP3    H134741   3.206   1.516   3.242  0.4737 -0.4898 -0.9714
 4442TIP3    H234742   3.193   1.595   3.370 -1.2373  0.4991 -1.7140
 4443TIP3   OH234743   6.779   1.295   0.276 -0.7662 -0.8114  0.2972
 4443TIP3    H134744   6.860   1.345   0.286  0.0058 -1.8266 -0.5283
 4443TIP3    H234745   6.720   1.353   0.228  0.0776 -0.6601 -0.5806
 4444TIP3   OH234746   2.339   3.897   2.592  0.2518 -0.1611  0.0412
 4444TIP3    H134747   2.323   3.984   2.554 -0.9432  0.6639  2.2083
 4444TIP3    H234748   2.266   3.844   2.561 -0.1391  0.2079  0.3051
 4445TIP3   OH234749   6.458   3.894   6.209 -0.1261 -0.0326  0.7566
 4445TIP3    H134750   6.510   3.915   6.287 -0.3277 -0.7636  1.0968
 4445TIP3    H234751   6.478   3.802   6.191  0.7768  0.4162 -0.7226
 4446TIP3   OH234752   3.116   6.352  14.591  0.5117  0.3661  0.2033
 4446TIP3    H134753   3.143   6.443  14.586  0.5242  0.3686  0.3066
 4446TIP3    H234754   3.125   6.319  14.502 -0.0321  0.6203  0.0499
 4447TIP3   OH234755   1.127   6.364  13.460  0.0899  0.2574 -0.1776
 4447TIP3    H134756   1.067   6.304  13.505 -1.6592  0.9721 -1.4604
 4447TIP3    H234757   1.148   6.320  13.378 -1.3526  1.3913 -1.2125
 4448TIP3   OH234758   5.790   1.034  15.963  0.3081 -0.0148 -0.3219
 4448TIP3    H134759   5.741   1.026  16.045 -0.7110 -1.0920 -1.0027
 4448TIP3    H234760   5.740   1.099  15.912  0.1087 -0.4279 -0.6561
 4449TIP3   OH234761   0.010   1.229   3.616 -0.0867  0.4989  0.2611
 4449TIP3    H134762   0.013   1.317   3.579  1.9518  0.2103 -0.3774
 4449TIP3    H234763   0.063   1.235   3.695 -1.7552  0.3232  1.4620
 4450TIP3   OH234764   3.297   4.065   0.277  0.4490 -0.2562  0.1143
 4450TIP3    H134765   3.388   4.095   0.279  0.2439  0.4298 -0.6469
 4450TIP3    H234766   3.251   4.124   0.337  0.1828  0.5304 -0.8390
 4451TIP3   OH234767   6.137   4.924  15.595  0.0976 -0.2711 -0.3782
 4451TIP3    H134768   6.088   4.891  15.671  1.2598 -2.6583 -0.5920
 4451TIP3    H234769   6.074   4.979  15.549 -2.0562 -2.2867 -0.0168
 4452TIP3   OH234770   5.975   2.126  14.369  0.3725  0.5874  0.7589
 4452TIP3    H134771   5.939   2.102  14.455  1.4852 -1.5372  0.7070
 4452TIP3    H234772   6.029   2.202  14.387 -1.6161  1.9516  1.3774
 4453TIP3   OH234773   6.542   2.455  13.221 -0.4119 -0.8512 -0.1050
 4453TIP3    H134774   6.482   2.516  13.265  0.9286  0.2135  0.3114
 4453TIP3    H234775   6.627   2.498  13.225  0.3915 -2.3162 -0.7138
 4454TIP3   OH234776   3.879   3.498   3.913 -0.3548  0.0089 -0.0460
 4454TIP3    H134777   3.845   3.536   3.832 -0.6386 -0.6252 -0.2266
 4454TIP3    H234778   3.893   3.573   3.971  0.1332  0.4975 -0.7826
 4455TIP3   OH234779   5.507   6.655   2.530 -0.4798 -0.5218 -0.1485
 4455TIP3    H134780   5.533   6.564   2.513 -1.6335 -1.0714  0.9167
 4455TIP3    H234781   5.580   6.692   2.580  0.0426 -0.8119 -0.6839
 4456TIP3   OH234782   3.786   3.592  13.579  0.4381 -0.6610  0.0923
 4456TIP3    H134783   3.852   3.658  13.600  0.2303 -0.8577  1.4897
 4456TIP3    H234784   3.803   3.521  13.642 -0.0396 -1.4514 -0.6518
 4457TIP3   OH234785   5.375   5.395   0.920 -0.0619 -0.4651  0.4110
 4457TIP3    H134786   5.454   5.350   0.950  0.4508 -0.3205 -0.6669
 4457TIP3    H234787   5.366   5.470   0.979  0.8761 -0.2176  0.2530
 4458TIP3   OH234788   1.494   3.071  14.206 -0.5282  0.4858  0.1452
 4458TIP3    H134789   1.487   3.018  14.285  0.8137 -0.3318 -0.2483
 4458TIP3    H234790   1.456   3.016  14.137  1.7494 -0.4615 -0.4478
 4459TIP3   OH234791   2.149   6.692  11.725  0.3274  0.1281  0.1493
 4459TIP3    H134792   2.117   6.717  11.811 -1.5693  0.2869 -0.5654
 4459TIP3    H234793   2.169   6.598  11.733  0.1805  0.1436  0.7508
 4460TIP3   OH234794   3.255   4.903   1.706  0.7888  0.1378 -0.7695
 4460TIP3    H134795   3.233   4.968   1.773  1.3602 -0.9300  0.4829
 4460TIP3    H234796   3.178   4.846   1.701 -0.0065  1.2406 -2.3729
 4461TIP3   OH234797   4.320   6.523  15.482 -0.7284 -0.0321  0.3187
 4461TIP3    H134798   4.224   6.529  15.477 -0.8802 -0.9228  1.5762
 4461TIP3    H234799   4.342   6.565  15.565 -0.0992 -0.4659  0.3778
 4462TIP3   OH234800   0.748   2.796  12.426 -0.1113 -0.1895 -0.0264
 4462TIP3    H134801   0.716   2.763  12.342 -1.5922 -0.3653  0.5651
 4462TIP3    H234802   0.801   2.725  12.462 -0.6628 -0.6879 -0.1815
 4463TIP3   OH234803   4.707   4.845   2.660 -0.4146 -0.0986  0.1057
 4463TIP3    H134804   4.703   4.940   2.669  0.9515  0.0424 -0.4708
 4463TIP3    H234805   4.800   4.824   2.666 -0.6291 -1.3306 -0.4529
 4464TIP3   OH234806   4.587   3.273  15.266  0.1285  0.0635  0.0615
 4464TIP3    H134807   4.587   3.361  15.229  0.2344 -0.3212 -0.8850
 4464TIP3    H234808   4.632   3.283  15.350  0.7232  0.7952 -0.3263
 4465TIP3   OH234809   6.075   0.058  10.479  0.4424  0.4871 -0.6995
 4465TIP3    H134810   6.002   0.032  10.536  1.8948  1.2596  1.6591
 4465TIP3    H234811   6.110  -0.025  10.446 -0.1531 -0.0287 -0.0770
 4466TIP3   OH234812   3.753   5.002  10.567  0.1994 -0.0292 -0.0870
 4466TIP3    H134813   3.804   4.944  10.623 -0.8629 -2.1682 -1.1847
 4466TIP3    H234814   3.713   4.943  10.502 -1.4279  1.8818 -0.9312
 4467TIP3   OH234815   5.586   6.660  12.683  0.0221 -0.0615  0.3966
 4467TIP3    H134816   5.539   6.661  12.599  0.1249  1.1086  0.3317
 4467TIP3    H234817   5.517   6.664  12.749 -0.0181  1.0101  0.3124
 4468TIP3   OH234818   6.777   3.309  12.617 -0.1471  0.2998 -0.2343
 4468TIP3    H134819   6.754   3.361  12.540 -0.4740  1.2382  0.4726
 4468TIP3    H234820   6.740   3.222  12.601 -0.4071  0.5541 -1.0279
 4469TIP3   OH234821   5.183   0.575  16.648  0.5289 -0.2549  0.2084
 4469TIP3    H134822   5.090   0.574  16.671  0.1626  0.9303 -1.0270
 4469TIP3    H234823   5.226   0.522  16.714 -1.0846 -1.1273  0.5885
 4470TIP3   OH234824   5.109   1.600   3.301 -0.2088  0.4259 -0.4489
 4470TIP3    H134825   5.155   1.600   3.217 -0.0777  1.6154 -0.4015
 4470TIP3    H234826   5.082   1.509   3.314  0.7524  0.0073 -1.2327
 4471TIP3   OH234827   1.331   6.525   4.977  0.2812 -0.4777  0.5358
 4471TIP3    H134828   1.364   6.615   4.980  1.3754 -0.6458 -2.5951
 4471TIP3    H234829   1.374   6.481   5.050  1.9142  0.9235  0.4810
 4472TIP3   OH234830   4.145   5.692   2.947  0.7666  0.0708 -0.5254
 4472TIP3    H134831   4.215   5.755   2.933 -0.8731  1.9244 -0.8053
 4472TIP3    H234832   4.088   5.733   3.012  0.3615 -1.7682  0.3528
 4473TIP3   OH234833   0.491   0.936  15.578  0.0030 -0.0959 -0.0800
 4473TIP3    H134834   0.518   1.028  15.576  0.1944 -0.1555 -1.3412
 4473TIP3    H234835   0.437   0.925  15.499  0.3395 -1.1561 -0.1859
 4474TIP3   OH234836   4.876   4.990   4.168  0.0698 -0.3051  0.2600
 4474TIP3    H134837   4.924   5.022   4.092 -1.4957  0.3122 -0.4928
 4474TIP3    H234838   4.842   5.069   4.210 -2.4064 -0.8159 -0.6648
 4475TIP3   OH234839   1.990   1.338  13.310  0.2199 -0.4732 -0.6214
 4475TIP3    H134840   2.058   1.322  13.375  0.7585  0.1634 -1.0132
 4475TIP3    H234841   2.011   1.425  13.274 -1.2444  0.0904 -0.2018
 4476TIP3   OH234842   5.163   2.643  13.832 -0.1142 -0.0728 -0.1042
 4476TIP3    H134843   5.196   2.643  13.742  1.7219  0.4412  0.5208
 4476TIP3    H234844   5.180   2.554  13.864  0.5796  0.1618  0.1861
 4477TIP3   OH234845   1.505   2.809   1.430 -0.0005  0.0833  0.2685
 4477TIP3    H134846   1.499   2.743   1.499  0.7919  1.0121  1.2663
 4477TIP3    H234847   1.445   2.778   1.362  1.2053 -2.2661  0.1699
 4478TIP3   OH234848   3.063   5.282  14.980  0.2438 -0.3579  0.4878
 4478TIP3    H134849   2.979   5.240  14.997 -0.8360  1.7317  0.6967
 4478TIP3    H234850   3.116   5.265  15.058 -0.5581 -0.4154  1.0273
 4479TIP3   OH234851   4.220   5.372   5.601  0.3757 -0.1833  0.5843
 4479TIP3    H134852   4.197   5.346   5.511 -2.6575 -2.1187  1.7677
 4479TIP3    H234853   4.228   5.468   5.597 -0.0284 -0.1884 -1.6532
 4480TIP3   OH234854   5.233   6.374   4.241 -0.0960  1.1058  0.4265
 4480TIP3    H134855   5.254   6.289   4.201  0.3164  0.6432  1.5851
 4480TIP3    H234856   5.153   6.401   4.197  1.3620  1.5987 -2.1367
 4481TIP3   OH234857   0.317   0.056   1.502 -0.6471 -1.3106  0.6106
 4481TIP3    H134858   0.392   0.081   1.556  0.8012 -1.3105 -1.2989
 4481TIP3    H234859   0.318  -0.039   1.501 -0.4485 -1.3090  0.3289
 4482TIP3   OH234860   2.234   3.079  11.644 -0.5843  0.4025 -0.4882
 4482TIP3    H134861   2.295   3.133  11.595  0.2344 -0.1996 -0.1431
 4482TIP3    H234862   2.152   3.083  11.594  0.6104 -1.3917 -2.7433
 4483TIP3   OH234863   1.057   3.890  15.155 -0.3663  0.1793 -0.7381
 4483TIP3    H134864   1.092   3.805  15.181  0.1716 -0.0232 -2.0115
 4483TIP3    H234865   1.022   3.928  15.235 -2.5824 -2.1402 -0.4816
 4484TIP3   OH234866   0.973   6.456   6.657 -0.0374  0.0390  0.0557
 4484TIP3    H134867   0.908   6.493   6.717 -0.0333 -1.8338  1.3100
 4484TIP3    H234868   0.950   6.363   6.652  2.2604 -0.6065  0.2031
 4485TIP3   OH234869   2.087   1.370   3.677 -0.0280  0.2078 -0.7382
 4485TIP3    H134870   2.176   1.394   3.701 -0.8764  1.9220  0.9621
 4485TIP3    H234871   2.096   1.317   3.598  2.5311 -0.3813 -0.1120
 4486TIP3   OH234872   0.135   4.085  17.175 -0.0176  0.2650 -0.8220
 4486TIP3    H134873   0.122   4.035  17.256 -0.5592 -0.0202 -1.0770
 4486TIP3    H234874   0.227   4.109  17.176 -0.3857  1.8585  0.8072
 4487TIP3   OH234875   6.343   3.511  14.091  0.3751 -0.0443 -0.1661
 4487TIP3    H134876   6.311   3.517  14.181  1.1259 -0.8830  0.1729
 4487TIP3    H234877   6.395   3.590  14.078 -0.7907  0.7138 -0.3074
 4488TIP3   OH234878   4.868   6.051  16.401 -0.2378 -0.0866  0.1222
 4488TIP3    H134879   4.887   6.004  16.481 -1.7966  0.4103  0.8332
 4488TIP3    H234880   4.908   5.999  16.331 -2.0055 -2.5553  0.8402
 4489TIP3   OH234881   1.951   1.233  17.124  0.4195  0.0746  0.1942
 4489TIP3    H134882   1.886   1.264  17.188  2.9459  0.4258  2.7861
 4489TIP3    H234883   1.954   1.138  17.138 -1.1950 -0.3063 -1.6783
 4490TIP3   OH234884   4.145   1.373   1.235 -0.4853 -0.6129 -0.1905
 4490TIP3    H134885   4.118   1.299   1.288  1.3282 -1.9883 -1.0438
 4490TIP3    H234886   4.240   1.363   1.227 -0.0302  2.3616  0.4319
 4491TIP3   OH234887   4.441   2.631   1.584 -0.5505  0.2051 -0.3575
 4491TIP3    H134888   4.489   2.581   1.518  0.4138 -0.0500  0.4972
 4491TIP3    H234889   4.489   2.613   1.665 -0.6115  1.9554  0.0905
 4492TIP3   OH234890   3.356   1.640  11.092 -0.7036 -0.6612  0.1565
 4492TIP3    H134891   3.403   1.707  11.042 -1.4331  1.0942  1.6828
 4492TIP3    H234892   3.407   1.629  11.172 -0.8781 -1.5595  0.1591
 4493TIP3   OH234893   0.501   6.247   4.454  0.1455  0.2536 -0.3559
 4493TIP3    H134894   0.467   6.233   4.542 -1.3032 -0.4764 -1.0004
 4493TIP3    H234895   0.589   6.283   4.467 -0.1245  0.3426  1.3720
 4494TIP3   OH234896   1.063   3.683   3.965 -0.0681  0.6177  0.0131
 4494TIP3    H134897   1.085   3.752   3.902  1.0436  0.5048  0.2726
 4494TIP3    H234898   1.118   3.701   4.041 -1.8511  1.1394  1.2469
 4495TIP3   OH234899   2.758   4.426   4.476  0.3584 -0.1710  0.3616
 4495TIP3    H134900   2.813   4.404   4.551  2.2006 -2.9690 -1.5997
 4495TIP3    H234901   2.743   4.342   4.432 -2.1440  1.0963 -1.4470
 4496TIP3   OH234902   1.097   6.588  16.093 -0.0974 -0.4630 -0.4045
 4496TIP3    H134903   1.132   6.601  16.181  0.6874 -0.8576 -0.6557
 4496TIP3    H234904   1.119   6.497  16.072  0.8344  0.0066 -1.5059
 4497TIP3   OH234905   4.470   5.952  11.697  0.4766  0.0965  0.0075
 4497TIP3    H134906   4.546   6.010  11.699 -0.8286  1.9347 -0.6797
 4497TIP3    H234907   4.425   5.970  11.780  0.1462 -0.0461 -0.1419
 4498TIP3   OH234908   3.030   2.589   5.083 -0.1389 -0.1046  0.6268
 4498TIP3    H134909   3.053   2.658   5.145  0.8997  0.4910 -0.3848
 4498TIP3    H234910   3.101   2.525   5.090  2.4849  2.0514 -2.9686
 4499TIP3   OH234911   3.808   2.580  14.238  0.0479  0.1679  0.2402
 4499TIP3    H134912   3.887   2.555  14.286 -1.0196 -2.6696  0.6600
 4499TIP3    H234913   3.752   2.620  14.305  0.4147  0.6040  0.2997
 4500TIP3   OH234914   1.768   5.467   3.240  0.6741 -0.1245  0.0096
 4500TIP3    H134915   1.793   5.434   3.326 -1.6223 -2.2873 -0.0491
 4500TIP3    H234916   1.745   5.389   3.189 -3.7705  1.2365 -0.5836
 4501TIP3   OH234917   2.239   5.140   5.347 -0.3975 -0.1528  0.2420
 4501TIP3    H134918   2.328   5.130   5.381  0.7506  1.3943 -2.0496
 4501TIP3    H234919   2.224   5.059   5.297  0.1169 -0.0234 -0.1340
 4502TIP3   OH234920   3.260   0.744  12.952  0.7149 -0.3523  0.2976
 4502TIP3    H134921   3.227   0.830  12.979 -0.0734 -0.7440  0.6348
 4502TIP3    H234922   3.302   0.709  13.031  0.7172 -0.4247  0.2640
 4503TIP3   OH234923   5.009   1.453  15.342 -0.4224  0.3161  0.5934
 4503TIP3    H134924   5.049   1.366  15.342 -0.6864  0.1739 -0.6244
 4503TIP3    H234925   5.082   1.513  15.326 -0.3227  0.2806  0.9036
 4504TIP3   OH234926   3.481   5.052  11.122  0.1135 -0.0827  0.5544
 4504TIP3    H134927   3.397   5.095  11.106 -1.4915 -2.1059  2.7013
 4504TIP3    H234928   3.468   4.961  11.095  2.2118 -0.1264 -0.5631
 4505TIP3   OH234929   5.234   0.420   1.337 -0.0600 -0.3732 -0.1228
 4505TIP3    H134930   5.184   0.464   1.405 -2.5626 -0.2645 -1.8932
 4505TIP3    H234931   5.170   0.365   1.292  1.6179 -0.9370 -1.9900
 4506TIP3   OH234932   6.762   5.131  16.272  0.5257  0.2853  0.6298
 4506TIP3    H134933   6.666   5.129  16.275  0.3594 -0.5377 -2.4236
 4506TIP3    H234934   6.784   5.224  16.260 -0.1746  0.1859 -2.0790
 4507TIP3   OH234935   5.251   4.506  11.161 -0.2753  0.0080 -0.3645
 4507TIP3    H134936   5.324   4.488  11.102 -0.6975 -2.4049 -0.2135
 4507TIP3    H234937   5.287   4.495  11.249 -0.2612  1.2312 -0.1887
 4508TIP3   OH234938   1.698   2.964   1.566 -0.1946  0.4282  0.7055
 4508TIP3    H134939   1.667   3.017   1.640 -0.4417  0.5458  0.5188
 4508TIP3    H234940   1.619   2.921   1.533  0.1701 -0.8986  1.5224
 4509TIP3   OH234941   4.805   3.100   0.067 -0.0309 -0.5246 -0.5115
 4509TIP3    H134942   4.901   3.105   0.063 -0.0392 -0.8458 -1.2180
 4509TIP3    H234943   4.778   3.187   0.099  0.4816 -0.3623 -0.5069
 4510TIP3   OH234944   2.253   5.215  11.893 -0.2095  0.1182 -0.0688
 4510TIP3    H134945   2.227   5.125  11.912  3.9715 -1.3500 -0.3621
 4510TIP3    H234946   2.239   5.225  11.799 -0.0128 -0.4525 -0.1588
 4511TIP3   OH234947   5.312   0.193   5.017  0.8758  0.3445  0.4529
 4511TIP3    H134948   5.325   0.098   5.011  0.8194  0.4126 -1.2546
 4511TIP3    H234949   5.271   0.206   5.102 -0.0481 -1.2856  0.3036
 4512TIP3   OH234950   1.674   1.388   3.483 -0.3915  0.5705  0.1707
 4512TIP3    H134951   1.769   1.375   3.483 -0.3238  0.4201  3.1748
 4512TIP3    H234952   1.643   1.339   3.560 -2.7781  1.4302 -0.1596
 4513TIP3   OH234953   0.545   2.368   4.639 -0.6743 -0.2734  0.3363
 4513TIP3    H134954   0.641   2.367   4.631 -0.8098  0.2509 -2.4195
 4513TIP3    H234955   0.525   2.453   4.677 -0.0615 -0.2758  0.6830
 4514TIP3   OH234956   5.092   2.104  11.219  0.6424 -0.8406 -0.1289
 4514TIP3    H134957   5.061   2.173  11.278 -0.2358 -1.1729 -0.1940
 4514TIP3    H234958   5.126   2.152  11.143 -0.1547 -0.4810 -0.2657
 4515TIP3   OH234959   6.452   4.816   2.568 -0.3728  0.4744 -0.0269
 4515TIP3    H134960   6.371   4.856   2.600  0.6969  1.2004  1.9239
 4515TIP3    H234961   6.432   4.791   2.478 -2.3529  1.8315 -0.0320
 4516TIP3   OH234962   2.298   5.373   1.939 -0.4208  0.5375 -0.5018
 4516TIP3    H134963   2.222   5.398   1.886 -2.8989  0.8951  2.8365
 4516TIP3    H234964   2.339   5.456   1.962  1.1671  0.3402 -2.3667
 4517TIP3   OH234965   3.888   2.666  11.142  0.0059 -0.4944 -0.4149
 4517TIP3    H134966   3.889   2.705  11.229  0.6054 -0.8601 -0.2562
 4517TIP3    H234967   3.822   2.716  11.094 -0.0867 -0.0750  0.1479
 4518TIP3   OH234968   2.848   4.688   5.756 -0.7611  0.8431 -0.1466
 4518TIP3    H134969   2.907   4.689   5.832 -0.2978 -0.7701 -0.4422
 4518TIP3    H234970   2.760   4.682   5.794 -0.6969  2.1420  0.2734
 4519TIP3   OH234971   1.367   5.310  17.087  0.2033  0.4865 -0.0866
 4519TIP3    H134972   1.373   5.292  16.993  0.3364 -1.0330  0.1927
 4519TIP3    H234973   1.283   5.354  17.098 -0.0583  0.1906 -0.8424
 4520TIP3   OH234974   2.215   1.832  15.807  0.6691 -0.3996 -0.3135
 4520TIP3    H134975   2.252   1.865  15.889  0.0130  0.7800 -0.4620
 4520TIP3    H234976   2.134   1.882  15.796  0.0328 -1.5428 -0.9803
 4521TIP3   OH234977   6.766   2.039  12.783 -0.0194  0.1482  0.2743
 4521TIP3    H134978   6.731   1.962  12.738  0.3964  1.0201 -1.6314
 4521TIP3    H234979   6.806   2.005  12.863 -0.9149 -1.4429  0.0789
 4522TIP3   OH234980   2.710   2.246   1.291  0.0691  0.4853  0.5350
 4522TIP3    H134981   2.634   2.188   1.289  0.8113 -0.4985 -0.7057
 4522TIP3    H234982   2.782   2.190   1.319  0.7428  0.8562 -0.4118
 4523TIP3   OH234983   0.470   3.894   1.171 -0.0957  0.4156  0.2576
 4523TIP3    H134984   0.433   3.950   1.103 -0.2866 -0.2280 -0.1705
 4523TIP3    H234985   0.549   3.941   1.200 -0.4092  1.0431  0.1084
 4524TIP3   OH234986   4.983   3.332  10.945  0.4623  0.5471 -0.0421
 4524TIP3    H134987   5.059   3.348  10.890  0.3591  0.9717 -0.0672
 4524TIP3    H234988   5.015   3.279  11.018  0.6856  0.3431 -0.2890
 4525TIP3   OH234989   2.290   0.942   0.983  0.0174  0.1487 -0.0779
 4525TIP3    H134990   2.320   0.852   0.987  2.0088  0.7595  0.0819
 4525TIP3    H234991   2.355   0.987   0.929 -0.3478  1.6791  0.6699
 4526TIP3   OH234992   3.300   5.658   2.800 -0.0177  0.1290 -0.1451
 4526TIP3    H134993   3.294   5.631   2.708  0.6508  1.5375 -0.6276
 4526TIP3    H234994   3.231   5.609   2.844 -0.9735  0.1299 -1.5805
 4527TIP3   OH234995   5.863   6.189  10.738 -0.4221 -0.6430  0.1953
 4527TIP3    H134996   5.910   6.264  10.775  1.5914 -1.4370 -0.5935
 4527TIP3    H234997   5.777   6.223  10.715 -0.2137  0.9440  1.5487
 4528TIP3   OH234998   4.747   3.679   4.564  0.0987  0.2868  0.3850
 4528TIP3    H134999   4.814   3.647   4.504  0.5479  0.1953  0.9264
 4528TIP3    H235000   4.796   3.725   4.632 -0.3979  0.3189  0.7244
 4529TIP3   OH235001   2.915   4.458  11.061  0.4411  0.3954 -0.1570
 4529TIP3    H135002   2.886   4.439  11.150 -0.4630  0.2670 -0.4570
 4529TIP3    H235003   2.856   4.528  11.031 -2.9782 -3.0281 -2.4383
 4530TIP3   OH235004   1.470   2.454  11.363  0.3674  0.3132 -0.3033
 4530TIP3    H135005   1.382   2.487  11.382 -0.3434 -1.4741 -0.2962
 4530TIP3    H235006   1.495   2.498  11.281 -0.0223  1.7016  0.2893
 4531TIP3   OH235007   4.555   3.617   0.253  0.0259  0.3114  0.8005
 4531TIP3    H135008   4.493   3.647   0.320 -1.2255 -0.9811  0.2671
 4531TIP3    H235009   4.528   3.663   0.174  1.3275  1.6179  1.0709
 4532TIP3   OH235010   2.657   4.871  14.331 -0.5545  0.5262  0.4218
 4532TIP3    H135011   2.616   4.873  14.244 -0.6520  2.3078  0.4692
 4532TIP3    H235012   2.583   4.863  14.392 -0.5125 -0.3520  0.3677
 4533TIP3   OH235013   0.912   4.661   2.136  0.0750 -0.1887 -0.6625
 4533TIP3    H135014   0.968   4.685   2.210 -1.3378 -0.8856  0.6731
 4533TIP3    H235015   0.826   4.697   2.157 -0.6509 -1.4146 -1.3814
 4534TIP3   OH235016   4.110   6.691   5.813 -0.3929 -0.7381 -0.5922
 4534TIP3    H135017   4.181   6.754   5.823 -0.7982 -0.1538 -1.3343
 4534TIP3    H235018   4.144   6.611   5.854  1.0558 -0.7504 -1.7333
 4535TIP3   OH235019   4.871   1.904   3.698  0.5795 -0.5773  0.1843
 4535TIP3    H135020   4.823   1.987   3.698  1.9655  0.2738 -1.5665
 4535TIP3    H235021   4.954   1.923   3.654 -0.2371 -3.5303 -3.0571
 4536TIP3   OH235022   0.957   5.661   5.887 -0.0160  0.4357 -0.1691
 4536TIP3    H135023   0.907   5.633   5.964 -0.9223  1.0087 -0.5344
 4536TIP3    H235024   1.017   5.589   5.870 -0.4677 -0.1112  0.5097
 4537TIP3   OH235025   0.289   5.698   2.719  0.2246  0.0098  0.0661
 4537TIP3    H135026   0.348   5.622   2.720  2.2310  1.4669  0.5502
 4537TIP3    H235027   0.214   5.672   2.772  0.5908 -1.8085 -0.2524
 4538TIP3   OH235028   3.920   6.284  13.921  0.4074 -0.4705  0.0118
 4538TIP3    H135029   3.837   6.254  13.884  0.6776  0.8664 -1.8034
 4538TIP3    H235030   3.931   6.373  13.888  2.1639 -0.3016  0.9138
 4539TIP3   OH235031   4.469   2.743   5.125  0.3534 -0.8201 -0.1412
 4539TIP3    H135032   4.531   2.758   5.054 -2.0611 -1.3189 -2.5566
 4539TIP3    H235033   4.463   2.828   5.170  1.1045 -0.1374 -1.2680
 4540TIP3   OH235034   6.670   6.744  15.580 -0.3731  0.2290 -0.3089
 4540TIP3    H135035   6.741   6.697  15.537  0.3995  1.0805 -0.0004
 4540TIP3    H235036   6.661   6.826  15.530  0.0087  0.8736  0.6432
 4541TIP3   OH235037   0.127   5.459   4.545  0.3095 -0.2854 -0.0672
 4541TIP3    H135038   0.185   5.449   4.470 -0.0679 -0.9889 -0.2716
 4541TIP3    H235039   0.100   5.370   4.567 -0.3384 -0.0051  0.3014
 4542TIP3   OH235040   1.943   3.537   1.376  1.0733  0.1754 -0.1284
 4542TIP3    H135041   1.970   3.577   1.293  1.7277 -0.4538 -0.2287
 4542TIP3    H235042   1.884   3.466   1.351  2.1771 -0.7730 -0.1623
 4543TIP3   OH235043   6.222   2.597   2.858  0.3232 -0.0198  0.1044
 4543TIP3    H135044   6.152   2.612   2.921  1.1080 -0.0780  1.0060
 4543TIP3    H235045   6.223   2.676   2.804  0.2016  0.3873  0.6984
 4544TIP3   OH235046   2.267   3.697  14.005  0.2850 -0.0073  0.4838
 4544TIP3    H135047   2.243   3.619  13.954  1.7302  0.2628 -0.6597
 4544TIP3    H235048   2.194   3.709  14.065  0.0111 -2.2542  0.7043
 4545TIP3   OH235049   0.823   3.100   5.421  0.0759  0.2791  0.6433
 4545TIP3    H135050   0.764   3.141   5.358  0.6364  0.2057  0.0631
 4545TIP3    H235051   0.793   3.010   5.428 -1.0232  0.6875  1.7552
 4546TIP3   OH235052   0.995   3.417   1.164  0.6364 -0.5947 -0.4552
 4546TIP3    H135053   0.951   3.357   1.105  1.1950 -2.0142  0.5234
 4546TIP3    H235054   1.072   3.370   1.195  1.3211  0.7769  0.0488
 4547TIP3   OH235055   2.399   4.482   0.277  0.2601 -0.1115  0.2962
 4547TIP3    H135056   2.397   4.394   0.315 -0.4978 -0.6732 -0.9565
 4547TIP3    H235057   2.342   4.476   0.200  0.6165  1.3413 -0.1197
 4548TIP3   OH235058   3.319   0.681  12.572  0.1612 -0.0630 -0.4300
 4548TIP3    H135059   3.232   0.673  12.611 -0.0063  0.5685 -0.6639
 4548TIP3    H235060   3.369   0.730  12.637  0.4017 -0.5797 -0.2165
 4549TIP3   OH235061   0.226   4.341   2.134 -0.5480  0.0066  0.4725
 4549TIP3    H135062   0.238   4.247   2.149 -1.8540  0.1109  2.5444
 4549TIP3    H235063   0.166   4.346   2.060 -1.3051 -0.8349  1.0159
 4550TIP3   OH235064   0.405   0.650  10.292  0.1683 -0.1977 -0.3250
 4550TIP3    H135065   0.370   0.719  10.348 -2.0135 -1.9116  0.5505
 4550TIP3    H235066   0.373   0.671  10.204 -2.3330 -1.1633  0.2882
 4551TIP3   OH235067   2.155   4.477   3.555 -0.1499 -0.1429 -0.2786
 4551TIP3    H135068   2.209   4.536   3.609 -0.2253  0.3852 -0.7625
 4551TIP3    H235069   2.069   4.479   3.596 -0.6138  1.4095 -1.2035
 4552TIP3   OH235070   5.197   6.181  13.546 -0.2882 -0.5192 -0.2543
 4552TIP3    H135071   5.249   6.262  13.555 -1.6405  0.1962  2.0833
 4552TIP3    H235072   5.254   6.122  13.497  2.6970  0.2792  1.9168
 4553TIP3   OH235073   4.325   0.982  16.629 -0.5894  0.5685 -0.2188
 4553TIP3    H135074   4.263   1.033  16.681 -2.3195 -1.9569  0.3415
 4553TIP3    H235075   4.274   0.950  16.555 -0.1082 -1.8137  0.4039
 4554TIP3   OH235076   5.812   1.341   3.938 -0.2434  0.6529  0.2163
 4554TIP3    H135077   5.733   1.394   3.942 -1.3463 -0.8949 -0.2380
 4554TIP3    H235078   5.855   1.368   3.857 -2.2340 -1.0330 -1.4964
 4555TIP3   OH235079   5.092   3.210   5.610  0.0498 -0.6664  0.3281
 4555TIP3    H135080   5.075   3.119   5.583  0.6847 -1.0891  1.2932
 4555TIP3    H235081   5.127   3.202   5.699  1.6429  0.4005 -0.1616
 4556TIP3   OH235082   2.877   5.042   4.888  0.1347 -0.0852  0.2477
 4556TIP3    H135083   2.813   5.013   4.952  0.1168 -2.3095 -0.6845
 4556TIP3    H235084   2.957   5.056   4.938 -0.2953 -0.2171  0.9840
 4557TIP3   OH235085   3.451   4.092   0.816 -0.6947  0.0543  0.0110
 4557TIP3    H135086   3.513   4.149   0.862 -1.0992  1.6363 -1.3206
 4557TIP3    H235087   3.507   4.031   0.768 -0.0773  1.6512 -1.4121
 4558TIP3   OH235088   6.035   6.769   1.420  0.1084 -0.4446 -0.1520
 4558TIP3    H135089   5.985   6.851   1.414 -1.3684 -1.3603 -1.1587
 4558TIP3    H235090   6.122   6.792   1.386 -0.0453  0.8596  0.2587
 4559TIP3   OH235091   6.177   5.333  14.571 -0.1334  0.1915  0.1948
 4559TIP3    H135092   6.122   5.266  14.610  0.0650  1.5341  3.0141
 4559TIP3    H235093   6.262   5.324  14.614  0.0115  1.9359  0.3660
 4560TIP3   OH235094   5.664   6.747  14.742 -0.0192 -0.1784  0.0395
 4560TIP3    H135095   5.601   6.712  14.805 -2.8336  1.3424 -1.7282
 4560TIP3    H235096   5.671   6.680  14.675 -3.2311  1.2106 -1.9105
 4561TIP3   OH235097   4.716   4.835  16.801  0.1044  0.1249 -0.0247
 4561TIP3    H135098   4.743   4.757  16.849  0.3652  0.0846 -0.2304
 4561TIP3    H235099   4.666   4.801  16.726  0.1220  0.1617 -0.0530
 4562TIP3   OH235100   3.430   3.738  13.735 -0.2482  0.1077  0.3435
 4562TIP3    H135101   3.460   3.665  13.681  0.1007  0.6146 -0.1602
 4562TIP3    H235102   3.407   3.806  13.672  2.3609  1.5775  0.8289
 4563TIP3   OH235103   4.409   3.225   5.910  0.2899  0.4212 -0.2028
 4563TIP3    H135104   4.460   3.306   5.907 -1.6810  1.7182 -0.2940
 4563TIP3    H235105   4.361   3.229   5.992 -2.4039  1.0643 -1.6937
 4564TIP3   OH235106   0.296   4.104   2.273  0.7116  0.4020  0.1525
 4564TIP3    H135107   0.361   4.034   2.265 -1.0849 -1.4399  0.8935
 4564TIP3    H235108   0.267   4.099   2.364 -1.6219  0.0466 -0.5542
 4565TIP3   OH235109   5.642   0.321   0.679  0.0141  0.1216  0.6218
 4565TIP3    H135110   5.664   0.350   0.767  0.3943 -1.1167  0.9604
 4565TIP3    H235111   5.651   0.399   0.625  2.8815  0.2612  1.1484
 4566TIP3   OH235112   2.868   0.114   0.504  0.5017 -0.7321  0.2724
 4566TIP3    H135113   2.892   0.098   0.413  0.4372 -1.4889  0.3802
 4566TIP3    H235114   2.942   0.165   0.540  0.7580 -0.8600 -0.0681
 4567TIP3   OH235115   2.763   0.931   1.561 -0.2670 -0.5359 -0.1811
 4567TIP3    H135116   2.708   0.866   1.605  2.2311 -3.7646 -1.4942
 4567TIP3    H235117   2.715   0.952   1.480 -2.7114  2.0757  1.7241
 4568TIP3   OH235118   5.046   4.813   6.326 -0.2683 -0.0777 -0.1126
 4568TIP3    H135119   5.074   4.725   6.349 -0.2619  0.6111  2.8284
 4568TIP3    H235120   4.968   4.799   6.271  1.4627 -1.8770 -2.2861
 4569TIP3   OH235121   6.030   2.083  16.698 -0.0828  0.7472  0.2090
 4569TIP3    H135122   6.116   2.058  16.733 -0.2690 -0.5469 -0.2198
 4569TIP3    H235123   6.042   2.084  16.603 -0.6725  0.0627  0.1249
 4570TIP3   OH235124   1.084   0.525  13.269 -0.1716  0.7172  0.4902
 4570TIP3    H135125   1.179   0.513  13.275 -0.0935  0.8866 -0.3369
 4570TIP3    H235126   1.059   0.477  13.190 -0.8810  0.1088  1.0595
 4571TIP3   OH235127   5.883   5.720  14.065  0.0509  0.4316 -0.5860
 4571TIP3    H135128   5.960   5.677  14.103 -0.7003  0.2069  0.6974
 4571TIP3    H235129   5.809   5.666  14.092 -0.5899  0.7187 -1.7075
 4572TIP3   OH235130   6.787   0.877   6.276 -0.5976 -0.8942  0.4227
 4572TIP3    H135131   6.787   0.969   6.305  0.4377 -0.8654  0.3570
 4572TIP3    H235132   6.702   0.866   6.232 -1.5108 -0.4845  2.0002
 4573TIP3   OH235133   0.649   1.883  13.827 -0.1748  0.2036  0.2072
 4573TIP3    H135134   0.649   1.906  13.919  1.3258 -0.4285  0.3892
 4573TIP3    H235135   0.739   1.899  13.798 -0.2610 -0.9451 -0.7790
 4574TIP3   OH235136   2.040   3.317   2.233  0.1227  0.0700  0.2852
 4574TIP3    H135137   2.084   3.267   2.164  0.8522  0.0471  0.7605
 4574TIP3    H235138   1.984   3.253   2.276  0.4063 -0.1478  0.3369
 4575TIP3   OH235139   6.222   0.386  16.736 -0.0946 -0.0314  0.7112
 4575TIP3    H135140   6.281   0.326  16.690 -1.0584  0.7585 -1.7341
 4575TIP3    H235141   6.225   0.466  16.685 -1.1394  1.0035  2.1896
 4576TIP3   OH235142   1.650   5.629  13.163  0.1900  0.0687 -0.2027
 4576TIP3    H135143   1.639   5.534  13.151  0.3693  0.1064 -0.6984
 4576TIP3    H235144   1.740   5.646  13.135 -0.1425  0.5262 -1.0387
 4577TIP3   OH235145   4.359   6.232  14.202 -0.0590  0.4844 -0.4323
 4577TIP3    H135146   4.303   6.155  14.190 -1.2941  1.0333  1.4235
 4577TIP3    H235147   4.313   6.302  14.156 -0.8850  0.8989  0.9610
 4578TIP3   OH235148   3.499   4.676  17.080 -0.0168 -0.1305  0.4129
 4578TIP3    H135149   3.404   4.678  17.081 -0.0122  1.3351  1.2570
 4578TIP3    H235150   3.522   4.664  16.987 -1.0343  1.8492 -0.1546
 4579TIP3   OH235151   5.026   2.156   3.189 -0.2983 -0.0200 -0.0239
 4579TIP3    H135152   5.060   2.233   3.144  0.8472  0.0681  0.9472
 4579TIP3    H235153   4.972   2.111   3.124  0.7589  0.4662 -1.2515
 4580TIP3   OH235154   6.186   4.877   2.611  0.6186 -0.0403 -0.2102
 4580TIP3    H135155   6.114   4.885   2.549  0.7738 -0.1834 -0.4089
 4580TIP3    H235156   6.143   4.880   2.697  0.1837 -1.6790 -0.3284
 4581TIP3   OH235157   5.458   2.177   3.194 -0.2720  0.4064 -0.0783
 4581TIP3    H135158   5.451   2.239   3.121  0.6639  0.1007 -0.4501
 4581TIP3    H235159   5.528   2.211   3.248 -0.1571 -0.0068  0.0369
 4582TIP3   OH235160   6.686   0.883  15.481 -0.0292 -1.0211 -0.0118
 4582TIP3    H135161   6.724   0.966  15.510 -0.2438 -0.9322  0.0129
 4582TIP3    H235162   6.716   0.819  15.546 -0.4730 -0.8294  0.3856
 4583TIP3   OH235163   0.487   1.731   3.301 -0.4342  0.2033 -0.2002
 4583TIP3    H135164   0.475   1.808   3.356  0.5808  0.4913 -0.3736
 4583TIP3    H235165   0.556   1.755   3.240  0.5121 -1.1227  0.3013
 4584TIP3   OH235166   6.404   3.330  15.728 -0.3696 -0.0381  0.1669
 4584TIP3    H135167   6.389   3.262  15.663 -1.0632  1.2166 -1.0291
 4584TIP3    H235168   6.413   3.410  15.677  0.9336  0.7161  1.5070
 4585TIP3   OH235169   0.853   2.161  14.285  0.5380  0.2444  0.0195
 4585TIP3    H135170   0.910   2.102  14.334  0.6814  0.6500  0.3475
 4585TIP3    H235171   0.824   2.226  14.350 -2.1458 -1.2378  0.4681
 4586TIP3   OH235172   5.171   0.201  16.297 -0.2367 -0.0969 -0.4019
 4586TIP3    H135173   5.233   0.260  16.338 -0.8281  0.5669 -0.4372
 4586TIP3    H235174   5.129   0.156  16.370  1.3467 -1.6893 -0.4191
 4587TIP3   OH235175   3.388   3.327  13.045  0.0627 -0.5038  0.0153
 4587TIP3    H135176   3.476   3.359  13.065  0.3316 -1.5381  0.5675
 4587TIP3    H235177   3.385   3.325  12.949 -0.3625  2.1406 -0.0873
 4588TIP3   OH235178   1.443   5.417   1.501  0.1475  0.3418  0.2757
 4588TIP3    H135179   1.431   5.483   1.433  0.2141  1.1314  1.0152
 4588TIP3    H235180   1.537   5.402   1.504  0.0225 -1.1191 -1.0936
 4589TIP3   OH235181   2.616   3.848   2.489 -0.3805 -0.5310  0.3775
 4589TIP3    H135182   2.524   3.866   2.508 -0.6586 -1.1459 -0.3381
 4589TIP3    H235183   2.636   3.768   2.536 -0.8690 -1.6537 -1.2260
 4590TIP3   OH235184   3.956   0.956  14.366 -0.1430  0.4766  0.5995
 4590TIP3    H135185   4.025   0.956  14.433 -0.3110 -2.1017  0.8434
 4590TIP3    H235186   3.876   0.935  14.414 -0.4237 -0.4377 -0.2394
 4591TIP3   OH235187   1.937   2.592   3.932  0.0308  0.1136  0.1526
 4591TIP3    H135188   1.948   2.507   3.890  0.9806  0.3817 -0.1720
 4591TIP3    H235189   1.928   2.653   3.859  0.5496  0.4383  0.3565
 4592TIP3   OH235190   3.561   5.475  16.821  0.0309  0.1855  0.0317
 4592TIP3    H135191   3.517   5.473  16.736  0.8467  0.8403 -0.4184
 4592TIP3    H235192   3.630   5.541  16.811  0.8093 -0.4752  0.8693
 4593TIP3   OH235193   4.307   5.169  13.196  0.0229  0.2780 -0.0879
 4593TIP3    H135194   4.251   5.232  13.151  2.0486  0.2657 -2.9002
 4593TIP3    H235195   4.396   5.202  13.182  1.0156 -2.1062  0.1810
 4594TIP3   OH235196   5.560   4.807   5.556  0.5757 -0.5116  0.2334
 4594TIP3    H135197   5.511   4.836   5.633 -0.6757  1.0612 -1.0623
 4594TIP3    H235198   5.648   4.843   5.569  0.7147 -1.2192  1.4138
 4595TIP3   OH235199   3.289   0.521   5.959 -0.1311 -0.6435 -0.4630
 4595TIP3    H135200   3.376   0.501   5.924 -0.9042 -0.3458 -2.7736
 4595TIP3    H235201   3.305   0.555   6.046  2.0419 -0.9267 -0.6916
 4596TIP3   OH235202   3.693   3.795   2.304 -0.1957  0.3807  0.4334
 4596TIP3    H135203   3.616   3.745   2.332 -0.9816  0.9669 -0.6089
 4596TIP3    H235204   3.669   3.886   2.319 -0.6126  0.7141 -1.9532
 4597TIP3   OH235205   3.344   4.272  13.253 -0.4316 -0.6165  0.0827
 4597TIP3    H135206   3.324   4.190  13.298 -0.1408 -1.1330 -0.6931
 4597TIP3    H235207   3.292   4.268  13.172 -0.7839  0.1903  0.2576
 4598TIP3   OH235208   3.209   2.778   5.754  0.2428 -0.0469  0.4864
 4598TIP3    H135209   3.123   2.813   5.777  0.3007  0.5837 -0.2202
 4598TIP3    H235210   3.258   2.780   5.836 -0.4206 -0.4453  0.9060
 4599TIP3   OH235211   6.062   6.193   0.813 -0.1715 -0.4664 -0.4053
 4599TIP3    H135212   6.031   6.235   0.892 -3.1801 -1.8751 -0.6971
 4599TIP3    H235213   6.004   6.225   0.744  2.0164  0.2982 -2.0173
 4600TIP3   OH235214   4.410   2.361  14.927 -0.3055  0.6235 -0.4710
 4600TIP3    H135215   4.337   2.422  14.929  0.7536  2.1122 -2.7896
 4600TIP3    H235216   4.483   2.412  14.892  1.2990 -1.3575 -0.2101
 4601TIP3   OH235217   1.119   3.242  13.570  0.3453  0.0523  0.2630
 4601TIP3    H135218   1.149   3.332  13.571 -1.9993  0.9277 -0.2085
 4601TIP3    H235219   1.086   3.229  13.481 -1.3931 -0.4764  0.9394
 4602TIP3   OH235220   3.991   4.292  13.338  0.0819  0.5603 -0.0540
 4602TIP3    H135221   4.029   4.329  13.418  1.0942  1.2493 -0.8298
 4602TIP3    H235222   4.065   4.258  13.289 -0.7164 -1.5721  0.1277
 4603TIP3   OH235223   2.363   0.579  12.199 -0.0321  0.2374 -0.1624
 4603TIP3    H135224   2.317   0.581  12.283 -0.0761  0.5879 -0.1926
 4603TIP3    H235225   2.414   0.498  12.202 -0.3917  0.0122  0.0089
 4604TIP3   OH235226   6.665   3.353  13.625  0.4350 -0.9555  0.2556
 4604TIP3    H135227   6.678   3.442  13.658  0.7790 -0.0024 -2.2782
 4604TIP3    H235228   6.681   3.297  13.701  3.7235  0.9512  1.1639
 4605TIP3   OH235229   0.265   2.969   4.967  0.0079 -0.1687  0.1446
 4605TIP3    H135230   0.230   3.000   4.884  0.2973 -1.9412 -0.6919
 4605TIP3    H235231   0.234   2.878   4.973 -0.7012  0.1567  2.3719
 4606TIP3   OH235232   5.403   5.496  17.091  0.3342  0.1134  0.0048
 4606TIP3    H135233   5.382   5.432  17.159  0.8900 -0.2927 -0.1919
 4606TIP3    H235234   5.408   5.444  17.011 -2.0419  0.8363 -0.6887
 4607TIP3   OH235235   5.628   1.469  13.080 -0.0906  0.7179  0.4085
 4607TIP3    H135236   5.633   1.544  13.020  2.0187  1.1990  1.1223
 4607TIP3    H235237   5.641   1.507  13.167  0.3805 -0.4150  0.8492
 4608TIP3   OH235238   3.059   2.476   5.514 -0.4911  0.2359 -0.0554
 4608TIP3    H135239   3.131   2.476   5.578 -0.3705 -0.1683 -0.1912
 4608TIP3    H235240   3.045   2.384   5.494 -0.2614  0.3814 -0.9181
 4609TIP3   OH235241   4.841   1.708   4.427  0.5716 -0.0013 -0.2178
 4609TIP3    H135242   4.753   1.706   4.389  1.2641  3.4373 -2.4145
 4609TIP3    H235243   4.834   1.771   4.499  1.4633  1.2545 -1.2062
 4610TIP3   OH235244   2.872   6.609   2.492 -0.0664 -0.0057 -0.1231
 4610TIP3    H135245   2.959   6.623   2.530 -0.7670 -0.8924  1.9927
 4610TIP3    H235246   2.814   6.660   2.548 -0.8419  1.3785 -2.1107
 4611TIP3   OH235247   4.592   4.189   0.639 -0.2719 -0.7098  0.9259
 4611TIP3    H135248   4.520   4.138   0.602  1.2320 -3.0033  0.9574
 4611TIP3    H235249   4.568   4.201   0.731 -1.7177  0.7598  0.4201
 4612TIP3   OH235250   5.250   4.494   2.547 -0.5394 -0.0524  0.2281
 4612TIP3    H135251   5.186   4.554   2.507 -1.4789  1.6819  3.9465
 4612TIP3    H235252   5.198   4.418   2.574  0.2112 -1.5326 -2.1373
 4613TIP3   OH235253   4.050   0.399   3.553 -0.4463  0.0168 -0.2688
 4613TIP3    H135254   4.055   0.434   3.464 -0.4661 -0.7669 -0.5920
 4613TIP3    H235255   4.002   0.465   3.603 -2.0879 -0.3350 -1.2821
 4614TIP3   OH235256   1.621   1.149   5.353 -0.0632 -0.5275 -0.4008
 4614TIP3    H135257   1.612   1.054   5.363  0.3491 -0.8325 -2.4464
 4614TIP3    H235258   1.555   1.173   5.289 -1.3778  0.9212  1.3851
 4615TIP3   OH235259   6.764   3.153  15.425 -0.1176 -0.2160 -0.3851
 4615TIP3    H135260   6.711   3.233  15.429 -0.3267 -0.4165  1.1026
 4615TIP3    H235261   6.803   3.145  15.511  1.9226 -0.3805 -1.2713
 4616TIP3   OH235262   4.852   1.244  17.152 -0.2137  0.3847 -0.4279
 4616TIP3    H135263   4.805   1.322  17.122 -2.0590 -0.4286  0.1616
 4616TIP3    H235264   4.888   1.269  17.237  1.5689  1.4116 -1.4284
 4617TIP3   OH235265   3.780   5.505  14.485  0.5019  0.3173 -0.5174
 4617TIP3    H135266   3.694   5.544  14.477 -0.0027 -0.6794 -0.1501
 4617TIP3    H235267   3.839   5.579  14.502 -0.1985  1.0566 -1.2299
 4618TIP3   OH235268   4.709   0.192   4.315 -0.2010  1.2405  0.6114
 4618TIP3    H135269   4.677   0.118   4.367  1.9569 -0.2318 -0.0201
 4618TIP3    H235270   4.768   0.239   4.374  2.7858 -0.8131 -0.4560
 4619TIP3   OH235271   3.506   4.593  16.280 -0.4246 -0.0099  0.1309
 4619TIP3    H135272   3.441   4.593  16.209  0.9299  2.4371 -1.2847
 4619TIP3    H235273   3.531   4.685  16.288 -1.4904  0.0784  4.8355
 4620TIP3   OH235274   3.446   6.380  12.793 -0.8382  0.2571  0.2621
 4620TIP3    H135275   3.390   6.435  12.738 -0.8610  0.7685  0.7990
 4620TIP3    H235276   3.410   6.390  12.881 -1.6224 -1.5810  0.1986
 4621TIP3   OH235277   5.395   3.194   3.968 -0.2509  0.2164 -0.2586
 4621TIP3    H135278   5.489   3.186   3.982  0.0214  1.8720 -0.9414
 4621TIP3    H235279   5.356   3.131   4.029  1.2293  0.6215  1.1673
 4622TIP3   OH235280   5.908   5.073   0.910 -0.6928 -0.0074 -0.5522
 4622TIP3    H135281   5.918   4.982   0.936 -0.6637  0.4456  1.1181
 4622TIP3    H235282   5.816   5.082   0.885 -0.5041 -0.6656 -1.5621
 4623TIP3   OH235283   0.794   1.977   0.983 -0.8812  0.1346  0.3371
 4623TIP3    H135284   0.820   2.068   0.996 -1.5982  0.3169  0.5533
 4623TIP3    H235285   0.875   1.931   0.961 -0.6198  0.9596 -0.4878
 4624TIP3   OH235286   5.985   3.036   4.159 -0.6667 -0.0096 -0.1801
 4624TIP3    H135287   5.907   3.051   4.105 -0.1614 -1.5857 -1.4540
 4624TIP3    H235288   5.952   2.993   4.238 -1.2622  0.9769  0.1256
 4625TIP3   OH235289   5.067   3.277  12.846 -0.7826 -0.1480 -0.5902
 4625TIP3    H135290   4.989   3.285  12.790 -2.4556  2.1750  1.8531
 4625TIP3    H235291   5.116   3.358  12.831 -0.4126 -0.2373  0.1042
 4626TIP3   OH235292   6.109   1.511   4.004 -0.1742 -0.1825 -0.2381
 4626TIP3    H135293   6.128   1.500   4.097  1.8294  0.3541 -0.5339
 4626TIP3    H235294   6.014   1.506   3.998 -0.3007 -1.0878  1.7145
 4627TIP3   OH235295   5.405   4.407  14.503  0.3054  0.2900  0.7320
 4627TIP3    H135296   5.377   4.441  14.418  2.7383 -0.7358 -0.6100
 4627TIP3    H235297   5.340   4.340  14.524 -0.1727  0.3183 -0.5279
 4628TIP3   OH235298   6.057   3.947   3.952 -0.2733 -0.4231  0.2085
 4628TIP3    H135299   6.047   4.038   3.925 -0.3085 -0.5616 -0.2683
 4628TIP3    H235300   6.040   3.947   4.046 -2.3092 -0.2652 -0.1227
 4629TIP3   OH235301   5.818   6.131   0.025 -0.0709  0.1478  0.0316
 4629TIP3    H135302   5.726   6.105   0.017  0.1791 -1.5757  2.0006
 4629TIP3    H235303   5.867   6.049   0.027  1.6705  1.0354 -1.9419
 4630TIP3   OH235304   0.335   0.848   5.702  0.0399 -0.4558  0.1283
 4630TIP3    H135305   0.296   0.912   5.642  0.0932 -1.8784 -1.5040
 4630TIP3    H235306   0.275   0.774   5.700  2.2607 -2.3635 -1.7774
 4631TIP3   OH235307   4.011   0.811  15.932 -0.0373  0.5461  0.1792
 4631TIP3    H135308   3.943   0.843  15.992  0.3587  1.5663  0.0995
 4631TIP3    H235309   3.984   0.722  15.910 -1.3385  0.9279  0.1682
 4632TIP3   OH235310   1.867   3.213   5.302 -0.1083 -0.0187  0.3957
 4632TIP3    H135311   1.804   3.141   5.290  0.8863 -1.1573  1.6736
 4632TIP3    H235312   1.951   3.169   5.315  0.6207  1.4160  0.6768
 4633TIP3   OH235313   5.440   1.358  16.373  0.1720 -0.5298  0.0034
 4633TIP3    H135314   5.464   1.301  16.447 -0.7989  0.2096  0.9202
 4633TIP3    H235315   5.383   1.424  16.412  0.2347  0.3130 -1.2919
 4634TIP3   OH235316   1.982   3.847   2.311 -0.5739  0.6502 -0.0742
 4634TIP3    H135317   1.993   3.784   2.239  1.6896  2.1706 -1.1779
 4634TIP3    H235318   1.918   3.910   2.277 -0.9258  0.3426  0.0120
 4635TIP3   OH235319   4.606   3.637  13.304  0.5380 -1.2514 -0.1968
 4635TIP3    H135320   4.579   3.620  13.394  0.9871 -1.2235 -0.0535
 4635TIP3    H235321   4.659   3.717  13.309  1.1023 -1.6065 -0.3889
 4636TIP3   OH235322   0.552   5.751   1.735 -0.0660 -0.4500 -0.3928
 4636TIP3    H135323   0.465   5.767   1.771 -0.5361 -1.8967 -0.8174
 4636TIP3    H235324   0.606   5.730   1.812 -0.5755 -1.4887 -0.3012
 4637TIP3   OH235325   3.994   0.013  12.211  0.0140 -0.6487 -0.4741
 4637TIP3    H135326   4.044   0.015  12.293  1.1506  0.1862 -1.1493
 4637TIP3    H235327   4.051   0.056  12.148 -1.3150 -0.2607 -1.4505
 4638TIP3   OH235328   2.565   0.632  16.575 -0.3705  0.0829 -0.5857
 4638TIP3    H135329   2.652   0.636  16.536 -0.0489  2.0298  0.2287
 4638TIP3    H235330   2.506   0.633  16.500  0.2816 -1.1766 -1.1432
 4639TIP3   OH235331   3.693   5.987   4.983  0.4417  0.2728 -0.1931
 4639TIP3    H135332   3.682   6.069   5.031  1.8583  1.5275 -1.8673
 4639TIP3    H235333   3.611   5.939   4.996  0.2743  1.1017  2.3284
 4640TIP3   OH235334   4.529   4.562   4.964  0.5006  0.1301 -0.3327
 4640TIP3    H135335   4.467   4.572   5.037 -0.0408 -0.8405 -0.6478
 4640TIP3    H235336   4.614   4.558   5.007  0.2345  0.1365  0.2175
 4641TIP3   OH235337   1.220   3.256   2.517  0.2442  0.1425  0.2143
 4641TIP3    H135338   1.313   3.267   2.536  0.6176  1.7514 -2.1171
 4641TIP3    H235339   1.197   3.173   2.559  2.8173 -0.5129  0.5105
 4642TIP3   OH235340   2.802   0.842   2.357  0.1572 -0.0668 -0.4207
 4642TIP3    H135341   2.752   0.885   2.426  1.0736  3.3886 -1.6677
 4642TIP3    H235342   2.894   0.857   2.381  0.5060 -0.5303 -1.4019
 4643TIP3   OH235343   0.505   4.132   4.143 -0.3452  0.3931  0.0592
 4643TIP3    H135344   0.539   4.188   4.073 -0.8340  0.0615 -0.4427
 4643TIP3    H235345   0.411   4.146   4.142 -0.5147 -0.7069 -0.3103
 4644TIP3   OH235346   4.456   4.448  14.314  0.7812  0.1324 -1.0984
 4644TIP3    H135347   4.376   4.494  14.338 -0.2104 -3.0388  2.8119
 4644TIP3    H235348   4.516   4.466  14.386  1.7496 -1.4314 -1.4685
 4645TIP3   OH235349   6.724   0.455  11.811  0.3115 -0.4620 -0.2169
 4645TIP3    H135350   6.716   0.480  11.719  1.4696 -0.6356 -0.3913
 4645TIP3    H235351   6.734   0.359  11.810 -1.2820 -0.6541  0.2260
 4646TIP3   OH235352   3.896   0.914   4.006 -0.3364 -0.2998 -0.1170
 4646TIP3    H135353   3.929   0.849   3.945 -1.2388  0.2529 -1.2402
 4646TIP3    H235354   3.974   0.953   4.045  0.2233 -1.4461 -0.0642
 4647TIP3   OH235355   2.035   1.123   3.372 -0.3829 -0.1052  0.5915
 4647TIP3    H135356   2.069   1.035   3.390 -1.4061 -0.1210  2.7719
 4647TIP3    H235357   2.112   1.176   3.356  0.2522 -1.3720 -0.8663
 4648TIP3   OH235358   2.453   1.565   0.421  0.2292 -0.7532 -0.1376
 4648TIP3    H135359   2.502   1.483   0.428  1.1152 -0.1678  0.7247
 4648TIP3    H235360   2.439   1.593   0.511  0.2574  0.2361 -0.4332
 4649TIP3   OH235361   6.776   1.387  17.039 -0.1397  0.1206  0.2876
 4649TIP3    H135362   6.793   1.295  17.057  0.9099  0.6387  2.1813
 4649TIP3    H235363   6.711   1.413  17.104 -0.4092  0.7291 -0.2147
 4650TIP3   OH235364   2.068   0.859   1.608 -0.0699  0.2878 -0.3520
 4650TIP3    H135365   2.012   0.841   1.533  0.4393  1.4731 -1.0508
 4650TIP3    H235366   2.068   0.778   1.658 -1.5345 -0.0823 -0.8918
 4651TIP3   OH235367   5.541   1.128   6.217 -0.0243  1.0681 -0.5664
 4651TIP3    H135368   5.493   1.047   6.238 -0.5295  0.9458 -2.0407
 4651TIP3    H235369   5.472   1.193   6.202  0.3905  2.2869  2.2769
 4652TIP3   OH235370   4.017   2.606  15.148 -0.1283  0.2527  0.7185
 4652TIP3    H135371   4.001   2.516  15.176 -2.6536  0.3646 -0.0391
 4652TIP3    H235372   4.052   2.650  15.225  2.5051 -1.6259  0.7235
 4653TIP3   OH235373   2.704   0.807  11.216  0.1307  0.1231  0.7802
 4653TIP3    H135374   2.788   0.784  11.255 -0.2203 -1.5533  0.5979
 4653TIP3    H235375   2.646   0.733  11.236 -0.8943  0.5810 -0.3622
 4654TIP3   OH235376   3.131   5.818  15.038  0.1574 -0.4065  0.3930
 4654TIP3    H135377   3.096   5.903  15.011  1.4049  0.3569  1.0592
 4654TIP3    H235378   3.065   5.755  15.012 -1.0351  0.8258  0.3478
 4655TIP3   OH235379   3.118   4.722   6.508  0.6571  0.4352 -0.7014
 4655TIP3    H135380   3.206   4.698   6.540 -0.0597 -2.2672 -0.4700
 4655TIP3    H235381   3.082   4.777   6.577  0.5003 -2.3004  1.5797
 4656TIP3   OH235382   5.751   2.466   2.130  0.7677  0.3775 -0.3067
 4656TIP3    H135383   5.685   2.463   2.060 -0.3355  0.2698  0.6906
 4656TIP3    H235384   5.828   2.425   2.092 -0.3059 -1.1385 -0.9896
 4657TIP3   OH235385   2.513   4.543  14.453 -0.2247 -0.2434 -0.3278
 4657TIP3    H135386   2.556   4.462  14.425 -2.0507 -1.0747 -0.8068
 4657TIP3    H235387   2.468   4.574  14.374 -0.5898  0.5598  0.1924
 4658TIP3   OH235388   2.412   4.049   0.085  0.1202  0.6176  0.1694
 4658TIP3    H135389   2.351   4.021   0.017  1.2100 -0.0355 -0.5774
 4658TIP3    H235390   2.447   3.967   0.121  0.6469  0.9748  0.4870
 4659TIP3   OH235391   2.777   5.089   0.351 -0.0645  0.0551 -0.2618
 4659TIP3    H135392   2.807   5.173   0.384  1.9281 -0.4812 -0.6018
 4659TIP3    H235393   2.693   5.075   0.395  0.8181  0.9671  1.8490
 4660TIP3   OH235394   5.217   6.711   1.644  0.2442 -0.3191  0.3469
 4660TIP3    H135395   5.210   6.629   1.595 -1.8189 -0.1913  0.3725
 4660TIP3    H235396   5.251   6.774   1.580 -0.5063 -0.6201 -0.3653
 4661TIP3   OH235397   0.396   2.257   1.624 -0.6641 -0.1167 -0.1304
 4661TIP3    H135398   0.384   2.172   1.581  1.3854  0.3344 -1.7759
 4661TIP3    H235399   0.431   2.235   1.710  0.0906 -0.9716 -0.6359
 4662TIP3   OH235400   4.805   6.534  12.902 -0.7266  0.1661 -0.3855
 4662TIP3    H135401   4.750   6.473  12.950  1.6715  0.6329  3.3436
 4662TIP3    H235402   4.758   6.617  12.905 -2.1202 -0.5280 -1.8847
 4663TIP3   OH235403   2.928   0.568   3.076  0.3842 -0.4419  0.1288
 4663TIP3    H135404   2.955   0.631   3.143  0.0322  0.0873 -0.2162
 4663TIP3    H235405   2.836   0.590   3.058  1.3586  1.6900 -2.9889
 4664TIP3   OH235406   6.345   1.541  12.636 -0.5483 -0.2037 -0.0085
 4664TIP3    H135407   6.306   1.536  12.723 -2.5500 -1.0987 -0.8972
 4664TIP3    H235408   6.433   1.504  12.646 -1.3613 -1.8849  1.2989
 4665TIP3   OH235409   3.166   6.650  14.622 -0.1841 -0.1716  0.3062
 4665TIP3    H135410   3.189   6.662  14.714 -0.7398  0.8024  0.3212
 4665TIP3    H235411   3.082   6.693  14.611  0.5543  1.0325 -0.9850
 4666TIP3   OH235412   5.617   5.394  13.188 -0.0149  0.0356 -0.0601
 4666TIP3    H135413   5.594   5.474  13.236  1.8453 -0.2902  1.4977
 4666TIP3    H235414   5.703   5.371  13.220  0.2539 -1.6430 -1.8052
 4667TIP3   OH235415   4.864   4.655   6.154 -0.0477 -0.0638 -0.1604
 4667TIP3    H135416   4.885   4.570   6.191 -1.2685 -0.1686  0.3404
 4667TIP3    H235417   4.768   4.657   6.151 -0.0212  0.7916 -1.3405
 4668TIP3   OH235418   3.375   4.464   4.414  0.0914  0.5465 -0.4824
 4668TIP3    H135419   3.402   4.443   4.503  0.0474 -0.4524 -0.6907
 4668TIP3    H235420   3.285   4.496   4.423  0.0682  0.3922 -0.1700
 4669TIP3   OH235421   5.588   2.001   2.688  0.2910  0.1223 -0.1699
 4669TIP3    H135422   5.602   1.982   2.781  1.7826  1.6355 -0.0332
 4669TIP3    H235423   5.498   1.973   2.671 -1.0894  2.4578  2.4867
 4670TIP3   OH235424   6.745   6.173   4.317 -0.0743  0.0839  0.5659
 4670TIP3    H135425   6.766   6.082   4.296 -0.8909 -0.0703  0.3966
 4670TIP3    H235426   6.769   6.222   4.238 -1.8643 -0.3130 -0.2656
 4671TIP3   OH235427   2.405   2.455  16.558 -0.1963 -1.0035 -0.2186
 4671TIP3    H135428   2.338   2.425  16.619 -1.5761 -0.4295 -1.3875
 4671TIP3    H235429   2.414   2.385  16.494 -0.5170 -0.6118 -0.7023
 4672TIP3   OH235430   0.065   5.367   0.933  0.3020  0.5174  0.1639
 4672TIP3    H135431   0.013   5.354   1.013 -1.4770 -0.5869 -1.0876
 4672TIP3    H235432   0.026   5.444   0.893 -1.3342 -1.0310 -1.4094
 4673TIP3   OH235433   5.939   2.046   0.511 -0.4004 -0.5064 -0.4038
 4673TIP3    H135434   5.887   2.125   0.519 -0.6927 -0.8426  1.2889
 4673TIP3    H235435   5.914   2.010   0.425 -0.3294  1.1398 -1.1577
 4674TIP3   OH235436   1.519   2.224  11.533 -0.1352  0.2190  0.7627
 4674TIP3    H135437   1.509   2.307  11.486  0.3180  0.7105  1.5141
 4674TIP3    H235438   1.612   2.221  11.557 -0.2822 -0.1934  1.3016
 4675TIP3   OH235439   3.755   3.972  11.683  0.1648 -0.1632 -0.2970
 4675TIP3    H135440   3.845   3.983  11.716  0.5833  0.1226 -1.4805
 4675TIP3    H235441   3.760   3.997  11.591 -1.6884  2.4851  0.2060
 4676TIP3   OH235442   5.017   3.751  12.501 -0.4985  0.3548 -0.0201
 4676TIP3    H135443   4.975   3.788  12.579  0.2344 -1.2210  1.1911
 4676TIP3    H235444   5.035   3.826  12.445 -0.7635  1.5811  1.4763
 4677TIP3   OH235445   2.160   0.987  12.474  0.3057  0.1720  0.0380
 4677TIP3    H135446   2.252   0.986  12.501 -0.2207  0.4432  2.0077
 4677TIP3    H235447   2.144   1.077  12.445  0.8701 -0.1096 -1.2102
 4678TIP3   OH235448   5.697   3.783   5.205  0.3821  0.4838  0.0491
 4678TIP3    H135449   5.621   3.778   5.263  1.3784  2.3133  1.6565
 4678TIP3    H235450   5.767   3.816   5.262  1.5069  2.1088 -2.1643
 4679TIP3   OH235451   4.623   1.091   1.058  0.6805 -0.1681  0.1482
 4679TIP3    H135452   4.551   1.033   1.085 -0.1634  0.5983 -0.3659
 4679TIP3    H235453   4.669   1.042   0.991 -0.5129  0.0203 -0.8617
 4680TIP3   OH235454   4.527   0.175   5.032  0.5823 -0.3124  0.4402
 4680TIP3    H135455   4.582   0.251   5.013 -0.9503  0.3503 -1.8458
 4680TIP3    H235456   4.574   0.101   4.994  1.2508 -0.2414  1.1125
 4681TIP3   OH235457   3.905   0.375   2.533 -0.0088  0.3219 -0.2059
 4681TIP3    H135458   3.956   0.452   2.509  0.9580  0.8343  3.0468
 4681TIP3    H235459   3.814   0.406   2.534  0.1944  0.9478 -0.5892
 4682TIP3   OH235460   2.865   5.044   3.030  0.0816 -0.6851 -0.2618
 4682TIP3    H135461   2.802   5.067   3.098 -0.5727 -0.0977 -1.0485
 4682TIP3    H235462   2.829   5.081   2.950  2.4568  1.5315 -0.4270
 4683TIP3   OH235463   1.501   2.889  12.263  0.1754 -0.1180  0.1334
 4683TIP3    H135464   1.548   2.967  12.232  0.3423  0.7744  2.4382
 4683TIP3    H235465   1.562   2.846  12.323 -0.9036 -0.4876  1.0107
 4684TIP3   OH235466   4.706   6.023  15.430  0.2073  1.0254 -0.0263
 4684TIP3    H135467   4.666   5.957  15.487  1.9666  1.8701  2.3612
 4684TIP3    H235468   4.635   6.054  15.375 -1.6117  0.0348  1.6438
 4685TIP3   OH235469   1.738   3.651  14.485  0.4565 -0.7114  1.0359
 4685TIP3    H135470   1.689   3.577  14.451  1.1115 -0.4787 -0.5191
 4685TIP3    H235471   1.743   3.712  14.411  0.9093  0.3703  1.9340
 4686TIP3   OH235472   0.683   0.669  11.883 -0.1778  0.1673 -0.0500
 4686TIP3    H135473   0.737   0.590  11.897 -1.8092 -1.7042 -3.1264
 4686TIP3    H235474   0.600   0.649  11.925 -0.8827 -0.2060 -1.5426
 4687TIP3   OH235475   4.399   3.539   1.435 -0.0620  0.3263  0.1801
 4687TIP3    H135476   4.480   3.501   1.469 -0.4588  1.1541  2.2067
 4687TIP3    H235477   4.407   3.532   1.340  2.3946  0.4154  0.3172
 4688TIP3   OH235478   6.588   1.506   5.765 -0.3643 -0.1190  0.7578
 4688TIP3    H135479   6.653   1.530   5.832  0.1174 -1.0405  0.6310
 4688TIP3    H235480   6.605   1.567   5.693 -0.5133  0.5089  1.2448
 4689TIP3   OH235481   1.060   2.555   0.464 -0.6392  0.1073 -0.4781
 4689TIP3    H135482   1.155   2.540   0.465 -0.7629 -0.6977  0.1407
 4689TIP3    H235483   1.023   2.468   0.450 -1.3111  0.2930  0.1219
 4690TIP3   OH235484   5.570   1.052  10.969  0.3671  0.1087  0.7636
 4690TIP3    H135485   5.657   1.061  11.008  1.0024  0.8016 -0.7218
 4690TIP3    H235486   5.583   0.992  10.896 -0.9844 -1.9254  2.0842
 4691TIP3   OH235487   5.627   3.644   4.731  0.0346  0.0879  0.7199
 4691TIP3    H135488   5.654   3.704   4.801  0.8980 -1.0891  1.4536
 4691TIP3    H235489   5.538   3.669   4.710 -0.8034 -0.4242  3.3236
 4692TIP3   OH235490   4.051   2.734   6.494  0.6582 -0.1709 -0.6450
 4692TIP3    H135491   4.044   2.778   6.579 -0.1325 -1.4142 -0.0327
 4692TIP3    H235492   4.119   2.667   6.507 -0.2226 -1.0963 -0.6165
 4693TIP3   OH235493   5.702   6.701   2.712 -0.0156 -0.0625 -0.0694
 4693TIP3    H135494   5.775   6.742   2.758  0.1439  0.8260 -1.0790
 4693TIP3    H235495   5.626   6.718   2.768 -0.1431  2.5388 -0.8801
 4694TIP3   OH235496   6.120   0.219  12.168  0.1175  0.1352 -0.2284
 4694TIP3    H135497   6.163   0.223  12.253 -0.3137  0.5857 -0.0224
 4694TIP3    H235498   6.059   0.293  12.169 -0.3018 -0.1964 -0.7021
 4695TIP3   OH235499   3.711   5.226  16.844  0.5319 -0.1358  0.9189
 4695TIP3    H135500   3.659   5.288  16.895  0.9613  1.0075 -0.0017
 4695TIP3    H235501   3.662   5.143  16.850 -1.7519  1.0177 -0.4214
 4696TIP3   OH235502   0.812   1.533  11.858  0.0479 -0.3529  0.5967
 4696TIP3    H135503   0.873   1.605  11.843  1.1325 -1.2641  0.5370
 4696TIP3    H235504   0.858   1.474  11.919 -0.0053 -1.9492 -0.8220
 4697TIP3   OH235505   1.801   5.368   4.741  0.3722  0.7722  0.5801
 4697TIP3    H135506   1.806   5.358   4.646 -2.7357 -0.4133  0.4300
 4697TIP3    H235507   1.732   5.433   4.755 -2.3263 -2.0903  1.9109
 4698TIP3   OH235508   5.678   0.865   0.899  0.5469 -0.1129 -0.2341
 4698TIP3    H135509   5.674   0.950   0.855 -0.2953 -0.7055 -1.3258
 4698TIP3    H235510   5.741   0.879   0.970 -0.3369  1.7094  0.2604
 4699TIP3   OH235511   3.442   4.416  13.841  0.5102  0.8718  0.5420
 4699TIP3    H135512   3.424   4.503  13.877  0.7502  1.5651 -0.9386
 4699TIP3    H235513   3.391   4.412  13.761 -1.0796 -1.1479  1.5384
 4700TIP3   OH235514   2.933   3.420   5.395 -0.2749 -0.2779 -0.2793
 4700TIP3    H135515   2.939   3.354   5.326 -1.1942  0.6090 -1.2554
 4700TIP3    H235516   2.846   3.459   5.383 -0.1456  0.4120  0.9048
 4701TIP3   OH235517   3.471   5.855  13.273 -0.1792 -0.5756 -0.4347
 4701TIP3    H135518   3.555   5.841  13.230 -0.1628 -0.7091 -0.3609
 4701TIP3    H235519   3.410   5.874  13.202 -0.0413 -0.2576 -0.4710
 4702TIP3   OH235520   2.781   6.487  15.201 -0.3389  0.1555  0.5718
 4702TIP3    H135521   2.788   6.512  15.109 -0.8596 -0.4568  0.3573
 4702TIP3    H235522   2.688   6.495  15.222 -0.1675  0.7035  1.1737
 4703TIP3   OH235523   2.376   1.002  11.966 -0.3821  0.4527  0.3527
 4703TIP3    H135524   2.303   0.995  12.028 -0.1772 -1.4741  0.4486
 4703TIP3    H235525   2.452   1.023  12.019 -0.3806 -0.2523  0.6327
 4704TIP3   OH235526   5.865   0.232  11.161 -0.0089 -0.7818 -0.0502
 4704TIP3    H135527   5.819   0.306  11.121  0.7545  0.8715  1.9621
 4704TIP3    H235528   5.855   0.246  11.255 -0.9809 -4.0192  0.4371
 4705TIP3   OH235529   1.953   3.614  12.395  0.1184  0.1317  0.2468
 4705TIP3    H135530   1.952   3.574  12.308  1.0220  0.0145  0.2832
 4705TIP3    H235531   1.876   3.671  12.395 -0.6905 -0.9226 -0.1196
 4706TIP3   OH235532   4.712   1.149   5.493  0.0677 -0.7611 -0.0625
 4706TIP3    H135533   4.762   1.104   5.425  2.0264 -1.6127  1.8142
 4706TIP3    H235534   4.622   1.119   5.480  0.4355 -1.1421 -2.0326
 4707TIP3   OH235535   6.614   2.308  15.345 -0.3924 -0.0251  0.3072
 4707TIP3    H135536   6.670   2.303  15.268  0.9196 -1.6328  1.3077
 4707TIP3    H235537   6.672   2.339  15.415 -1.7548  2.2704  0.5515
 4708TIP3   OH235538   4.713   3.080  15.986  0.2627 -0.3232 -0.0959
 4708TIP3    H135539   4.640   3.020  15.969 -0.3741  0.6047 -0.7488
 4708TIP3    H235540   4.791   3.029  15.965 -0.3273 -0.5100 -2.0592
 4709TIP3   OH235541   1.625   5.919  17.138 -0.1840  0.3678 -0.0855
 4709TIP3    H135542   1.561   5.848  17.141 -0.4363  0.4675 -2.0485
 4709TIP3    H235543   1.573   5.998  17.127  0.2152  0.5330 -0.8604
 4710TIP3   OH235544   0.829   3.554  15.332 -0.4619 -0.2956  0.5199
 4710TIP3    H135545   0.919   3.521  15.334 -0.6993 -1.2511 -1.7965
 4710TIP3    H235546   0.829   3.627  15.394  2.3683  0.8470 -0.6438
 4711TIP3   OH235547   5.356   0.111  15.714  0.6085 -0.2722  0.3481
 4711TIP3    H135548   5.353   0.108  15.810 -1.2326 -2.0058  0.3198
 4711TIP3    H235549   5.332   0.201  15.691  1.4446  0.2635  1.4933
 4712TIP3   OH235550   3.799   2.845   3.096 -0.1616  0.0811  0.4245
 4712TIP3    H135551   3.818   2.765   3.047  0.6536  1.1262 -1.0166
 4712TIP3    H235552   3.818   2.916   3.036 -1.3288  1.3883  1.5183
 4713TIP3   OH235553   5.852   5.820  12.331  0.2665 -0.1177  0.1439
 4713TIP3    H135554   5.910   5.757  12.374  0.8030 -1.4946 -2.4029
 4713TIP3    H235555   5.772   5.819  12.383  1.6588  0.1465  2.4428
 4714TIP3   OH235556   3.326   0.196  13.029  0.5372  0.1161 -1.0096
 4714TIP3    H135557   3.298   0.142  13.102 -0.8840 -0.0897 -1.6702
 4714TIP3    H235558   3.267   0.173  12.957 -1.0438  3.3942 -0.9855
 4715TIP3   OH235559   2.262   2.973   4.445  0.2263  0.6914 -0.0466
 4715TIP3    H135560   2.236   2.882   4.437 -1.8975  1.4138 -3.0951
 4715TIP3    H235561   2.357   2.971   4.445  0.2232 -1.5214 -0.0017
 4716TIP3   OH235562   6.666   6.396   1.673 -0.4880  0.4945 -0.7165
 4716TIP3    H135563   6.700   6.363   1.589  2.6221  2.2691 -0.3257
 4716TIP3    H235564   6.704   6.483   1.681 -1.9652  0.9964  1.8564
 4717TIP3   OH235565   5.125   4.357  13.359  0.4926  0.1135 -0.2007
 4717TIP3    H135566   5.100   4.266  13.380  0.3859  0.1634 -0.1075
 4717TIP3    H235567   5.206   4.349  13.309 -0.4202 -0.1344 -1.7046
 4718TIP3   OH235568   2.875   1.742  11.329 -0.6250  0.0453  0.0786
 4718TIP3    H135569   2.835   1.748  11.242  0.5259 -1.1957 -0.5798
 4718TIP3    H235570   2.920   1.825  11.341 -2.0238  0.8277  0.1579
 4719TIP3   OH235571   2.340   4.583  11.083  0.1995 -0.1244 -0.3734
 4719TIP3    H135572   2.319   4.608  10.993  0.7245  0.6317 -0.2937
 4719TIP3    H235573   2.435   4.593  11.088  0.3460 -1.4852 -0.1278
 4720TIP3   OH235574   4.316   0.216   6.034 -0.1921  0.4472  0.3800
 4720TIP3    H135575   4.303   0.211   6.129  2.6338 -0.9842  0.7945
 4720TIP3    H235576   4.372   0.293   6.022  0.2086  0.0889 -0.0386
 4721TIP3   OH235577   1.269   5.576  13.280 -0.7363  0.1256  0.1251
 4721TIP3    H135578   1.185   5.566  13.237  0.0196  1.1226 -1.6949
 4721TIP3    H235579   1.334   5.555  13.212  0.4967  0.6705  1.0800
 4722TIP3   OH235580   3.075   3.552   6.558  0.2454  0.7372  0.3237
 4722TIP3    H135581   3.015   3.577   6.628  1.7131  1.5641  1.3449
 4722TIP3    H235582   3.029   3.576   6.478 -2.2810 -1.9388  0.8110
 4723TIP3   OH235583   5.117   1.767  12.980 -0.6676  0.2855 -0.3736
 4723TIP3    H135584   5.083   1.773  13.070  0.1272  0.5531 -0.0832
 4723TIP3    H235585   5.045   1.727  12.931 -1.6874  1.4875  0.0688
 4724TIP3   OH235586   4.235   6.121  11.838 -0.1601  0.2110 -0.4014
 4724TIP3    H135587   4.259   6.207  11.804  0.7689  0.6768  1.2927
 4724TIP3    H235588   4.158   6.096  11.788  0.2217  1.5136 -1.7207
 4725TIP3   OH235589   6.513   4.984   4.079 -0.1755 -0.1702 -0.0489
 4725TIP3    H135590   6.502   4.991   3.984 -1.0382 -2.0464 -0.1234
 4725TIP3    H235591   6.607   4.992   4.093  0.0681 -0.8407 -1.1633
 4726TIP3   OH235592   0.340   2.978   5.618  0.2054 -0.0831  0.2071
 4726TIP3    H135593   0.428   2.941   5.628 -0.4889 -1.6509  0.7059
 4726TIP3    H235594   0.287   2.931   5.682 -1.0487  0.7262 -0.2073
 4727TIP3   OH235595   3.610   5.735   4.738 -0.0612  0.2861 -0.8876
 4727TIP3    H135596   3.553   5.801   4.698 -2.7753 -1.2363  0.1864
 4727TIP3    H235597   3.592   5.741   4.832 -0.5589 -2.0526 -0.7779
 4728TIP3   OH235598   4.128   2.161   5.691 -0.6124 -0.4093  0.3320
 4728TIP3    H135599   4.057   2.162   5.755 -0.4267 -1.2039  0.5662
 4728TIP3    H235600   4.192   2.099   5.728 -0.5583 -0.9633 -0.6737
 4729TIP3   OH235601   5.181   3.168   2.813 -0.2551 -0.3868  0.1255
 4729TIP3    H135602   5.239   3.144   2.740 -1.0923  2.5134 -1.6736
 4729TIP3    H235603   5.093   3.155   2.777 -0.7368 -1.3789  1.5937
 4730TIP3   OH235604   0.576   3.067  13.558 -0.0025 -0.1357 -0.1349
 4730TIP3    H135605   0.524   3.075  13.638 -0.3811  0.5673 -0.4457
 4730TIP3    H235606   0.660   3.032  13.588 -0.5975 -1.1574  0.3845
 4731TIP3   OH235607   5.507   4.238  14.096  0.3195  0.4347 -0.5520
 4731TIP3    H135608   5.455   4.173  14.049 -0.5074 -0.2314  1.1992
 4731TIP3    H235609   5.468   4.322  14.072 -0.0640  0.1182 -1.0510
 4732TIP3   OH235610   3.652   3.129   4.801  0.2718  0.0545 -0.1506
 4732TIP3    H135611   3.620   3.165   4.719  1.3166  1.2955 -0.0510
 4732TIP3    H235612   3.685   3.204   4.849  1.5229 -0.8954  0.5451
 4733TIP3   OH235613   3.563   0.564  11.560  0.3470  0.1601 -0.5142
 4733TIP3    H135614   3.484   0.538  11.607  0.1629  0.7528 -0.4933
 4733TIP3    H235615   3.628   0.579  11.628 -0.1926  1.9758 -0.3510
 4734TIP3   OH235616   1.217   0.463  14.855 -0.4287 -0.0888  0.3506
 4734TIP3    H135617   1.276   0.504  14.918 -0.8598  0.5769  0.3264
 4734TIP3    H235618   1.262   0.472  14.771  0.2879 -1.2473  0.5834
 4735TIP3   OH235619   3.211   2.014  11.639  0.0369  0.0840 -0.1326
 4735TIP3    H135620   3.301   1.987  11.658  0.5031  0.4350 -1.6788
 4735TIP3    H235621   3.179   1.949  11.576 -0.7852  0.0014  0.3505
 4736TIP3   OH235622   4.099   1.768   1.371  0.3432 -0.2899 -0.0188
 4736TIP3    H135623   4.180   1.737   1.330  0.6239 -1.0758  1.0748
 4736TIP3    H235624   4.097   1.724   1.456  0.5281  2.3998  1.4768
 4737TIP3   OH235625   5.694   1.964   5.105 -0.2771  0.0849  0.2203
 4737TIP3    H135626   5.757   1.947   5.175  0.1091  0.5025 -0.0218
 4737TIP3    H235627   5.744   2.012   5.039 -0.1749 -1.6645 -1.0737
 4738TIP3   OH235628   2.141   4.657  14.453 -0.2504 -0.1996 -0.4528
 4738TIP3    H135629   2.080   4.727  14.474 -0.0054 -0.4789  1.3330
 4738TIP3    H235630   2.202   4.655  14.527  1.8613 -0.0193 -2.1029
 4739TIP3   OH235631   0.278   5.971   3.732  0.1087 -0.4336  0.4946
 4739TIP3    H135632   0.331   5.918   3.792 -3.1733 -2.1320  2.1546
 4739TIP3    H235633   0.206   6.003   3.786 -0.2051  2.4636 -1.4398
 4740TIP3   OH235634   5.747   4.480   0.995 -0.4501  0.3350 -0.4052
 4740TIP3    H135635   5.770   4.539   0.923 -1.8322 -0.3543 -1.4479
 4740TIP3    H235636   5.765   4.531   1.074 -0.2264  1.6148 -1.2498
 4741TIP3   OH235637   3.396   5.637   0.533 -0.3189  0.2227  0.0765
 4741TIP3    H135638   3.381   5.698   0.461  0.5760  1.3262  0.7878
 4741TIP3    H235639   3.381   5.551   0.495  0.9809  0.7172 -1.6795
 4742TIP3   OH235640   4.936   5.868  15.909 -0.1526  0.0147  0.4324
 4742TIP3    H135641   4.912   5.954  15.873  2.3916  0.4914 -0.3017
 4742TIP3    H235642   4.957   5.886  16.000  0.6012  0.2373  0.2205
 4743TIP3   OH235643   5.077   3.885   0.839 -0.3034 -0.0605 -0.0812
 4743TIP3    H135644   5.131   3.961   0.819 -0.0840  0.2723  1.6327
 4743TIP3    H235645   4.990   3.921   0.855  0.3970  0.3129  3.6527
 4744TIP3   OH235646   2.601   5.807  11.628 -0.4800  0.0712 -0.8951
 4744TIP3    H135647   2.680   5.754  11.631 -0.1029  0.6573 -0.4297
 4744TIP3    H235648   2.605   5.853  11.544 -0.0896  0.4630 -0.6626
 4745TIP3   OH235649   3.529   1.242   4.034 -0.1860  0.5515 -0.3320
 4745TIP3    H135650   3.455   1.203   4.080 -0.1066 -0.9866 -1.4176
 4745TIP3    H235651   3.490   1.303   3.972 -0.6938 -1.0838 -1.7055
 4746TIP3   OH235652   3.255   5.700   5.086  0.3277  0.1269  0.2580
 4746TIP3    H135653   3.251   5.652   5.004 -3.4113  0.3714  0.1536
 4746TIP3    H235654   3.224   5.788   5.064  1.0631  0.7523  1.6041
 4747TIP3   OH235655   5.311   5.284   2.737  0.7621  0.5054  0.0157
 4747TIP3    H135656   5.360   5.357   2.776  0.5111  1.5538 -1.5292
 4747TIP3    H235657   5.379   5.227   2.700  0.9437  0.1672  0.8665
 4748TIP3   OH235658   0.975   0.308  14.767  0.0741  0.0931 -0.2830
 4748TIP3    H135659   0.910   0.364  14.726 -0.2498  0.9402  1.3059
 4748TIP3    H235660   1.058   0.355  14.756 -0.0907  0.5686  0.4445
 4749TIP3   OH235661   2.230   5.749  10.846  1.0991 -0.4532  0.2260
 4749TIP3    H135662   2.296   5.682  10.825  1.7096  0.3193 -0.3715
 4749TIP3    H235663   2.150   5.716  10.805  1.8650  0.1596 -1.8909
 4750TIP3   OH235664   1.486   6.454   0.865 -0.0680  0.2747 -0.8530
 4750TIP3    H135665   1.505   6.453   0.958 -1.8854  3.4088 -0.3125
 4750TIP3    H235666   1.390   6.449   0.860 -0.0250  0.3961 -2.5300
 4751TIP3   OH235667   1.951   1.822  16.576 -0.1086 -0.1961 -0.2075
 4751TIP3    H135668   1.927   1.836  16.667  0.6603 -1.0237  0.1335
 4751TIP3    H235669   1.871   1.842  16.527 -0.1980  1.4322  0.5308
 4752TIP3   OH235670   1.223   1.464   2.541 -0.1200 -0.1575  0.5616
 4752TIP3    H135671   1.170   1.466   2.620 -1.6675 -0.4257 -0.4406
 4752TIP3    H235672   1.237   1.371   2.524  0.8943 -0.0940  0.9251
 4753TIP3   OH235673   4.671   4.557  13.476  0.2966 -0.8117 -0.6582
 4753TIP3    H135674   4.649   4.467  13.451  0.7270 -1.3816  0.8906
 4753TIP3    H235675   4.619   4.573  13.555 -0.9902  0.9004 -1.7733
 4754TIP3   OH235676   6.316   0.143  11.852  0.3238  0.6845  0.3704
 4754TIP3    H135677   6.240   0.106  11.807 -0.1524  3.0774 -0.9549
 4754TIP3    H235678   6.329   0.086  11.928 -0.9730 -1.4902 -0.9209
 4755TIP3   OH235679   0.719   4.195   3.223 -0.1593  0.3000 -0.0839
 4755TIP3    H135680   0.749   4.161   3.308 -1.6656 -1.1289 -0.0848
 4755TIP3    H235681   0.710   4.118   3.168 -1.8403  0.8893 -0.6918
 4756TIP3   OH235682   3.733   1.025   1.325 -0.6929  0.0644 -0.5018
 4756TIP3    H135683   3.778   1.106   1.347 -1.5665  0.2322  0.7377
 4756TIP3    H235684   3.661   1.052   1.268 -0.6291  0.0726 -0.5800
 4757TIP3   OH235685   3.388   1.630  13.412  0.6526  0.2951 -0.3035
 4757TIP3    H135686   3.379   1.580  13.331 -0.1037  0.7100 -0.4820
 4757TIP3    H235687   3.431   1.570  13.472  0.3433 -0.3514 -0.7158
 4758TIP3   OH235688   5.346   1.668   5.272  0.8490 -0.2314 -0.2628
 4758TIP3    H135689   5.286   1.650   5.344  0.6526  0.7473 -0.1699
 4758TIP3    H235690   5.426   1.620   5.295  0.3580 -0.9565 -0.0370
 4759TIP3   OH235691   3.404   2.101   1.893 -0.6836  0.1336  0.2468
 4759TIP3    H135692   3.404   2.155   1.815 -1.7096 -0.9312 -0.5198
 4759TIP3    H235693   3.497   2.084   1.910 -0.3053  2.3393  0.7106
 4760TIP3   OH235694   4.916   3.890  11.921 -0.4522  0.0802 -0.1229
 4760TIP3    H135695   4.932   3.945  11.843 -0.4983  1.4766  0.8177
 4760TIP3    H235696   4.825   3.862  11.913 -0.2508 -0.3749 -0.9221
 4761TIP3   OH235697   5.604   1.989  16.420  0.3990 -0.1168  0.3220
 4761TIP3    H135698   5.515   2.021  16.413  0.5391  1.4884  3.6930
 4761TIP3    H235699   5.597   1.909  16.473  0.9579  0.1742  0.8556
 4762TIP3   OH235700   6.694   1.955  13.292  0.0134  0.0787  0.1159
 4762TIP3    H135701   6.689   2.042  13.251 -0.5062  0.7731  1.5753
 4762TIP3    H235702   6.603   1.925  13.297  0.2350 -0.7920 -0.8453
 4763TIP3   OH235703   2.836   4.275   1.357 -0.3186  0.5213 -0.3141
 4763TIP3    H135704   2.919   4.260   1.403 -0.5077 -0.8287 -0.3564
 4763TIP3    H235705   2.828   4.199   1.299 -0.6517  1.6106 -1.7412
 4764TIP3   OH235706   1.619   2.991  16.843  0.1492  0.3338  0.0350
 4764TIP3    H135707   1.542   2.981  16.900 -0.2606  3.3468  0.1641
 4764TIP3    H235708   1.684   3.035  16.898  1.1474 -0.1259 -0.7519
 4765TIP3   OH235709   1.768   2.373   3.532  0.0485 -0.1150  0.3865
 4765TIP3    H135710   1.713   2.434   3.580 -0.5904  1.1481 -1.8005
 4765TIP3    H235711   1.854   2.416   3.528  0.8311 -1.3419  2.3919
 4766TIP3   OH235712   2.731   1.518   4.920  0.5448 -0.5335  0.1006
 4766TIP3    H135713   2.761   1.466   4.845  0.3032 -0.1830 -0.2385
 4766TIP3    H235714   2.762   1.607   4.901 -1.6994  0.1119 -0.8473
 4767TIP3   OH235715   5.436   5.099   3.579 -0.4566 -0.9634  0.7055
 4767TIP3    H135716   5.522   5.058   3.584 -0.0037 -0.1835 -0.3389
 4767TIP3    H235717   5.443   5.174   3.638 -0.4884 -1.0222  0.7841
 4768TIP3   OH235718   3.154   6.724   3.396  0.9405  0.2365  0.5089
 4768TIP3    H135719   3.106   6.660   3.449  1.3086 -1.0542 -0.6533
 4768TIP3    H235720   3.101   6.804   3.400  0.1962 -0.2963  1.5740
 4769TIP3   OH235721   4.065   3.258   3.515  0.1507 -0.0950 -0.2881
 4769TIP3    H135722   3.980   3.223   3.543 -0.0486  1.9335  1.9926
 4769TIP3    H235723   4.094   3.312   3.589  2.7596  0.4384 -1.5932
 4770TIP3   OH235724   5.797   2.768   1.012 -0.4239  0.6973 -0.5211
 4770TIP3    H135725   5.710   2.757   0.973 -0.9800  0.4668  0.7295
 4770TIP3    H235726   5.807   2.692   1.070  0.4407  0.9400 -0.3447
 4771TIP3   OH235727   6.236   4.839   0.612  0.1912  0.7423  0.1609
 4771TIP3    H135728   6.268   4.883   0.533  1.2505 -0.5611 -0.1666
 4771TIP3    H235729   6.216   4.750   0.583  1.6123 -0.0777  1.5578
 4772TIP3   OH235730   1.998   2.856   4.643  0.4574  0.1630  0.1379
 4772TIP3    H135731   2.046   2.777   4.670 -0.8747 -1.4498 -1.8733
 4772TIP3    H235732   1.911   2.844   4.680 -0.4666 -0.5806 -2.0624
 4773TIP3   OH235733   6.760   6.522  12.503 -0.0854  0.6908 -0.1455
 4773TIP3    H135734   6.692   6.565  12.555 -0.9554 -0.7601 -0.0265
 4773TIP3    H235735   6.787   6.448  12.557 -0.4302 -0.3836 -1.4142
 4774TIP3   OH235736   1.635   2.245  15.834  0.7852 -0.6008 -0.4772
 4774TIP3    H135737   1.545   2.221  15.814  1.2486 -3.7735  0.5997
 4774TIP3    H235738   1.674   2.264  15.749 -0.5254 -0.6711 -1.1223
 4775TIP3   OH235739   6.588   2.359   4.559 -0.8727 -0.5133  0.0600
 4775TIP3    H135740   6.657   2.316   4.610  0.0698 -0.1652 -0.8826
 4775TIP3    H235741   6.606   2.334   4.469 -1.4838  0.2613 -0.2865
 4776TIP3   OH235742   3.321   5.937   5.295 -0.5642 -0.1066 -0.2665
 4776TIP3    H135743   3.337   6.029   5.314 -0.6544  0.0628 -0.9878
 4776TIP3    H235744   3.240   5.936   5.244 -1.8939 -0.7987  1.7491
 4777TIP3   OH235745   0.619   1.713   0.829  0.2393  0.0678 -0.2190
 4777TIP3    H135746   0.542   1.769   0.815 -0.1188  0.0726  1.5387
 4777TIP3    H235747   0.694   1.771   0.817 -0.0816  0.4862 -0.2083
 4778TIP3   OH235748   0.961   6.418  13.135 -0.5760  0.0967 -0.0814
 4778TIP3    H135749   0.896   6.394  13.201 -0.0604 -1.3422 -0.0737
 4778TIP3    H235750   1.045   6.394  13.173 -0.1133  0.9567 -0.5260
 4779TIP3   OH235751   0.838   1.414  12.737 -0.3108  0.1905 -0.1274
 4779TIP3    H135752   0.892   1.336  12.721 -0.3620  0.0338  0.4377
 4779TIP3    H235753   0.751   1.380  12.755 -0.7341  0.4712 -1.5434
 4780TIP3   OH235754   4.984   3.214   4.014  0.5820  0.1038 -0.0559
 4780TIP3    H135755   4.990   3.261   3.931 -1.2618  0.5806  0.0408
 4780TIP3    H235756   5.047   3.259   4.071  1.1288  0.4198 -0.8743
 4781TIP3   OH235757   4.870   4.482   0.363  0.1180 -0.1562  0.4660
 4781TIP3    H135758   4.840   4.401   0.403 -0.9850 -0.3821 -0.7441
 4781TIP3    H235759   4.874   4.545   0.435  1.3272 -1.3301  1.4937
 4782TIP3   OH235760   5.650   0.213  11.928  0.5311 -0.0467 -0.9101
 4782TIP3    H135761   5.705   0.181  11.999 -1.6241  0.2404  1.0176
 4782TIP3    H235762   5.665   0.153  11.855  1.1336 -1.7250  0.5546
 4783TIP3   OH235763   6.107   0.218  12.519 -0.0379 -0.8342 -0.2391
 4783TIP3    H135764   6.023   0.212  12.563  0.2167 -1.5608  0.1694
 4783TIP3    H235765   6.158   0.145  12.555  1.0850  0.1472  0.2258
 4784TIP3   OH235766   1.563   0.389   4.648 -0.0017  0.3655  0.0543
 4784TIP3    H135767   1.571   0.438   4.730 -1.2411  1.4233 -0.4285
 4784TIP3    H235768   1.483   0.423   4.607  0.1175 -0.7653 -1.1823
 4785TIP3   OH235769   1.490   3.651   1.060  0.4683 -0.2788  0.1073
 4785TIP3    H135770   1.531   3.618   1.141 -1.7034 -0.7441  1.0997
 4785TIP3    H235771   1.475   3.572   1.008  1.5108 -0.0217 -0.5931
 4786TIP3   OH235772   5.460   5.466   0.438  0.3347 -0.1986 -0.2610
 4786TIP3    H135773   5.442   5.374   0.458  2.4847 -0.4167  0.9728
 4786TIP3    H235774   5.454   5.511   0.522 -1.3700  0.9936 -0.9405
 4787TIP3   OH235775   0.336   1.032  16.317  0.0194  0.3473 -0.1745
 4787TIP3    H135776   0.385   0.951  16.326  0.8056  0.5857 -1.8654
 4787TIP3    H235777   0.378   1.093  16.378 -0.1564 -0.3066  0.6186
 4788TIP3   OH235778   6.079   4.371   3.343 -0.0746  0.3490 -0.1138
 4788TIP3    H135779   6.136   4.294   3.343 -0.5083  0.0179  0.7917
 4788TIP3    H235780   5.991   4.335   3.329 -0.2984  0.6493  0.4827
 4789TIP3   OH235781   5.222   6.510  15.816 -0.3483  0.5968 -0.1391
 4789TIP3    H135782   5.296   6.529  15.759 -1.3931 -0.2790 -1.8698
 4789TIP3    H235783   5.236   6.419  15.843  0.0681  0.9632  0.9274
 4790TIP3   OH235784   3.033   0.088  13.805  0.0308  0.5807  0.7676
 4790TIP3    H135785   3.082   0.050  13.878  0.8306  0.2530  0.0788
 4790TIP3    H235786   3.012   0.176  13.833  1.1671  0.7874  1.0331
 4791TIP3   OH235787   1.216   2.687  13.542  0.1952  0.2996  0.2820
 4791TIP3    H135788   1.163   2.638  13.604  2.4820 -1.4400  0.9871
 4791TIP3    H235789   1.188   2.655  13.456 -0.1587 -0.3311  0.6239
 4792TIP3   OH235790   3.737   0.695  13.876 -0.4434  0.3034 -0.5874
 4792TIP3    H135791   3.646   0.715  13.898 -0.6919 -1.3469 -0.0069
 4792TIP3    H235792   3.771   0.650  13.953  0.9108  0.9677 -0.7679
 4793TIP3   OH235793   2.525   5.813  11.002 -0.5789  0.0385  0.2890
 4793TIP3    H135794   2.526   5.763  10.920  0.9625  1.2800 -0.5106
 4793TIP3    H235795   2.459   5.880  10.988  0.5010  0.9849 -0.4506
 4794TIP3   OH235796   0.701   4.512   1.991 -0.3108 -0.0560  0.2265
 4794TIP3    H135797   0.769   4.559   2.040 -0.8641 -0.6576  1.6153
 4794TIP3    H235798   0.622   4.564   2.002 -0.6572 -0.6918  0.7808
 4795TIP3   OH235799   5.685   1.978   1.557  0.2238  0.1908 -0.0866
 4795TIP3    H135800   5.643   1.897   1.583  1.0467 -0.0096  0.6666
 4795TIP3    H235801   5.714   2.018   1.639  2.0801 -0.0182 -0.5916
 4796TIP3   OH235802   6.179   2.541   1.571  0.1345 -0.5758  0.3600
 4796TIP3    H135803   6.220   2.534   1.485 -1.8065  1.8582 -0.9086
 4796TIP3    H235804   6.142   2.455   1.588  1.6024 -1.4450 -0.6274
 4797TIP3   OH235805   1.080   1.875   0.903  0.1418  0.2659  0.2640
 4797TIP3    H135806   1.049   1.785   0.904 -0.5894  0.4764  2.5196
 4797TIP3    H235807   1.151   1.877   0.967 -0.6251  1.4845  1.1334
 4798TIP3   OH235808   6.455   3.311   6.729  0.4152  0.6080 -0.5488
 4798TIP3    H135809   6.413   3.385   6.773 -0.4411  0.7697 -1.5809
 4798TIP3    H235810   6.527   3.351   6.679  1.6302  0.3758  0.9444
 4799TIP3   OH235811   1.920   1.595   1.876  0.1116 -0.5119 -0.0544
 4799TIP3    H135812   1.968   1.579   1.957 -0.4294 -1.3565  0.1141
 4799TIP3    H235813   1.890   1.685   1.883  2.3670  0.3477 -0.5434
 4800TIP3   OH235814   5.032   5.629  11.087 -0.1605  0.1907 -0.0798
 4800TIP3    H135815   5.014   5.565  11.156 -2.1468  0.0637 -0.6454
 4800TIP3    H235816   5.110   5.595  11.043  1.0571  0.1820  1.9254
 4801TIP3   OH235817   4.949   2.723  12.752 -0.6320  0.0341 -0.1816
 4801TIP3    H135818   4.953   2.633  12.785 -1.2611 -0.9125 -2.5070
 4801TIP3    H235819   4.863   2.731  12.712 -0.1035  1.2706 -1.1340
 4802TIP3   OH235820   3.780   0.476   1.293  0.0993 -0.1358 -0.0932
 4802TIP3    H135821   3.815   0.565   1.301  0.6516 -0.2733 -0.8456
 4802TIP3    H235822   3.687   0.485   1.312  0.4184  0.3318  1.3828
 4803TIP3   OH235823   3.259   3.968   4.237 -0.7034 -0.2946 -0.2765
 4803TIP3    H135824   3.294   3.902   4.296  2.7789  0.4568 -1.3181
 4803TIP3    H235825   3.290   4.051   4.273  0.0533  0.2967 -2.2031
 4804TIP3   OH235826   5.866   6.345   4.392  0.0659 -0.1503  0.2062
 4804TIP3    H135827   5.940   6.294   4.422 -0.9357 -1.3586  0.6969
 4804TIP3    H235828   5.858   6.416   4.455  1.3116  0.5036 -0.3425
 4805TIP3   OH235829   5.190   3.339  15.310  0.2269 -0.1986 -0.1025
 4805TIP3    H135830   5.227   3.299  15.231 -1.7515  0.5789 -1.5095
 4805TIP3    H235831   5.098   3.313  15.309 -0.2777  1.4056  0.9243
 4806TIP3   OH235832   2.763   2.136   6.306 -0.0766  0.0547 -0.0186
 4806TIP3    H135833   2.816   2.064   6.273  0.2796 -0.6295  1.9026
 4806TIP3    H235834   2.811   2.215   6.281  0.6099 -0.4640 -0.3655
 4807TIP3   OH235835   4.703   5.780  16.625  0.5590 -0.3929 -0.0764
 4807TIP3    H135836   4.681   5.688  16.640  1.3720 -0.7122 -0.7832
 4807TIP3    H235837   4.779   5.795  16.681 -0.0790  0.0909  0.6785
 4808TIP3   OH235838   4.216   4.977   0.239 -0.0793  0.5508 -0.0983
 4808TIP3    H135839   4.192   4.965   0.147  0.0370  0.4591 -0.1172
 4808TIP3    H235840   4.207   4.891   0.278 -1.3688  0.8399  0.2757
 4809TIP3   OH235841   3.295   4.388   6.591  0.2621 -0.4564  0.0746
 4809TIP3    H135842   3.211   4.401   6.635  0.3879  0.8502 -0.0203
 4809TIP3    H235843   3.335   4.475   6.592  0.8250 -0.6765 -1.4900
 4810TIP3   OH235844   1.348   5.631  16.714 -0.2102  0.8789  0.4465
 4810TIP3    H135845   1.427   5.598  16.672 -1.0788 -0.0796 -0.4901
 4810TIP3    H235846   1.318   5.701  16.656 -2.2455 -1.4321 -1.5073
 4811TIP3   OH235847   4.178   1.600  10.442  0.7622 -0.0074 -0.2394
 4811TIP3    H135848   4.212   1.536  10.504  0.8640  0.8877  0.6502
 4811TIP3    H235849   4.121   1.550  10.384  0.1808 -0.7606  0.9545
 4812TIP3   OH235850   5.595   1.725   4.671  0.2051  0.1033 -0.1273
 4812TIP3    H135851   5.579   1.740   4.764  0.3649  1.0610 -0.2406
 4812TIP3    H235852   5.661   1.791   4.647 -0.3827  0.3710 -1.0815
 4813TIP3   OH235853   2.965   2.247   3.609 -0.0609  0.1744  0.0555
 4813TIP3    H135854   3.034   2.269   3.547 -1.1912  0.1650 -1.2763
 4813TIP3    H235855   3.003   2.181   3.667  1.5975  1.5007  0.5444
 4814TIP3   OH235856   3.786   5.686   2.344  0.1627  0.3458  0.5160
 4814TIP3    H135857   3.858   5.667   2.283  0.4856 -0.5506  1.1568
 4814TIP3    H235858   3.786   5.782   2.352 -1.4084  0.7670 -2.7019
 4815TIP3   OH235859   5.056   4.029   4.196 -0.0071 -0.0751  0.1080
 4815TIP3    H135860   5.017   3.954   4.152 -1.1181 -0.4365  1.6067
 4815TIP3    H235861   5.138   4.046   4.149 -0.9240 -0.6738 -1.7632
 4816TIP3   OH235862   2.539   2.341   5.819  0.5342 -0.3377  0.0621
 4816TIP3    H135863   2.472   2.409   5.833  2.2190  1.0678  2.0285
 4816TIP3    H235864   2.581   2.365   5.737  0.0107  0.0383 -0.0968
 4817TIP3   OH235865   2.763   4.905  12.513  0.5308  0.5659 -0.3161
 4817TIP3    H135866   2.787   4.962  12.586 -1.3586  1.4322 -0.3260
 4817TIP3    H235867   2.688   4.948  12.472  0.4404 -0.8138 -1.6953
 4818TIP3   OH235868   3.467   1.413  12.187  0.2486  1.0381  0.0392
 4818TIP3    H135869   3.545   1.365  12.214  0.4468  1.3920  0.0952
 4818TIP3    H235870   3.447   1.471  12.260 -0.5143  0.4100  0.3382
 4819TIP3   OH235871   1.346   1.131   4.217 -0.1722 -0.1907 -0.3137
 4819TIP3    H135872   1.274   1.112   4.157 -0.2338 -0.6616 -0.0996
 4819TIP3    H235873   1.313   1.201   4.273 -0.3914 -0.2681 -0.3462
 4820TIP3   OH235874   5.450   5.296  16.542  0.2130 -0.0204 -0.0893
 4820TIP3    H135875   5.487   5.380  16.570  0.3400  1.4368 -3.9271
 4820TIP3    H235876   5.523   5.234  16.550  0.8720  0.7970  0.4954
 4821TIP3   OH235877   2.952   0.094   2.071  0.1548 -0.0729  0.2134
 4821TIP3    H135878   2.870   0.048   2.092  0.5289 -0.3628  1.0960
 4821TIP3    H235879   2.928   0.187   2.074 -0.3156 -0.1720 -0.2981
 4822TIP3   OH235880   5.037   1.467  14.969 -0.0846 -0.1002  0.1161
 4822TIP3    H135881   5.093   1.439  15.042  1.3179 -2.4259 -1.6577
 4822TIP3    H235882   4.964   1.405  14.970 -0.5125  0.4005  0.0551
 4823TIP3   OH235883   2.197   1.567  13.830 -0.3745  0.4402 -1.0196
 4823TIP3    H135884   2.271   1.509  13.850  0.3570  1.3062 -1.1744
 4823TIP3    H235885   2.129   1.508  13.797  0.3832 -0.3263 -1.2460
 4824TIP3   OH235886   3.658   6.007   5.334 -0.3049  0.4004  0.2144
 4824TIP3    H135887   3.710   6.079   5.297  0.0004 -0.2873 -0.7306
 4824TIP3    H235888   3.572   6.046   5.352  0.1905  1.2696  0.7427
 4825TIP3   OH235889   0.666   4.002  14.883 -0.4895  0.3535  0.1114
 4825TIP3    H135890   0.671   3.918  14.837  0.3176  0.0919  0.6547
 4825TIP3    H235891   0.723   4.060  14.832 -0.5128  0.3857  0.1227
 4826TIP3   OH235892   2.053   5.545  15.983  0.0933  0.2004 -0.2334
 4826TIP3    H135893   2.060   5.486  15.907 -0.8203  0.3911 -0.4785
 4826TIP3    H235894   1.984   5.607  15.959 -1.1988 -0.5761  1.3048
 4827TIP3   OH235895   5.360   0.812  13.045  0.9113  0.4535 -0.4344
 4827TIP3    H135896   5.423   0.741  13.030 -0.1570 -1.0740  1.8208
 4827TIP3    H235897   5.414   0.884  13.079  1.6393 -0.3531  0.1766
 4828TIP3   OH235898   6.256   3.912   2.739  0.4943  0.6469 -0.0507
 4828TIP3    H135899   6.350   3.910   2.753  0.5718  2.0130 -0.2878
 4828TIP3    H235900   6.233   4.005   2.736 -0.7740  0.3460 -0.5686
 4829TIP3   OH235901   0.155   5.112  12.537 -0.4143  0.0328 -0.5756
 4829TIP3    H135902   0.201   5.113  12.621 -0.0129 -2.2830 -0.7172
 4829TIP3    H235903   0.072   5.068  12.554 -1.1926  1.2742 -1.0179
 4830TIP3   OH235904   0.018   5.054  14.068 -0.1267  0.3469  0.6158
 4830TIP3    H135905   0.030   5.009  14.151  0.7614 -0.7708 -0.1031
 4830TIP3    H235906   0.105   5.056  14.028  0.1155  3.6075  1.0258
 4831TIP3   OH235907   3.478   2.696   0.416 -0.3680 -0.0097 -0.0171
 4831TIP3    H135908   3.458   2.783   0.382 -0.9559  0.2332  0.9175
 4831TIP3    H235909   3.442   2.636   0.351  0.7621  0.4252 -1.0759
 4832TIP3   OH235910   5.110   1.842   0.533  0.3161 -0.5983  0.2071
 4832TIP3    H135911   5.199   1.869   0.510 -0.2126  0.4635 -0.6830
 4832TIP3    H235912   5.074   1.808   0.451 -0.8781  1.1928 -0.0564
 4833TIP3   OH235913   0.040   3.487  11.949 -0.6279 -0.5762 -0.1504
 4833TIP3    H135914  -0.021   3.487  11.875 -2.4628  0.0707  1.2982
 4833TIP3    H235915   0.033   3.400  11.986  1.2477 -1.3377 -1.3985
 4834TIP3   OH235916   1.295   5.108  16.908 -0.6527 -0.4944 -0.2639
 4834TIP3    H135917   1.348   5.115  16.987  0.3581 -0.7828 -0.9002
 4834TIP3    H235918   1.310   5.019  16.876 -2.6998 -1.1263  0.3350
 4835TIP3   OH235919   1.083   0.672   0.212  0.5249  0.0982  0.3154
 4835TIP3    H135920   1.168   0.678   0.255  2.1324  0.7201 -2.7106
 4835TIP3    H235921   1.059   0.762   0.192 -0.4909 -0.1306  0.3964
 4836TIP3   OH235922   0.952   5.548  14.423  0.3275  0.0058  0.1164
 4836TIP3    H135923   0.956   5.475  14.484  2.1790 -0.4294 -0.4572
 4836TIP3    H235924   0.859   5.570  14.418 -0.4425 -2.9214 -0.4189
 4837TIP3   OH235925   3.361   2.789  16.318 -0.0809  0.0226  0.4594
 4837TIP3    H135926   3.390   2.727  16.385  0.4362  0.7829  0.9574
 4837TIP3    H235927   3.292   2.839  16.361  0.6658  0.9146  0.6418
 4838TIP3   OH235928   1.667   3.507   3.919 -0.1395  0.4609  0.1589
 4838TIP3    H135929   1.691   3.473   3.833  1.2346 -0.8899  1.0403
 4838TIP3    H235930   1.576   3.482   3.930 -0.4990  1.0968 -1.0785
 4839TIP3   OH235931   4.997   1.100   2.272  0.5015  0.4626  0.1763
 4839TIP3    H135932   5.010   1.175   2.331  0.5422  0.1702  0.5437
 4839TIP3    H235933   5.037   1.026   2.318  0.5018  0.2226 -0.2060
 4840TIP3   OH235934   0.858   0.455  15.113  0.0191 -0.7881  0.0273
 4840TIP3    H135935   0.906   0.481  15.034  0.1536  0.2825  0.4417
 4840TIP3    H235936   0.775   0.421  15.080  0.0017 -0.1948 -0.5738
 4841TIP3   OH235937   4.384   2.701  12.274 -0.1287 -0.4295  0.0767
 4841TIP3    H135938   4.391   2.739  12.187 -2.1372  1.3034  0.6191
 4841TIP3    H235939   4.297   2.661  12.276 -0.7987  0.9905  1.7748
 4842TIP3   OH235940   5.940   3.430   4.721  0.5554  0.0870  0.5746
 4842TIP3    H135941   5.926   3.487   4.796 -1.6583  0.8782 -0.3625
 4842TIP3    H235942   5.856   3.385   4.708  1.1134 -0.5998 -0.9499
 4843TIP3   OH235943   5.484   4.242  15.633  0.5602  0.4997 -0.3267
 4843TIP3    H135944   5.542   4.183  15.680  1.5850  1.8499  0.1717
 4843TIP3    H235945   5.540   4.284  15.567 -0.0312  1.1801 -0.4139
 4844TIP3   OH235946   2.443   1.926  11.029 -0.0842 -0.5970 -0.1213
 4844TIP3    H135947   2.402   1.927  10.943 -0.6099 -1.1469  0.1150
 4844TIP3    H235948   2.448   2.018  11.055 -1.4778 -0.5304 -0.0160
 4845TIP3   OH235949   4.954   4.333   5.700 -0.4675 -0.1634  0.0054
 4845TIP3    H135950   4.977   4.254   5.748 -1.1586 -0.0436  0.5572
 4845TIP3    H235951   4.932   4.302   5.612 -0.0981 -0.4982  0.0288
 4846TIP3   OH235952   0.308   1.134   1.891  0.1874 -0.1919 -0.7429
 4846TIP3    H135953   0.330   1.137   1.798  2.5009  2.0030 -0.2227
 4846TIP3    H235954   0.369   1.069   1.927 -0.1491 -0.4355 -0.6039
 4847TIP3   OH235955   5.084   3.427   5.150  0.1282 -0.2122  0.0630
 4847TIP3    H135956   5.001   3.381   5.141 -0.3908  0.3830  1.4914
 4847TIP3    H235957   5.150   3.366   5.116 -0.9759 -0.1710 -2.3729
 4848TIP3   OH235958   4.234   2.619  11.656 -0.3452  0.0876 -0.4074
 4848TIP3    H135959   4.182   2.575  11.589 -0.3175  0.6652 -0.8140
 4848TIP3    H235960   4.305   2.661  11.607 -1.0538  1.6058 -0.1827
 4849TIP3   OH235961   1.017   1.099   5.720 -0.1235  0.5743  0.0109
 4849TIP3    H135962   1.104   1.065   5.742  0.0585 -0.4856 -2.0228
 4849TIP3    H235963   0.981   1.034   5.659 -1.6690  1.8110 -0.4700
 4850TIP3   OH235964   0.153   6.205   5.836 -0.2825 -0.4071 -0.5409
 4850TIP3    H135965   0.072   6.240   5.799  0.1590  1.0167 -0.2140
 4850TIP3    H235966   0.146   6.221   5.930  0.3176 -0.3950 -0.4938
 4851TIP3   OH235967   4.331   1.305   2.467  0.0931 -0.3480 -0.1403
 4851TIP3    H135968   4.384   1.361   2.524 -1.0832 -0.6126  1.2720
 4851TIP3    H235969   4.250   1.354   2.454 -0.1425 -0.8380 -0.5803
 4852TIP3   OH235970   2.947   1.072  11.013 -0.6138 -0.0635  0.1073
 4852TIP3    H135971   2.932   0.979  11.032 -1.3452  0.2174  1.0088
 4852TIP3    H235972   2.868   1.099  10.966 -0.4233  0.1148 -0.1092
 4853TIP3   OH235973   2.082   3.270  16.832 -0.0300 -0.0111  0.1416
 4853TIP3    H135974   2.082   3.193  16.890  2.0157 -0.6290 -0.5988
 4853TIP3    H235975   2.055   3.235  16.747  0.1945  0.2477 -0.0332
 4854TIP3   OH235976   3.822   6.717  15.902 -0.2225 -0.2029  0.3383
 4854TIP3    H135977   3.857   6.768  15.828  0.2516  1.0483  1.3793
 4854TIP3    H235978   3.894   6.714  15.965  0.1396 -3.1046 -0.0631
 4855TIP3   OH235979   2.724   6.775   5.688  0.5642 -0.3317  0.0948
 4855TIP3    H135980   2.796   6.809   5.635  0.8485 -1.0947 -0.0103
 4855TIP3    H235981   2.754   6.787   5.779  0.0752  0.9754  0.1077
 4856TIP3   OH235982   6.640   0.954   3.430 -0.6431 -0.1844  0.3309
 4856TIP3    H135983   6.682   0.870   3.449  1.9550  0.6829 -1.1513
 4856TIP3    H235984   6.569   0.931   3.369  0.0412 -1.3068 -0.0758
 4857TIP3   OH235985   2.882   3.210  12.592 -0.0624  0.6787 -0.0352
 4857TIP3    H135986   2.950   3.255  12.643  2.4066 -0.0373 -2.4100
 4857TIP3    H235987   2.831   3.162  12.656  0.2729  2.9835  2.0988
 4858TIP3   OH235988   1.096   6.392  11.162 -0.0018  0.7700  0.2656
 4858TIP3    H135989   1.026   6.434  11.111 -0.8759  0.9671  1.5856
 4858TIP3    H235990   1.174   6.444  11.141  0.0382 -0.0850 -2.0421
 4859TIP3   OH235991   1.148   1.436  11.917  0.0592 -0.1067  0.2248
 4859TIP3    H135992   1.186   1.523  11.910 -0.2000 -0.0834 -1.0718
 4859TIP3    H235993   1.221   1.380  11.946 -0.2969  0.8735  3.3791
 4860TIP3   OH235994   2.007   0.355   3.348 -0.2791 -0.1261 -0.4262
 4860TIP3    H135995   1.917   0.342   3.320 -0.9127 -1.6507  2.0003
 4860TIP3    H235996   2.015   0.304   3.429  2.5110  0.6828 -0.0682
 4861TIP3   OH235997   5.393   3.154   1.675  0.0211 -0.2150  0.0842
 4861TIP3    H135998   5.451   3.187   1.606 -0.7221  0.4668 -0.2292
 4861TIP3    H235999   5.430   3.189   1.756 -1.2907  2.3357 -0.3083
 4862TIP3   OH236000   6.228   6.528   4.479  0.0888  0.2205 -0.0551
 4862TIP3    H136001   6.186   6.490   4.556 -1.9271 -0.2581 -1.3070
 4862TIP3    H236002   6.285   6.596   4.514 -0.7547  0.0165  1.8681
 4863TIP3   OH236003   2.442   4.122  12.044 -0.1536 -0.6328 -0.5697
 4863TIP3    H136004   2.448   4.213  12.016 -0.8501 -0.7864 -1.2472
 4863TIP3    H236005   2.511   4.077  11.995 -0.3728 -0.6221 -0.8914
 4864TIP3   OH236006   4.169   1.962  14.560 -0.7990  0.1288 -0.0718
 4864TIP3    H136007   4.111   2.017  14.507 -0.4108  0.4040 -0.2130
 4864TIP3    H236008   4.248   1.953  14.507 -0.0394  1.1715  0.8466
 4865TIP3   OH236009   1.711   2.761   4.445 -0.8552  0.1704  0.1378
 4865TIP3    H136010   1.637   2.776   4.504  0.1464  0.1991  1.4232
 4865TIP3    H236011   1.754   2.683   4.480 -2.0332 -1.7752 -2.4335
 4866TIP3   OH236012   0.744   1.942   3.261 -0.6852  0.0279  0.4615
 4866TIP3    H136013   0.712   1.929   3.350 -1.5873 -1.7462 -0.0768
 4866TIP3    H236014   0.832   1.978   3.272 -1.3104  1.1973  2.0231
 4867TIP3   OH236015   6.530   1.893  12.908  1.1580  0.2101 -0.0366
 4867TIP3    H136016   6.506   1.974  12.863  0.8404  0.2275  0.1673
 4867TIP3    H236017   6.447   1.851  12.929  1.1476  1.5907  3.1193
 4868TIP3   OH236018   5.926   2.919   5.543  0.4265  0.1762 -0.1391
 4868TIP3    H136019   5.916   2.914   5.638  1.5401  0.6039  0.0094
 4868TIP3    H236020   5.843   2.955   5.512  0.4635  1.1129  0.7872
 4869TIP3   OH236021   1.107   6.088  16.065 -0.6035  0.0415  0.7317
 4869TIP3    H136022   1.036   6.125  16.013  1.8533  1.9451 -1.5697
 4869TIP3    H236023   1.127   6.005  16.022  0.0459  0.6119 -0.0895
 4870TIP3   OH236024   2.010   0.808  15.966 -0.3587  0.8623 -0.4474
 4870TIP3    H136025   2.013   0.874  16.034 -1.6911  1.4154 -0.8918
 4870TIP3    H236026   2.081   0.747  15.988  1.0790  2.5705 -0.2028
 4871TIP3   OH236027   2.554   0.372  10.438  0.4141 -0.5954  0.2155
 4871TIP3    H136028   2.539   0.381  10.532 -0.6466 -0.7977  0.0721
 4871TIP3    H236029   2.567   0.278  10.425 -0.8410 -0.7574 -0.0202
 4872TIP3   OH236030   3.696   0.225   0.264 -0.4855 -0.4367  0.4452
 4872TIP3    H136031   3.649   0.143   0.282  0.4476 -1.2766 -0.7695
 4872TIP3    H236032   3.644   0.267   0.196 -0.0836 -0.8361 -0.1163
 4873TIP3   OH236033   2.797   0.276  13.635  0.3214  0.4701 -0.1987
 4873TIP3    H136034   2.705   0.278  13.661  0.6211  1.8177  0.9205
 4873TIP3    H236035   2.844   0.268  13.718  1.2243  0.4271 -0.7050
 4874TIP3   OH236036   0.772   4.491  13.575 -0.0781  0.2680 -0.0464
 4874TIP3    H136037   0.866   4.501  13.559 -0.1150 -0.7513 -1.0220
 4874TIP3    H236038   0.733   4.572  13.543  0.3486  0.1469 -0.8973
 4875TIP3   OH236039   6.706   6.554   2.262  0.3746  0.6147 -0.6179
 4875TIP3    H136040   6.797   6.526   2.250  0.7095  1.1456  0.5193
 4875TIP3    H236041   6.712   6.645   2.290 -0.6580  1.6511 -3.4296
 4876TIP3   OH236042   5.873   2.708  13.909  0.0905  0.0208 -0.3906
 4876TIP3    H136043   5.917   2.784  13.870  0.2532  0.2711  0.2650
 4876TIP3    H236044   5.921   2.692  13.990  1.3208 -2.0107 -1.4307
 4877TIP3   OH236045   4.417   6.413  12.860  0.1614 -0.0520  0.1883
 4877TIP3    H136046   4.480   6.341  12.856  1.2063  0.8980 -1.1082
 4877TIP3    H236047   4.368   6.396  12.941  0.6131 -2.0045  0.1114
 4878TIP3   OH236048   4.420   2.451   4.999  0.4530  0.0664 -0.0934
 4878TIP3    H136049   4.461   2.526   5.042  0.2082 -1.7977  3.7560
 4878TIP3    H236050   4.491   2.388   4.986  0.2393  0.0180 -1.1350
 4879TIP3   OH236051   0.032   1.046   3.854  0.0426  0.0545 -0.4181
 4879TIP3    H136052   0.110   1.098   3.837 -0.7410  0.8424 -1.8130
 4879TIP3    H236053   0.002   1.074   3.941  1.5148 -0.5621  0.3077
 4880TIP3   OH236054   2.765   6.084   3.016  0.5512 -0.6335 -0.1869
 4880TIP3    H136055   2.769   5.992   3.043  0.8707 -0.2809  1.0345
 4880TIP3    H236056   2.826   6.129   3.075 -0.1007  0.4627 -0.3205
 4881TIP3   OH236057   1.253   2.606  15.696  0.0390 -0.0828  0.0221
 4881TIP3    H136058   1.346   2.583  15.699 -0.0934 -0.8316  4.0656
 4881TIP3    H236059   1.208   2.523  15.714 -1.4163  0.4295 -1.0864
 4882TIP3   OH236060   1.700   5.647   4.359 -0.0475  0.3330  0.4470
 4882TIP3    H136061   1.627   5.676   4.305 -0.4559 -0.4814  0.5437
 4882TIP3    H236062   1.751   5.726   4.376 -0.8102  0.8753  0.2279
 4883TIP3   OH236063   5.419   2.737   0.641  0.8575  0.0113  0.0640
 4883TIP3    H136064   5.489   2.768   0.584 -0.4941  1.5491 -0.8681
 4883TIP3    H236065   5.370   2.816   0.663 -0.0895 -0.9031  1.3666
 4884TIP3   OH236066   0.475   4.651   4.305 -0.2747 -0.5309 -0.4653
 4884TIP3    H136067   0.479   4.745   4.324 -1.3918 -0.4879 -0.3722
 4884TIP3    H236068   0.435   4.612   4.383 -0.9592 -0.9146 -0.9918
 4885TIP3   OH236069   1.028   0.138  10.660  0.2108 -0.0043 -0.0889
 4885TIP3    H136070   1.021   0.200  10.588 -0.5398 -0.2707 -0.2654
 4885TIP3    H236071   1.121   0.135  10.681  0.5232 -0.3414 -1.4200
 4886TIP3   OH236072   5.689   5.835   2.609 -0.1618  0.3003 -0.1498
 4886TIP3    H136073   5.770   5.821   2.658 -1.2996  1.0433  2.0778
 4886TIP3    H236074   5.633   5.761   2.633 -0.8348  0.8067 -0.1238
 4887TIP3   OH236075   0.643   4.234   0.191  0.1333  0.3507 -0.0992
 4887TIP3    H136076   0.617   4.325   0.205  0.3707  0.5204 -0.7437
 4887TIP3    H236077   0.736   4.239   0.169  0.5575 -0.1853  1.4295
 4888TIP3   OH236078   6.464   4.902  14.367  0.0786 -0.6433  0.0302
 4888TIP3    H136079   6.493   4.991  14.388  0.5436 -0.5707 -0.8809
 4888TIP3    H236080   6.493   4.849  14.442  1.2985 -0.3181 -0.1871
 4889TIP3   OH236081   6.200   5.906  17.128  0.0202  0.7197  0.0541
 4889TIP3    H136082   6.237   5.835  17.076 -0.1833 -0.0869  0.9791
 4889TIP3    H236083   6.161   5.965  17.063 -0.2013 -0.2405 -0.7148
 4890TIP3   OH236084   2.893   6.293  13.933 -0.5720  0.8050 -0.0644
 4890TIP3    H136085   2.957   6.353  13.971  0.3629 -0.9042  1.2319
 4890TIP3    H236086   2.830   6.279  14.004  0.1369 -0.9490  0.2748
 4891TIP3   OH236087   3.631   0.308   2.306  0.1012  0.2040  0.8411
 4891TIP3    H136088   3.679   0.380   2.264  2.4364 -1.9078 -0.3975
 4891TIP3    H236089   3.541   0.319   2.276  1.1943  0.2369 -2.9445
 4892TIP3   OH236090   0.117   1.033   2.848 -0.0633 -0.0271  0.0384
 4892TIP3    H136091   0.025   1.050   2.830 -0.0737  1.4851  1.2961
 4892TIP3    H236092   0.144   1.106   2.904  2.0885 -0.0772 -0.8675
 4893TIP3   OH236093   5.999   1.362  14.488  0.2339  0.1441  0.1646
 4893TIP3    H136094   6.012   1.295  14.555  0.6264  0.8275  0.8066
 4893TIP3    H236095   6.021   1.319  14.406  0.7038 -0.4524  0.5885
 4894TIP3   OH236096   3.164   3.850   1.455  0.3664 -0.5896 -0.1608
 4894TIP3    H136097   3.107   3.898   1.396 -0.6711 -0.4322  0.9158
 4894TIP3    H236098   3.250   3.889   1.444  0.0765 -0.2132 -1.1635
 4895TIP3   OH236099   3.450   1.450   6.521 -0.3952 -0.9309  0.5033
 4895TIP3    H136100   3.528   1.505   6.530 -1.5296  1.1343 -1.3530
 4895TIP3    H236101   3.478   1.364   6.552  2.1808  0.0755  1.2512
 4896TIP3   OH236102   1.450   2.179   2.394  0.1221  0.2277 -0.3427
 4896TIP3    H136103   1.382   2.246   2.394  0.3615  0.4755 -0.8553
 4896TIP3    H236104   1.433   2.127   2.473  1.9014  2.9409  2.0726
 4897TIP3   OH236105   4.804   2.733  17.063  0.1240 -0.3334  0.4363
 4897TIP3    H136106   4.833   2.786  16.989  0.5942  0.7160  1.3471
 4897TIP3    H236107   4.753   2.662  17.023  0.2192  0.3040 -0.8711
 4898TIP3   OH236108   1.639   6.314   2.307  0.2543  0.5488  0.0448
 4898TIP3    H136109   1.551   6.289   2.278  0.0488 -0.7542  1.6662
 4898TIP3    H236110   1.693   6.302   2.229 -0.3399 -2.4354 -0.0552
 4899TIP3   OH236111   0.965   1.515  14.101 -0.1516  0.1799 -0.4601
 4899TIP3    H136112   1.051   1.487  14.131  0.3459  1.8176 -0.2557
 4899TIP3    H236113   0.903   1.459  14.148  0.7620  0.0291  0.5903
 4900TIP3   OH236114   6.598   1.707   0.437  0.2647  0.5432 -0.4358
 4900TIP3    H136115   6.640   1.788   0.406  0.4691  2.0851  3.3062
 4900TIP3    H236116   6.663   1.667   0.494 -1.2407 -0.0898  0.9139
 4901TIP3   OH236117   6.602   2.232  15.010  0.2713 -0.0468 -0.2539
 4901TIP3    H136118   6.595   2.177  14.932  2.0555  0.5257 -0.8728
 4901TIP3    H236119   6.514   2.233  15.047 -0.6922 -0.1051 -2.4209
 4902TIP3   OH236120   2.453   4.853   3.029  0.1637  0.6106 -0.2993
 4902TIP3    H136121   2.542   4.817   3.034  0.0560  0.1902 -1.2405
 4902TIP3    H236122   2.424   4.858   3.120  0.5129 -0.8863 -0.0816
 4903TIP3   OH236123   4.877   1.996  16.776 -0.2014 -0.1503 -0.0022
 4903TIP3    H136124   4.838   1.922  16.823 -1.0683 -0.1485 -0.6928
 4903TIP3    H236125   4.889   1.964  16.687 -0.6265  0.5565 -0.3183
 4904TIP3   OH236126   2.138   2.707   5.863 -0.8791 -0.3968  0.2910
 4904TIP3    H136127   2.074   2.717   5.793  0.1299  0.3572 -0.5491
 4904TIP3    H236128   2.101   2.640   5.921 -1.2296 -1.8348 -1.5272
 4905TIP3   OH236129   0.022   5.646   0.881  0.0852 -0.4049 -0.0880
 4905TIP3    H136130   0.088   5.710   0.909 -0.6816 -0.2365  1.4069
 4905TIP3    H236131  -0.062   5.687   0.903 -0.6318 -0.2057 -2.7955
 4906TIP3   OH236132   1.213   3.955  14.394 -0.2776 -0.0226 -0.0220
 4906TIP3    H136133   1.297   3.999  14.385  0.4318 -1.4361 -0.7803
 4906TIP3    H236134   1.148   4.024  14.388  0.8002  0.9684 -0.5812
 4907TIP3   OH236135   3.345   3.506  13.288  0.3600  0.0284  0.4098
 4907TIP3    H136136   3.330   3.444  13.360 -0.7705  0.7468  0.8094
 4907TIP3    H236137   3.420   3.469  13.241 -1.4375 -2.7078 -0.5291
 4908TIP3   OH236138   3.927   5.262   4.185 -0.3396 -0.0561  0.1938
 4908TIP3    H136139   3.901   5.344   4.142 -2.9179 -1.8395 -1.9593
 4908TIP3    H236140   3.860   5.248   4.252  0.9087  0.2445  1.5545
 4909TIP3   OH236141   3.926   2.986   1.541  0.0018  0.1965  0.1170
 4909TIP3    H136142   3.989   2.995   1.613  0.8473  0.1764 -0.6094
 4909TIP3    H236143   3.945   3.059   1.483 -1.0066  0.4966  0.1534
 4910TIP3   OH236144   5.097   2.875  16.848 -0.0252  0.0743  0.0385
 4910TIP3    H136145   5.117   2.930  16.772 -1.4114 -1.1718 -1.3155
 4910TIP3    H236146   5.055   2.797  16.810 -2.3180  0.1474  2.1938
 4911TIP3   OH236147   1.867   6.323   4.142 -0.2767 -0.4144  0.0580
 4911TIP3    H136148   1.801   6.277   4.193 -0.9995 -0.0699 -0.5436
 4911TIP3    H236149   1.888   6.263   4.070 -1.4409  0.2899 -0.8971
 4912TIP3   OH236150   1.510   2.900  16.085 -0.2603 -0.0795 -0.0812
 4912TIP3    H136151   1.475   2.989  16.085 -1.2177 -0.4178 -1.9121
 4912TIP3    H236152   1.435   2.845  16.109 -0.0240 -0.5094 -0.3182
 4913TIP3   OH236153   6.627   2.917   5.260 -0.9700 -0.1964  0.0214
 4913TIP3    H136154   6.702   2.973   5.240 -0.4651 -1.0044 -0.4116
 4913TIP3    H236155   6.656   2.863   5.333 -0.7177 -1.2599 -0.8352
 4914TIP3   OH236156   2.269   0.273  10.889  0.1987 -0.1178 -0.2458
 4914TIP3    H136157   2.255   0.368  10.886 -0.4465 -0.2241 -0.8297
 4914TIP3    H236158   2.279   0.248  10.797 -0.3548 -0.7219 -0.1404
 4915TIP3   OH236159   3.454   5.284  14.461 -0.2125 -0.0364 -0.2044
 4915TIP3    H136160   3.437   5.368  14.505  4.4148  0.5854  0.9549
 4915TIP3    H236161   3.455   5.220  14.532  2.1150  0.0735 -0.0539
 4916TIP3   OH236162   0.677   1.891  15.946 -0.0634 -0.7490  0.4413
 4916TIP3    H136163   0.729   1.893  15.865  0.4484  0.4730  0.7765
 4916TIP3    H236164   0.635   1.977  15.949 -0.7461 -1.0970  1.0548
 4917TIP3   OH236165   3.957   3.725   2.378 -0.0684  0.3121  0.2116
 4917TIP3    H136166   3.950   3.821   2.384  0.4800  0.3932 -0.3636
 4917TIP3    H236167   3.868   3.694   2.394 -0.1769  0.8944  0.8150
 4918TIP3   OH236168   1.015   6.557  15.322 -0.9721 -0.0410 -0.2801
 4918TIP3    H136169   1.062   6.530  15.243 -0.2576  0.2529  0.0383
 4918TIP3    H236170   1.029   6.486  15.384 -1.3197 -0.1549 -0.3293
 4919TIP3   OH236171   6.365   2.909   5.224 -0.0041 -0.1604 -0.0675
 4919TIP3    H136172   6.355   2.960   5.144  0.8457 -0.3224 -0.2876
 4919TIP3    H236173   6.460   2.908   5.240 -0.2303  0.8694  1.5811
 4920TIP3   OH236174   3.507   4.443  11.852 -0.3277  0.1376 -0.5877
 4920TIP3    H136175   3.581   4.415  11.798  0.9814  0.9412  0.7191
 4920TIP3    H236176   3.540   4.439  11.942 -1.4232  1.7687 -0.0613
 4921TIP3   OH236177   1.598   5.554  16.602  0.2259 -0.0026 -0.0763
 4921TIP3    H136178   1.643   5.630  16.565  0.4504 -1.3033 -2.6848
 4921TIP3    H236179   1.669   5.499  16.636  0.1890  0.2043  0.3421
 4922TIP3   OH236180   3.677   1.879   3.048  0.1373 -0.3347 -0.5537
 4922TIP3    H136181   3.689   1.859   2.955  0.4498  0.2144 -0.6362
 4922TIP3    H236182   3.757   1.848   3.090 -0.4054 -1.4793 -0.3057
 4923TIP3   OH236183   4.591   2.185  15.121 -0.2410 -0.3402  0.4549
 4923TIP3    H136184   4.594   2.237  15.040 -2.0476 -1.0398 -0.1239
 4923TIP3    H236185   4.682   2.177  15.148  0.7389 -2.0159 -2.7857
 4924TIP3   OH236186   1.022   0.870  12.396  0.0185  0.5609  0.0525
 4924TIP3    H136187   1.060   0.823  12.322 -0.0091 -0.5200  0.7046
 4924TIP3    H236188   1.064   0.832  12.473 -0.3763  1.2674  0.6273
 4925TIP3   OH236189   6.485   5.333  11.129  0.5161  0.0480  0.2057
 4925TIP3    H136190   6.431   5.410  11.147 -0.2556 -0.5855  0.6889
 4925TIP3    H236191   6.575   5.366  11.129  0.2145  0.9051  0.6294
 4926TIP3   OH236192   4.233   5.435  16.928  0.3345 -0.1220 -0.6282
 4926TIP3    H136193   4.294   5.403  16.861  1.2297 -1.6807  0.8598
 4926TIP3    H236194   4.147   5.434  16.885  1.1272  0.8684 -2.3477
 4927TIP3   OH236195   6.085   1.149   6.140 -0.6375 -0.1349  0.0021
 4927TIP3    H136196   6.128   1.227   6.176  1.2534 -1.6921  1.3489
 4927TIP3    H236197   5.997   1.151   6.178 -0.0502  0.4727  1.4093
 4928TIP3   OH236198   3.477   3.311  12.022 -0.1443  0.0545  0.7209
 4928TIP3    H136199   3.540   3.310  12.095 -0.5316  0.4000  1.0647
 4928TIP3    H236200   3.502   3.237  11.968  0.4328  0.0609  0.9687
 4929TIP3   OH236201   0.100   2.997   0.079  0.6153 -0.3226  0.5210
 4929TIP3    H136202   0.063   2.982   0.166  0.8006 -0.4554  0.5781
 4929TIP3    H236203   0.195   2.993   0.092  0.7512  2.3326  0.8057
 4930TIP3   OH236204   4.092   5.838   5.972 -0.1516 -1.2098  0.3323
 4930TIP3    H136205   4.080   5.925   6.011 -0.5194 -0.6672 -0.9463
 4930TIP3    H236206   4.114   5.782   6.046  2.4239  0.3915  0.9086
 4931TIP3   OH236207   5.313   2.615  12.354 -0.1988  0.6788 -0.4599
 4931TIP3    H136208   5.374   2.620  12.427 -0.1203  0.6257 -0.5216
 4931TIP3    H236209   5.312   2.704  12.318 -0.4054  0.7578 -0.2604
 4932TIP3   OH236210   2.111   4.422   1.417 -0.7065 -0.1015 -0.1871
 4932TIP3    H136211   2.080   4.345   1.369  1.1795 -1.9821  1.4232
 4932TIP3    H236212   2.199   4.437   1.384 -0.4855  0.4086  0.5947
 4933TIP3   OH236213   5.420   3.722   3.414  0.0019  0.3938  0.2637
 4933TIP3    H136214   5.471   3.660   3.362 -1.9416  0.1231 -1.4483
 4933TIP3    H236215   5.404   3.677   3.497  0.3878 -0.5392 -0.1507
 4934TIP3   OH236216   5.272   6.506   4.682  0.3303 -0.0554 -0.4222
 4934TIP3    H136217   5.290   6.513   4.588  0.6098  1.8221 -0.2707
 4934TIP3    H236218   5.358   6.489   4.721 -0.0837 -2.9921 -0.6339
 4935TIP3   OH236219   1.541   0.185   1.780 -0.1119 -0.3654 -0.0042
 4935TIP3    H136220   1.458   0.189   1.828  0.1755  0.2179  0.4458
 4935TIP3    H236221   1.528   0.114   1.717 -1.5080  0.6657 -0.9490
 4936TIP3   OH236222   2.370   3.543   1.238 -0.1728 -0.1779  0.3664
 4936TIP3    H136223   2.449   3.586   1.272 -0.3903  1.0813 -0.6824
 4936TIP3    H236224   2.318   3.526   1.316 -0.0246  1.3799  0.8489
 4937TIP3   OH236225   4.512   1.010   5.839 -0.1910  0.3742  0.2994
 4937TIP3    H136226   4.514   0.962   5.921 -1.6906  1.0199  0.7478
 4937TIP3    H236227   4.575   1.080   5.850  3.2886 -2.2758 -0.9671
 4938TIP3   OH236228   0.619   0.107   1.905 -0.0625  0.4657  0.2615
 4938TIP3    H136229   0.694   0.070   1.952 -1.1923  0.4417  2.1373
 4938TIP3    H236230   0.635   0.201   1.905 -0.3723  0.5257  1.3048
 4939TIP3   OH236231   4.998   0.280   0.663  0.0274  0.4856  0.3961
 4939TIP3    H136232   4.947   0.347   0.708 -0.0186  0.1289  0.8885
 4939TIP3    H236233   4.951   0.198   0.682  1.8139 -0.1464  2.5303
 4940TIP3   OH236234   0.556   2.484   2.090 -0.1484 -0.2170  0.6158
 4940TIP3    H136235   0.619   2.555   2.083 -0.5681  0.0056 -1.7696
 4940TIP3    H236236   0.499   2.509   2.163  1.2349  0.5862  1.4700
 4941TIP3   OH236237   3.035   6.269  16.073 -0.0205 -0.6284 -0.4054
 4941TIP3    H136238   2.954   6.320  16.062  0.3658  0.0973  0.0094
 4941TIP3    H236239   3.080   6.277  15.989  0.7528  1.0257  0.1076
 4942TIP3   OH236240   1.114   0.326   5.852  0.2014  0.0118 -0.2530
 4942TIP3    H136241   1.053   0.253   5.841  0.1232 -0.1025  0.8233
 4942TIP3    H236242   1.190   0.287   5.895  0.5406  0.3890 -0.5033
 4943TIP3   OH236243   2.438   4.857   6.694 -0.2005  0.5075 -0.1396
 4943TIP3    H136244   2.520   4.815   6.668 -1.6054 -2.8495  0.2713
 4943TIP3    H236245   2.430   4.933   6.637  1.8277 -0.6871 -2.1672
 4944TIP3   OH236246   0.228   6.748  11.969  0.1031  0.0395 -0.6042
 4944TIP3    H136247   0.221   6.815  12.036 -1.1006 -0.2268 -0.4397
 4944TIP3    H236248   0.313   6.708  11.983  0.3817  0.8186 -0.0361
 4945TIP3   OH236249   6.450   4.781  13.591 -0.0145 -0.5994 -0.1252
 4945TIP3    H136250   6.467   4.709  13.532 -1.6734 -0.8910 -0.3016
 4945TIP3    H236251   6.417   4.852  13.535 -1.0172 -0.6694  0.3464
 4946TIP3   OH236252   5.351   3.807   2.600  0.2711  0.2109  0.3514
 4946TIP3    H136253   5.391   3.819   2.686  0.4308  1.0068  0.1816
 4946TIP3    H236254   5.410   3.852   2.540 -1.3341  2.3091  0.2071
 4947TIP3   OH236255   5.421   5.811  13.939 -0.9452 -0.2003  0.4583
 4947TIP3    H136256   5.490   5.824  14.004  1.2084 -1.0224 -1.5255
 4947TIP3    H236257   5.346   5.859  13.974  0.3147  0.0021  3.1508
 4948TIP3   OH236258   1.350   2.612  11.684 -0.3259 -0.1744  0.2361
 4948TIP3    H136259   1.330   2.638  11.594  0.4740 -1.6875 -0.4383
 4948TIP3    H236260   1.413   2.677  11.714  1.2140 -0.9310 -1.1811
 4949TIP3   OH236261   2.722   6.628   3.383  0.7747  0.6458  0.1796
 4949TIP3    H136262   2.753   6.653   3.296  0.7682  3.3427  0.8504
 4949TIP3    H236263   2.639   6.584   3.368  0.4481  1.6580 -1.1881
 4950TIP3   OH236264   5.871   2.259   5.537  0.1141 -0.6340  0.5991
 4950TIP3    H136265   5.781   2.276   5.564  0.3215 -0.7135  1.3663
 4950TIP3    H236266   5.919   2.338   5.560 -0.3348  0.7998 -2.8014
 4951TIP3   OH236267   3.017   5.198   2.707  0.1264  0.4528  0.7714
 4951TIP3    H136268   3.035   5.185   2.614 -3.2549 -0.6693  0.1236
 4951TIP3    H236269   3.053   5.120   2.749  0.7447  0.4602  0.2758
 4952TIP3   OH236270   4.961   1.274   6.036 -0.2247 -0.2417 -0.1663
 4952TIP3    H136271   5.014   1.301   6.111 -2.4926 -0.4485  1.5977
 4952TIP3    H236272   4.976   1.180   6.028  0.6661 -0.0803 -0.5555
 4953TIP3   OH236273   0.763   2.692   4.174 -0.0243  0.0807  0.3204
 4953TIP3    H136274   0.729   2.626   4.114  0.7257  0.8890 -1.0491
 4953TIP3    H236275   0.857   2.675   4.177 -0.0584  0.0435  1.2936
 4954TIP3   OH236276   2.194   1.387   6.413 -0.3580  0.2653  0.2427
 4954TIP3    H136277   2.099   1.391   6.415 -0.4443 -1.1936  1.6187
 4954TIP3    H236278   2.223   1.471   6.449 -1.0157  1.5422 -1.9838
 4955TIP3   OH236279   6.660   6.392  15.016  0.1147 -0.0950 -0.3240
 4955TIP3    H136280   6.711   6.454  15.069  0.4281  0.1015 -0.8532
 4955TIP3    H236281   6.611   6.341  15.081  0.2268  0.3759  0.1427
 4956TIP3   OH236282   2.381   6.166  14.499  0.1457 -0.7594  0.7406
 4956TIP3    H136283   2.459   6.118  14.472  0.0747 -0.7491  0.5194
 4956TIP3    H236284   2.322   6.098  14.533 -0.0384 -0.8593  0.2348
 4957TIP3   OH236285   4.576   6.604   0.549  0.1093 -0.4702  0.0185
 4957TIP3    H136286   4.629   6.536   0.508  0.6990 -1.0975  1.7170
 4957TIP3    H236287   4.582   6.586   0.643 -2.9912 -0.4745  0.3311
 4958TIP3   OH236288   2.857   1.866  13.270  0.0060  0.2272  0.2113
 4958TIP3    H136289   2.892   1.859  13.181 -0.1332 -1.4263  0.2456
 4958TIP3    H236290   2.785   1.802  13.272  1.2529 -1.2289  2.0535
 4959TIP3   OH236291   4.561   5.854   3.628  0.5129 -0.2373  0.4383
 4959TIP3    H136292   4.490   5.918   3.619  0.6764 -0.2567 -1.5069
 4959TIP3    H236293   4.522   5.771   3.599  1.5294 -0.0480 -1.7283
 4960TIP3   OH236294   2.128   5.835  13.637 -0.0713  0.1841  0.3530
 4960TIP3    H136295   2.137   5.741  13.621  0.2486  0.2602  0.0963
 4960TIP3    H236296   2.050   5.860  13.588 -0.6162 -0.0970  1.0532
 4961TIP3   OH236297   0.012   6.633  15.345  0.3125 -0.5209 -0.6131
 4961TIP3    H136298   0.039   6.642  15.253  2.6647  0.0826  0.0704
 4961TIP3    H236299  -0.026   6.545  15.349  0.7616 -0.8245 -2.0427
 4962TIP3   OH236300   3.527   6.388  16.667 -0.0335  0.5892  0.0200
 4962TIP3    H136301   3.618   6.406  16.643  1.2811 -2.2543  2.2817
 4962TIP3    H236302   3.476   6.455  16.621  3.1827  2.3885 -1.2159
 4963TIP3   OH236303   4.889   0.115   4.761 -0.1561 -0.4974 -0.0414
 4963TIP3    H136304   4.958   0.158   4.711 -0.0695 -0.3751  0.1815
 4963TIP3    H236305   4.901   0.022   4.744 -2.2982 -0.3665 -3.1409
 4964TIP3   OH236306   0.068   3.981   4.517  0.3754  0.4324  0.2143
 4964TIP3    H136307  -0.017   3.953   4.483  0.8116 -1.2823  0.4269
 4964TIP3    H236308   0.054   4.070   4.549 -1.1513  0.4307 -0.4058
 4965TIP3   OH236309   0.560   5.785  10.919 -0.2260  0.5132  0.1527
 4965TIP3    H136310   0.559   5.873  10.881  2.3068  0.1190 -1.0726
 4965TIP3    H236311   0.524   5.729  10.850 -0.5660  0.4010  0.4148
 4966TIP3   OH236312   1.741   1.498  11.590 -0.1007  0.1147  0.6461
 4966TIP3    H136313   1.750   1.475  11.683  0.8512  3.1752  1.4544
 4966TIP3    H236314   1.827   1.532  11.566  0.1748 -2.0807 -1.9210
 4967TIP3   OH236315   5.695   5.321   0.257  0.4070  0.6376 -0.5441
 4967TIP3    H136316   5.682   5.398   0.201 -2.0292  0.7047 -0.0018
 4967TIP3    H236317   5.679   5.353   0.346 -1.4300 -0.6076 -0.3819
 4968TIP3   OH236318   0.959   5.774   1.174  0.5160 -0.5048  0.1599
 4968TIP3    H136319   1.013   5.852   1.158  1.3361 -1.0888 -0.0069
 4968TIP3    H236320   0.967   5.723   1.093 -1.0781 -0.1631 -0.2369
 4969TIP3   OH236321   6.703   4.426   0.842  0.2474  0.6233 -0.0369
 4969TIP3    H136322   6.719   4.496   0.906  0.8131  2.1165 -1.7045
 4969TIP3    H236323   6.651   4.469   0.773  3.7405  0.6217 -2.9955
 4970TIP3   OH236324   3.148   5.652  14.060  0.2534  0.0748 -0.3286
 4970TIP3    H136325   3.180   5.701  14.137 -0.1808  0.2176 -0.2329
 4970TIP3    H236326   3.053   5.651  14.071 -0.1008  2.4754 -2.2462
 4971TIP3   OH236327   5.698   2.197  14.248 -0.3938  0.6385 -0.3764
 4971TIP3    H136328   5.670   2.211  14.339  0.1334  3.4696 -0.5454
 4971TIP3    H236329   5.793   2.193  14.253 -0.4041 -0.3323 -0.7198
 4972TIP3   OH236330   3.763   5.814   2.966 -0.0964 -0.1553 -0.1995
 4972TIP3    H136331   3.682   5.831   2.918 -0.0766  3.6372  0.7873
 4972TIP3    H236332   3.833   5.832   2.904 -0.0372 -0.1226 -0.1236
 4973TIP3   OH236333   4.870   4.135  10.951 -0.0883  0.4103  0.3170
 4973TIP3    H136334   4.957   4.130  10.991 -0.5662 -0.0769  1.3436
 4973TIP3    H236335   4.882   4.100  10.863  0.9695  1.3633  0.0620
 4974TIP3   OH236336   6.183   5.433  12.224 -0.0904 -0.5138 -0.2539
 4974TIP3    H136337   6.133   5.385  12.159 -1.7054  0.6070  0.0833
 4974TIP3    H236338   6.225   5.504  12.175 -2.7816  1.4530  0.0587
 4975TIP3   OH236339   3.868   5.869   0.370 -0.2919  0.0770 -0.1037
 4975TIP3    H136340   3.935   5.801   0.377 -0.2253  0.1407 -0.1190
 4975TIP3    H236341   3.918   5.951   0.367 -0.3557  0.1035 -0.4354
 4976TIP3   OH236342   3.307   5.525   4.496 -0.4849 -0.4058  0.0977
 4976TIP3    H136343   3.257   5.605   4.509 -1.1944 -0.7916 -0.2232
 4976TIP3    H236344   3.273   5.465   4.562 -0.0018 -0.4706  0.2919
 4977TIP3   OH236345   3.345   6.220  16.754  0.1208  0.3048 -0.0629
 4977TIP3    H136346   3.317   6.169  16.677 -1.3748 -0.7096  1.1012
 4977TIP3    H236347   3.405   6.285  16.718 -2.3872  1.5053 -2.5141
 4978TIP3   OH236348   1.580   5.040   0.856  0.2605 -0.1942  0.0588
 4978TIP3    H136349   1.675   5.043   0.862  0.1558  2.0867  2.9116
 4978TIP3    H236350   1.555   5.124   0.816 -0.5562  0.2491  1.4174
 4979TIP3   OH236351   4.947   0.155  17.156 -0.1886 -0.0823 -0.0386
 4979TIP3    H136352   4.990   0.169  17.240  0.7642 -0.0309 -0.5190
 4979TIP3    H236353   5.004   0.094  17.110 -1.5047 -1.3270 -0.0698
 4980TIP3   OH236354   1.344   5.523   2.024 -0.7003 -0.5068  0.3391
 4980TIP3    H136355   1.255   5.512   2.057 -0.5284 -0.2722  0.8831
 4980TIP3    H236356   1.349   5.462   1.950 -0.5486 -2.3681  1.8024
 4981TIP3   OH236357   3.092   0.254   0.495  0.7713  0.3436  0.0917
 4981TIP3    H136358   3.187   0.258   0.482  0.8522  0.9541  0.8036
 4981TIP3    H236359   3.071   0.335   0.542 -0.2216  0.6004 -0.7738
 4982TIP3   OH236360   1.302   2.241   5.127 -0.0223 -0.0604  0.6161
 4982TIP3    H136361   1.346   2.186   5.062 -1.2883 -0.3550 -0.0238
 4982TIP3    H236362   1.359   2.238   5.204  0.0548 -2.1323  0.5352
 4983TIP3   OH236363   2.846   2.164   4.744  0.1874  0.0532 -0.4058
 4983TIP3    H136364   2.937   2.147   4.767  0.9048  0.8646 -2.4305
 4983TIP3    H236365   2.839   2.137   4.653 -1.3413  0.9345 -0.5863
 4984TIP3   OH236366   1.636   1.410  15.012 -0.2095 -0.2181 -0.4609
 4984TIP3    H136367   1.546   1.439  14.996  0.1529  1.8783  0.9661
 4984TIP3    H236368   1.627   1.338  15.075 -0.9642 -1.5185 -1.9775
 4985TIP3   OH236369   1.883   0.418  13.347  0.1686 -0.2896  0.4178
 4985TIP3    H136370   1.971   0.388  13.367 -0.1098 -1.4918 -0.0644
 4985TIP3    H236371   1.876   0.504  13.390  1.8691  0.2536 -0.2954
 4986TIP3   OH236372   0.592   3.057  11.628  0.3993 -0.0916 -0.1351
 4986TIP3    H136373   0.622   3.104  11.706  0.5413 -0.6307  0.1376
 4986TIP3    H236374   0.522   3.001  11.659  2.9480 -3.2391  0.4632
 4987TIP3   OH236375   6.264   1.023  11.193  1.0923  0.8869 -0.3085
 4987TIP3    H136376   6.193   0.989  11.248  1.9349 -1.9538 -0.8039
 4987TIP3    H236377   6.235   1.111  11.169 -1.4710  0.4751  0.8522
 4988TIP3   OH236378   6.576   4.258   1.696  0.0896  0.4304  0.4608
 4988TIP3    H136379   6.578   4.167   1.667 -0.5535 -0.1849  2.2278
 4988TIP3    H236380   6.537   4.306   1.622  0.5674 -0.6784 -0.5396
 4989TIP3   OH236381   3.832   4.264   0.724  0.7583  0.0908 -0.2367
 4989TIP3    H136382   3.864   4.265   0.634  2.2762  0.8099  0.2832
 4989TIP3    H236383   3.806   4.355   0.741 -0.9633 -0.3257 -0.4007
 4990TIP3   OH236384   1.779   5.506   1.432 -0.8707  0.6397  0.6104
 4990TIP3    H136385   1.861   5.551   1.451 -0.5483  0.4842 -0.3515
 4990TIP3    H236386   1.737   5.496   1.517  0.1658  0.6115  1.1387
 4991TIP3   OH236387   5.644   4.518  12.966  0.1026 -0.6142 -0.0364
 4991TIP3    H136388   5.727   4.543  12.925  0.1600  1.3103  1.1217
 4991TIP3    H236389   5.578   4.569  12.920 -0.4003 -1.7471 -0.6021
 4992TIP3   OH236390   3.899   4.361  12.078  0.0757 -0.3123  0.2398
 4992TIP3    H136391   3.896   4.420  12.153  1.2235 -0.5246  0.4642
 4992TIP3    H236392   3.942   4.410  12.009  0.5741 -0.7031  0.2659
 4993TIP3   OH236393   6.310   6.356   5.908 -0.7338  0.2349  0.1576
 4993TIP3    H136394   6.314   6.437   5.960  2.1523 -1.0446  2.2033
 4993TIP3    H236395   6.266   6.293   5.964 -2.2201  0.0730 -1.1046
 4994TIP3   OH236396   5.834   0.086   3.266  0.6178  0.3426 -0.7158
 4994TIP3    H136397   5.782   0.141   3.325  0.4975  0.7357 -1.1871
 4994TIP3    H236398   5.800  -0.003   3.280  1.0705  0.3216  0.3290
 4995TIP3   OH236399   4.025   6.314   2.624 -0.1763  0.2286 -0.7228
 4995TIP3    H136400   3.969   6.304   2.700  0.0081 -1.3117 -0.7633
 4995TIP3    H236401   3.967   6.344   2.555  0.1415  4.7367  0.6568
 4996TIP3   OH236402   2.622   2.370  14.946  0.1217  0.0502 -0.0565
 4996TIP3    H136403   2.635   2.285  14.988  1.0552 -0.5544 -1.4872
 4996TIP3    H236404   2.686   2.427  14.987  0.8263 -0.4555 -0.4332
 4997TIP3   OH236405   3.119   4.676   3.698  0.1037  0.0520 -0.8010
 4997TIP3    H136406   3.076   4.756   3.728  1.1251 -0.1799  1.4578
 4997TIP3    H236407   3.077   4.606   3.748  0.8808 -0.5564 -0.9784
 4998TIP3   OH236408   4.605   3.650   3.200 -0.1077 -0.4681  0.4612
 4998TIP3    H136409   4.616   3.724   3.140  1.0201 -0.3884  0.7311
 4998TIP3    H236410   4.533   3.600   3.163  0.1588 -0.0880 -0.6249
 4999TIP3   OH236411   3.695   5.964   3.892 -0.4297 -0.2678 -0.3596
 4999TIP3    H136412   3.659   5.962   3.804  1.9271  0.0087 -1.4128
 4999TIP3    H236413   3.636   6.021   3.941 -0.6471  1.3180 -2.3198
 5000TIP3   OH236414   0.616   1.385   0.367  0.4631 -0.2523 -0.1663
 5000TIP3    H136415   0.699   1.400   0.412  1.8329 -1.1006 -2.2238
 5000TIP3    H236416   0.561   1.458   0.393  3.1343  2.4848 -1.5077
 5001TIP3   OH236417   0.981   3.418   0.017 -0.0822  0.0502 -0.6296
 5001TIP3    H136418   0.922   3.344   0.000  1.2259 -1.2357  0.1552
 5001TIP3    H236419   0.985   3.424   0.113 -1.0196  1.8832 -0.6711
 5002TIP3   OH236420   4.071   2.774  16.388 -0.2453  0.3143 -0.5792
 5002TIP3    H136421   4.006   2.809  16.328  1.4436  2.6659 -1.1680
 5002TIP3    H236422   4.074   2.837  16.460 -0.9868 -1.5521  1.2071
 5003TIP3   OH236423   4.225   4.189   0.016  0.1803 -0.3423 -0.0271
 5003TIP3    H136424   4.282   4.175   0.092 -0.4698  0.5153  0.6452
 5003TIP3    H236425   4.144   4.144   0.038  0.7045 -1.9006 -1.1547
 5004TIP3   OH236426   0.068   3.351  13.087  0.2766 -0.3618 -0.2531
 5004TIP3    H136427   0.139   3.385  13.141  0.8343  0.3937 -1.4308
 5004TIP3    H236428   0.111   3.289  13.027 -0.2479 -0.7876 -0.1965
 5005TIP3   OH236429   0.458   2.414  12.037  0.4809  0.2793 -0.2730
 5005TIP3    H136430   0.477   2.504  12.064 -3.1472  1.0998  0.0695
 5005TIP3    H236431   0.413   2.423  11.953  1.4971 -1.3919 -1.0433
 5006TIP3   OH236432   3.581   6.314   2.042  0.3133  0.3181 -0.5055
 5006TIP3    H136433   3.582   6.386   1.979 -1.1904 -2.1135 -3.6434
 5006TIP3    H236434   3.673   6.302   2.065  0.6691  2.7441 -0.4103
 5007TIP3   OH236435   3.888   0.389  14.912  0.2304  0.1871 -0.2064
 5007TIP3    H136436   3.965   0.441  14.891  0.1822  0.5229  0.4367
 5007TIP3    H236437   3.889   0.318  14.847  1.4998 -0.2487  0.2628
 5008TIP3   OH236438   5.804   4.821   3.225 -0.8024  0.0813  0.3184
 5008TIP3    H136439   5.720   4.854   3.193 -1.3015  0.0105  1.5012
 5008TIP3    H236440   5.781   4.751   3.286  0.0588  0.7063  1.4153
 5009TIP3   OH236441   1.590   0.128  14.119 -0.0992  0.0732 -0.3277
 5009TIP3    H136442   1.539   0.061  14.164  0.2180  0.3875  0.5047
 5009TIP3    H236443   1.628   0.082  14.044 -0.2147 -0.5786  0.0067
 5010TIP3   OH236444   1.627   5.149  15.890  0.2960 -0.2721 -0.0796
 5010TIP3    H136445   1.542   5.125  15.928  1.2768 -1.3239  1.5787
 5010TIP3    H236446   1.615   5.137  15.795 -1.3786 -0.4392  0.1175
 5011TIP3   OH236447   3.584   0.804  12.077 -0.1768  0.1698  0.0275
 5011TIP3    H136448   3.600   0.811  11.983 -1.8903 -3.3187 -0.6728
 5011TIP3    H236449   3.614   0.717  12.101  0.6679  1.1163  2.9092
 5012TIP3   OH236450   4.518   6.316   1.202 -0.3595  0.3121 -0.4713
 5012TIP3    H136451   4.439   6.350   1.243 -0.1067 -0.1617  0.4501
 5012TIP3    H236452   4.550   6.250   1.264 -0.0146 -0.5089 -1.4933
 5013TIP3   OH236453   5.828   0.367   2.667 -0.0946  0.0616 -0.3340
 5013TIP3    H136454   5.769   0.295   2.687  0.6511 -0.2225  0.9001
 5013TIP3    H236455   5.907   0.326   2.632 -0.9330  0.4885 -2.9957
 5014TIP3   OH236456   4.498   2.225   0.960 -0.5615  0.6267  0.5022
 5014TIP3    H136457   4.411   2.239   0.923  0.1566  0.3646 -1.3724
 5014TIP3    H236458   4.552   2.294   0.922  0.1440  0.5465  1.3411
 5015TIP3   OH236459   0.414   1.984  16.089 -0.4782  0.3969 -0.0770
 5015TIP3    H136460   0.404   1.924  16.015  1.0044  0.1132 -0.0762
 5015TIP3    H236461   0.495   2.031  16.071 -1.4118  2.1517  0.1200
 5016TIP3   OH236462   2.650   6.063  17.170  0.2258 -0.2258 -0.1520
 5016TIP3    H136463   2.572   6.092  17.123 -2.6939 -1.1677  3.6000
 5016TIP3    H236464   2.636   5.969  17.184  0.1191  0.1949  3.5531
 5017TIP3   OH236465   5.241   1.530   4.706 -0.2427 -0.1196 -0.4451
 5017TIP3    H136466   5.258   1.449   4.755  0.8871 -0.2776 -1.0602
 5017TIP3    H236467   5.244   1.503   4.614 -1.5724  0.3164 -0.6342
 5018TIP3   OH236468   6.549   5.121  14.492 -0.3435 -0.3048 -0.5765
 5018TIP3    H136469   6.548   5.202  14.542 -2.7501 -0.6002 -0.0190
 5018TIP3    H236470   6.631   5.079  14.516 -0.1093  0.9050  0.8953
 5019TIP3   OH236471   0.518   6.711   3.281 -0.6081 -0.6210  0.0539
 5019TIP3    H136472   0.583   6.743   3.345 -0.7508 -0.1112 -0.0524
 5019TIP3    H236473   0.476   6.790   3.248 -0.5042 -0.8838 -0.7118
 5020TIP3   OH236474   0.175   1.844  11.055  0.2341 -0.2458  0.0159
 5020TIP3    H136475   0.217   1.916  11.008 -2.1655  0.0944 -1.7913
 5020TIP3    H236476   0.153   1.780  10.987 -0.8924 -1.0473  1.0844
 5021TIP3   OH236477   3.742   5.954  12.203 -0.5543  0.5373  0.0966
 5021TIP3    H136478   3.659   5.916  12.231 -0.5495  1.8525  2.1434
 5021TIP3    H236479   3.724   6.048  12.194  0.8957  1.0495  1.7304
 5022TIP3   OH236480   0.901   3.115   0.747  0.1942 -0.3984 -0.4428
 5022TIP3    H136481   0.911   3.145   0.657 -0.7580 -1.7713 -1.0323
 5022TIP3    H236482   0.809   3.132   0.768  0.6579  0.9386  0.6889
 5023TIP3   OH236483   1.411   2.741  10.816 -0.0396 -0.0641  0.1433
 5023TIP3    H136484   1.330   2.726  10.768 -0.2771 -0.1668  0.5722
 5023TIP3    H236485   1.443   2.824  10.781 -0.3268 -0.0231 -0.0325
 5024TIP3   OH236486   2.351   6.076  13.887  0.2450  0.2737 -0.6307
 5024TIP3    H136487   2.307   6.025  13.955  1.1241 -2.0922 -1.7087
 5024TIP3    H236488   2.311   6.046  13.805  2.6459 -0.8012 -1.5113
 5025TIP3   OH236489   5.835   2.815   5.945  0.9727  0.0129 -0.1504
 5025TIP3    H136490   5.867   2.795   6.033  1.0487  0.8440  0.0252
 5025TIP3    H236491   5.850   2.909   5.936 -0.1984  0.1741 -0.5731
 5026TIP3   OH236492   1.287   0.188  16.118 -0.8458 -0.3554  0.4721
 5026TIP3    H136493   1.315   0.280  16.120 -0.4484 -0.4069 -1.2074
 5026TIP3    H236494   1.277   0.164  16.210  0.3286  0.9829  0.9895
 5027TIP3   OH236495   3.504   0.846   5.363  0.2913  0.2888  0.0918
 5027TIP3    H136496   3.444   0.771   5.365  2.2092 -1.3483 -0.3451
 5027TIP3    H236497   3.468   0.907   5.428 -0.9640 -1.3201  0.9951
 5028TIP3   OH236498   5.422   3.471  13.998 -0.8928  0.1238 -0.2313
 5028TIP3    H136499   5.455   3.561  13.996  0.5754 -0.3442  0.9187
 5028TIP3    H236500   5.491   3.420  13.955 -1.8957 -0.4195 -1.2371
 5029TIP3   OH236501   3.244   1.444  14.780 -0.1441  0.0273 -0.2866
 5029TIP3    H136502   3.240   1.375  14.713 -1.2178  0.3503 -0.5716
 5029TIP3    H236503   3.206   1.403  14.858 -2.9568  0.9346 -1.0667
 5030TIP3   OH236504   1.540   3.653  15.498 -0.1508 -0.5654  0.0408
 5030TIP3    H136505   1.547   3.748  15.509 -1.3228 -0.1732 -2.0203
 5030TIP3    H236506   1.607   3.633  15.432 -2.6041 -0.3810 -2.7517
 5031TIP3   OH236507   2.566   5.557   1.173  0.2622  0.1277  0.2898
 5031TIP3    H136508   2.487   5.547   1.120 -0.6128 -1.6251  1.7910
 5031TIP3    H236509   2.562   5.647   1.206 -2.1216 -0.4122  1.7342
 5032TIP3   OH236510   6.611   3.609   4.011  0.4109  0.1689 -0.0284
 5032TIP3    H136511   6.567   3.546   4.069 -0.4712 -1.8569 -2.6756
 5032TIP3    H236512   6.701   3.613   4.044 -0.0865 -0.7809  1.5455
 5033TIP3   OH236513   1.562   0.546  14.450  0.4615 -0.5418  0.2592
 5033TIP3    H136514   1.485   0.550  14.506  1.3517  0.8491  1.4470
 5033TIP3    H236515   1.629   0.597  14.496  1.6564 -0.4813 -1.4323
 5034TIP3   OH236516   6.467   3.579  11.219 -0.3476 -0.5941 -0.3337
 5034TIP3    H136517   6.507   3.550  11.137 -0.1899 -0.7260 -0.2094
 5034TIP3    H236518   6.537   3.624  11.265 -1.0409  1.6797 -1.3480
 5035TIP3   OH236519   4.188   6.363  11.631  0.0005  0.2387  0.9842
 5035TIP3    H136520   4.264   6.343  11.577  0.1626  1.3958  0.7598
 5035TIP3    H236521   4.116   6.317  11.588  0.3204  0.2755  0.3878
 5036TIP3   OH236522   5.766   6.572  15.433  0.0693 -0.1485  0.1985
 5036TIP3    H136523   5.713   6.551  15.356 -0.4353  0.9332  0.2368
 5036TIP3    H236524   5.708   6.622  15.490  0.4277 -0.9399  1.3110
 5037TIP3   OH236525   5.540   4.797  13.275  0.1911 -0.0206 -0.0696
 5037TIP3    H136526   5.528   4.861  13.206 -0.7380 -0.4914 -0.3585
 5037TIP3    H236527   5.464   4.740  13.269 -0.1157  0.1609  1.5951
 5038TIP3   OH236528   4.952   6.072  11.230  0.3610 -0.6487 -0.1165
 5038TIP3    H136529   4.875   6.070  11.287  0.2776  0.3787 -0.1843
 5038TIP3    H236530   4.917   6.069  11.141  0.4266 -0.6837 -0.1417
 5039TIP3   OH236531   5.496   1.148  13.858  0.2906  0.3816 -0.2311
 5039TIP3    H136532   5.481   1.240  13.836 -2.0789  0.5148  1.6047
 5039TIP3    H236533   5.416   1.103  13.830  1.7499 -1.3630 -1.8994
 5040TIP3   OH236534   3.154   0.843  16.631 -0.2014  0.3733 -0.3611
 5040TIP3    H136535   3.240   0.845  16.673 -0.6628 -0.9177  0.6989
 5040TIP3    H236536   3.145   0.754  16.598 -0.7064  0.8041 -1.4615
 5041TIP3   OH236537   6.209   0.513   2.401 -0.3879  0.0582  0.4055
 5041TIP3    H136538   6.261   0.581   2.358  0.5353 -0.5007  0.6127
 5041TIP3    H236539   6.119   0.534   2.378  0.0807 -1.3174 -3.5983
 5042TIP3   OH236540   0.824   0.511   1.522 -0.4325 -0.1509 -0.2039
 5042TIP3    H136541   0.832   0.417   1.538  0.1301 -0.1431 -0.4184
 5042TIP3    H236542   0.889   0.551   1.580 -0.7398  0.1172 -0.0375
 5043TIP3   OH236543   2.187   1.193  13.838  0.0173  0.1963  0.7107
 5043TIP3    H136544   2.244   1.243  13.896 -0.3297 -2.0881  3.2037
 5043TIP3    H236545   2.126   1.257  13.804  2.6674  2.3440 -0.3770
 5044TIP3   OH236546   2.149   6.414  17.094 -0.3623  0.3778 -0.1598
 5044TIP3    H136547   2.103   6.467  17.029  0.2266  1.3331  0.1908
 5044TIP3    H236548   2.214   6.365  17.043 -0.1541  0.8370 -0.3350
 5045TIP3   OH236549   1.757   3.843   1.680  0.0564 -0.2613 -0.5708
 5045TIP3    H136550   1.825   3.783   1.709 -1.8331 -2.1164  0.2743
 5045TIP3    H236551   1.729   3.889   1.759  0.9081  1.1870 -1.0684
 5046TIP3   OH236552   6.001   5.958   1.526 -0.3519  0.0592  0.4520
 5046TIP3    H136553   6.055   6.031   1.497 -0.5201  0.4303  1.0460
 5046TIP3    H236554   5.992   5.971   1.620 -2.8106  0.9548  0.1867
 5047TIP3   OH236555   1.919   6.320  17.226 -0.4131 -0.0556 -0.2509
 5047TIP3    H136556   2.011   6.347  17.230 -1.0948  2.4336  0.0609
 5047TIP3    H236557   1.914   6.261  17.151  1.4287 -0.2673 -0.2508
 5048TIP3   OH236558   5.985   0.726  11.670 -0.0318  0.1634 -0.2037
 5048TIP3    H136559   5.998   0.655  11.733  1.7088  0.7021  0.0958
 5048TIP3    H236560   5.930   0.789  11.716  0.8242  0.3311  0.6087
 5049TIP3   OH236561   3.288   2.267  11.697 -0.1649 -0.0731 -0.0049
 5049TIP3    H136562   3.243   2.184  11.684 -0.0454  0.0089 -1.0486
 5049TIP3    H236563   3.223   2.334  11.675 -0.2597  0.1177  0.8257
 5050TIP3   OH236564   2.175   2.180  10.918  0.0028 -0.5244  0.2682
 5050TIP3    H136565   2.233   2.198  10.845 -1.4941  2.1525 -0.3902
 5050TIP3    H236566   2.122   2.105  10.889  0.1651 -0.1856 -0.9468
 5051TIP3   OH236567   4.095   4.912  12.384 -0.1767 -0.1311 -0.1919
 5051TIP3    H136568   4.139   4.827  12.382 -0.8814 -0.4928 -1.4585
 5051TIP3    H236569   4.150   4.966  12.440  0.3538 -1.3836  0.5331
 5052TIP3   OH236570   5.279   4.782   5.373 -0.0576  0.1559  0.3416
 5052TIP3    H136571   5.275   4.868   5.414 -0.5345 -0.1076  0.8646
 5052TIP3    H236572   5.331   4.729   5.434 -3.3264 -1.1095  2.3239
 5053TIP3   OH236573   5.085   3.686   0.669 -0.6259 -0.2587  0.2074
 5053TIP3    H136574   5.075   3.755   0.734 -0.6259 -0.0866  0.0241
 5053TIP3    H236575   5.165   3.640   0.695  0.1870  0.7211 -0.5060
 5054TIP3   OH236576   3.094   1.725   4.042  0.3985  0.2246 -0.5366
 5054TIP3    H136577   3.001   1.748   4.038  0.9474  2.5148 -1.5093
 5054TIP3    H236578   3.134   1.798   4.089  1.8875 -0.1097 -1.2396
 5055TIP3   OH236579   5.732   2.572  15.331 -0.0748 -0.5073  0.2798
 5055TIP3    H136580   5.808   2.540  15.379  0.2006 -0.1209  0.1078
 5055TIP3    H236581   5.769   2.621  15.258 -0.4542  1.5693  1.4181
 5056TIP3   OH236582   2.498   3.877  16.408 -0.3990 -0.1448  0.7842
 5056TIP3    H136583   2.421   3.917  16.368 -0.5976 -0.1866  1.1249
 5056TIP3    H236584   2.468   3.845  16.493  0.2202  0.6892  1.3379
 5057TIP3   OH236585   3.080   2.179  12.623 -0.4791 -0.0925 -0.4299
 5057TIP3    H136586   3.172   2.177  12.647  0.4078 -0.2772 -3.4496
 5057TIP3    H236587   3.061   2.271  12.605 -0.1231 -0.3288 -2.2016
 5058TIP3   OH236588   0.504   1.679  14.026  0.3111 -0.0705 -0.2105
 5058TIP3    H136589   0.507   1.771  14.000  0.5426 -0.0948 -0.2648
 5058TIP3    H236590   0.561   1.674  14.103  0.2717 -0.1617 -0.1874
 5059TIP3   OH236591   0.924   5.184   0.023  0.1837 -0.2394 -0.0029
 5059TIP3    H136592   0.931   5.240   0.100 -2.7242  0.0068  0.2217
 5059TIP3    H236593   0.862   5.115   0.049  2.1377 -2.4802 -0.9112
 5060TIP3   OH236594   6.696   1.414   4.932  0.4228 -0.0459 -0.9043
 5060TIP3    H136595   6.640   1.336   4.929  0.7687 -0.2942 -0.8993
 5060TIP3    H236596   6.643   1.480   4.977  1.0098 -0.9864  1.2433
 5061TIP3   OH236597   5.132   6.697   1.915 -0.5056  0.4829 -0.2293
 5061TIP3    H136598   5.197   6.713   1.846 -1.3243 -0.0988 -1.1630
 5061TIP3    H236599   5.164   6.619   1.960 -0.1720  0.6332 -0.2040
 5062TIP3   OH236600   4.721   6.037  11.688 -0.2074  0.4002  0.4737
 5062TIP3    H136601   4.803   5.995  11.661 -1.1743 -3.1673  2.4974
 5062TIP3    H236602   4.749   6.115  11.737  1.7120  1.9012 -2.7121
 5063TIP3   OH236603   6.250   6.459   0.645  0.6010 -0.1865 -0.7797
 5063TIP3    H136604   6.159   6.463   0.616  0.0195 -0.1917  0.9587
 5063TIP3    H236605   6.251   6.502   0.730  1.8517 -1.8259  0.0929
 5064TIP3   OH236606   3.612   0.392   4.496 -0.2088  0.3607 -0.3541
 5064TIP3    H136607   3.561   0.391   4.415  1.4568 -3.4660 -1.6059
 5064TIP3    H236608   3.689   0.338   4.476 -0.8371 -2.8824  4.4051
 5065TIP3   OH236609   1.884   4.551   4.791  0.0378 -0.9200 -0.8022
 5065TIP3    H136610   1.810   4.573   4.848  0.6377 -0.7525 -0.0727
 5065TIP3    H236611   1.932   4.633   4.780  1.1073 -1.3831  0.2027
 5066TIP3   OH236612   5.243   3.309   0.894  0.8881  0.8243 -0.0374
 5066TIP3    H136613   5.264   3.273   0.808  0.0293 -3.5405  1.3554
 5066TIP3    H236614   5.151   3.286   0.908  0.7500  2.2209  1.7466
 5067TIP3   OH236615   1.773   1.185   0.876 -0.3770 -0.0589  0.0882
 5067TIP3    H136616   1.859   1.215   0.848 -0.0907 -0.0312  0.9611
 5067TIP3    H236617   1.711   1.242   0.829  0.0855  0.1242 -0.3052
 5068TIP3   OH236618   4.324   2.461  14.210 -0.1057 -0.4757 -0.1948
 5068TIP3    H136619   4.336   2.552  14.184 -0.8760 -1.2429 -3.7938
 5068TIP3    H236620   4.233   2.457  14.240  0.3074  0.1106  1.2473
 5069TIP3   OH236621   3.112   2.566   6.548  0.0361 -0.3283 -0.3759
 5069TIP3    H136622   3.205   2.545   6.535  0.4503  0.7536  0.6632
 5069TIP3    H236623   3.078   2.491   6.597  0.3945 -0.6435 -0.5905
 5070TIP3   OH236624   2.682   2.898   4.683  0.0595  0.2040 -0.3052
 5070TIP3    H136625   2.607   2.936   4.729  0.5758  0.3522  0.4364
 5070TIP3    H236626   2.757   2.918   4.739  0.6478  0.0097 -1.0101
 5071TIP3   OH236627   4.246   0.695  14.156  0.1164  0.3124  0.2553
 5071TIP3    H136628   4.291   0.761  14.209  0.2264  0.2984  0.1802
 5071TIP3    H236629   4.316   0.638  14.124 -0.1902 -1.2717  2.2421
 5072TIP3   OH236630   0.315   0.519  16.898 -0.2812  0.1522 -0.0933
 5072TIP3    H136631   0.345   0.544  16.811 -1.1006 -2.4685 -1.2287
 5072TIP3    H236632   0.364   0.440  16.919 -1.8351 -0.6546  0.7142
 5073TIP3   OH236633   2.553   2.583   4.417 -0.0573 -0.2375 -0.0870
 5073TIP3    H136634   2.629   2.614   4.466  0.4336 -0.1989 -0.8534
 5073TIP3    H236635   2.568   2.489   4.404  0.2520 -0.0885 -0.8977
 5074TIP3   OH236636   1.155   4.742  13.009 -0.2932  0.0603  0.6109
 5074TIP3    H136637   1.113   4.684  12.946 -0.1300  2.0640 -1.4587
 5074TIP3    H236638   1.082   4.785  13.054 -0.4053 -0.7617  1.2446
 5075TIP3   OH236639   5.706   6.515  17.183 -0.6967  0.5857 -0.4621
 5075TIP3    H136640   5.718   6.422  17.164  0.0981  1.0558 -2.4514
 5075TIP3    H236641   5.693   6.518  17.278  1.2729 -1.3738 -0.0478
 5076TIP3   OH236642   4.199   6.386   5.692 -0.1680 -0.4097 -0.2043
 5076TIP3    H136643   4.108   6.406   5.671 -0.3659  0.1370  1.0925
 5076TIP3    H236644   4.195   6.341   5.777  0.7704 -0.4201 -0.1514
 5077TIP3   OH236645   5.072   2.407  13.470 -0.0928 -0.0293  0.0708
 5077TIP3    H136646   5.112   2.337  13.522 -1.4905 -1.9940 -1.3672
 5077TIP3    H236647   5.073   2.375  13.380 -1.9068  1.2482 -0.4738
 5078TIP3   OH236648   1.394   2.777   1.862 -0.2312  0.1556 -0.2664
 5078TIP3    H136649   1.412   2.783   1.956 -0.2268 -0.4433 -0.2269
 5078TIP3    H236650   1.447   2.847   1.823 -0.3732  0.5290  0.1903
 5079TIP3   OH236651   1.062   2.113   2.539 -0.2757  0.3271  0.4092
 5079TIP3    H136652   1.014   2.196   2.537  1.3778  1.3230 -0.3318
 5079TIP3    H236653   1.075   2.091   2.447 -0.3990 -0.5905  0.6033
 5080TIP3   OH236654   5.141   1.623   5.512  0.6984  0.2537  0.0095
 5080TIP3    H136655   5.147   1.693   5.576  0.1031  0.6059 -0.3181
 5080TIP3    H236656   5.146   1.543   5.564 -2.0570  0.4830  0.7865
 5081TIP3   OH236657   6.489   6.116   0.859  1.0594  0.5044 -0.1973
 5081TIP3    H136658   6.517   6.200   0.821  0.7578 -0.2499 -2.1953
 5081TIP3    H236659   6.409   6.093   0.811 -0.1730  0.1504  1.9138
 5082TIP3   OH236660   1.931   5.373  11.778  0.1679 -0.1451 -0.1586
 5082TIP3    H136661   1.907   5.297  11.831 -1.5527  0.8994  0.6329
 5082TIP3    H236662   1.986   5.426  11.835  0.8104 -0.4556 -0.4793
 5083TIP3   OH236663   4.628   6.162  12.530 -0.2788  0.3613 -0.0009
 5083TIP3    H136664   4.614   6.238  12.474 -3.7170 -0.8104 -0.9901
 5083TIP3    H236665   4.701   6.114  12.490 -0.8189  1.0115 -1.8443
 5084TIP3   OH236666   4.461   0.884   6.678 -0.4468  0.5388  0.2323
 5084TIP3    H136667   4.495   0.840   6.600 -1.4490 -1.7480  0.9977
 5084TIP3    H236668   4.493   0.974   6.671  2.5524 -0.4876 -0.9527
 5085TIP3   OH236669   3.435   1.930  12.085  0.2487  0.5573 -0.1302
 5085TIP3    H136670   3.447   1.901  11.994  1.7020  0.3453  0.1076
 5085TIP3    H236671   3.344   1.960  12.088 -0.9214 -2.5220 -0.8027
 5086TIP3   OH236672   3.130   5.721   0.231  0.3073 -0.2523 -0.2650
 5086TIP3    H136673   3.090   5.658   0.172  0.1007 -1.5193  1.1919
 5086TIP3    H236674   3.067   5.732   0.302  1.2101  0.0396  0.5168
 5087TIP3   OH236675   2.074   2.703   6.241  0.1048 -0.3260  0.1776
 5087TIP3    H136676   2.127   2.778   6.269  0.0886 -0.7446  1.4104
 5087TIP3    H236677   2.066   2.649   6.320  0.4822 -1.8514 -0.7878
 5088TIP3   OH236678   5.025   2.822  16.504 -0.0669  0.2169  0.1312
 5088TIP3    H136679   5.095   2.880  16.536 -1.1730  1.8277 -0.2001
 5088TIP3    H236680   4.975   2.877  16.443 -0.6131 -1.4264 -0.9567
 5089TIP3   OH236681   5.225   3.514   5.384 -0.1605 -0.8137 -0.0924
 5089TIP3    H136682   5.267   3.434   5.413  0.5482 -0.9429 -1.3913
 5089TIP3    H236683   5.173   3.488   5.308 -1.2194 -0.3276  0.4361
 5090TIP3   OH236684   4.326   2.108   4.277  0.5963 -0.1627 -0.7069
 5090TIP3    H136685   4.230   2.111   4.272  0.5044  2.1788  0.6716
 5090TIP3    H236686   4.353   2.198   4.259  2.6645 -1.0341 -2.3016
 5091TIP3   OH236687   6.725   1.747  13.834  0.2128  0.4702 -0.2319
 5091TIP3    H136688   6.669   1.732  13.758 -0.7327  1.7052  0.1834
 5091TIP3    H236689   6.664   1.753  13.907  1.2065 -2.4432  0.9534
 5092TIP3   OH236690   1.317   2.514  13.888  0.3825 -0.6526  0.4539
 5092TIP3    H136691   1.389   2.551  13.938  0.7654 -0.9583  0.1263
 5092TIP3    H236692   1.355   2.488  13.805  0.0450 -1.4724  0.5416
 5093TIP3   OH236693   1.523   3.652  12.540  0.1435  0.8098 -0.5037
 5093TIP3    H136694   1.486   3.588  12.480 -0.3235  1.6200 -1.1056
 5093TIP3    H236695   1.618   3.645  12.528  0.1775 -0.7054  0.4438
 5094TIP3   OH236696   4.784   3.725  16.509  0.3562 -0.4564  0.1161
 5094TIP3    H136697   4.787   3.734  16.413 -1.8992  2.1634  0.1721
 5094TIP3    H236698   4.786   3.630  16.524 -0.9515 -1.0377 -2.6566
 5095TIP3   OH236699   3.021   2.905   5.881 -0.3546  0.1423  0.5812
 5095TIP3    H136700   3.036   2.994   5.848  3.1688 -0.3588  0.3632
 5095TIP3    H236701   3.065   2.904   5.966  2.1044 -1.9829 -0.5677
 5096TIP3   OH236702   2.135   0.008  10.653 -0.4116 -0.4306 -0.2040
 5096TIP3    H136703   2.115  -0.048  10.578  3.5896 -0.0880 -1.7950
 5096TIP3    H236704   2.157  -0.053  10.724 -2.3700 -0.7541  0.1767
 5097TIP3   OH236705   2.745   4.059  11.447  0.0625  0.5647 -0.1653
 5097TIP3    H136706   2.767   3.967  11.456 -1.9509  0.0009 -0.4128
 5097TIP3    H236707   2.724   4.070  11.354 -0.1788  1.1416 -0.0517
 5098TIP3   OH236708   0.903   2.961   1.724  0.2803  0.0287 -0.4942
 5098TIP3    H136709   0.923   2.975   1.632  1.8574 -0.1666 -0.2055
 5098TIP3    H236710   0.818   3.003   1.737 -0.4927 -0.8608 -2.2682
 5099TIP3   OH236711   0.686   2.704   4.573 -0.4978 -0.3892 -0.1273
 5099TIP3    H136712   0.608   2.683   4.624 -1.2967 -0.5444 -1.3726
 5099TIP3    H236713   0.655   2.765   4.506  0.7798  0.8178  0.3297
 5100TIP3   OH236714   3.913   0.103   4.195  0.0489  0.4540  0.1941
 5100TIP3    H136715   3.986   0.070   4.142 -1.0134 -1.6985 -0.0213
 5100TIP3    H236716   3.905   0.040   4.267 -1.8220  0.4268  0.0045
 5101TIP3   OH236717   2.991   0.441   5.370  0.2820 -0.3468 -0.2263
 5101TIP3    H136718   3.045   0.454   5.292 -1.5693  1.1059 -1.3527
 5101TIP3    H236719   2.919   0.387   5.340 -0.7641  0.7112  0.3051
 5102TIP3   OH236720   5.655   4.282   4.780 -0.2804  0.4695 -0.1963
 5102TIP3    H136721   5.680   4.370   4.754 -0.4889  0.8825  0.9278
 5102TIP3    H236722   5.562   4.276   4.759  0.1000 -0.0915 -1.8219
 5103TIP3   OH236723   4.311   6.050  13.258 -0.1873  0.1108 -0.0945
 5103TIP3    H136724   4.218   6.062  13.236 -0.4557  2.0565  1.7758
 5103TIP3    H236725   4.341   6.137  13.283  1.4195 -0.9443  1.9716
 5104TIP3   OH236726   5.061   0.646  14.318  0.1970  0.0723  0.5912
 5104TIP3    H136727   5.113   0.719  14.354  1.5885 -0.5024 -0.1709
 5104TIP3    H236728   5.085   0.571  14.372  0.6991 -0.3458 -0.1993
 5105TIP3   OH236729   3.678   3.163  13.066  0.3829  1.1391  0.1431
 5105TIP3    H136730   3.686   3.258  13.061 -0.3908  1.1816 -0.4384
 5105TIP3    H236731   3.728   3.130  12.991 -0.5996  1.1727 -0.5487
 5106TIP3   OH236732   5.773   1.642  15.179  0.1237 -0.4938 -0.0540
 5106TIP3    H136733   5.845   1.702  15.200 -0.9576  0.1593  2.1139
 5106TIP3    H236734   5.776   1.577  15.249 -1.4752 -0.3388  0.1903
 5107TIP3   OH236735   3.571   5.082   0.417 -0.2634  0.0440  0.0067
 5107TIP3    H136736   3.638   5.070   0.485 -0.9475 -1.2832  0.4809
 5107TIP3    H236737   3.489   5.055   0.459 -0.7581 -0.4956 -1.2595
 5108TIP3   OH236738   0.031   0.189   3.206  0.4119  0.4327  0.3390
 5108TIP3    H136739  -0.026   0.176   3.130 -0.0907 -3.0415  1.1602
 5108TIP3    H236740  -0.027   0.226   3.273 -0.0145  0.1570  0.1284
 5109TIP3   OH236741   5.444   6.699   3.619 -0.5056  0.3986  0.4468
 5109TIP3    H136742   5.476   6.626   3.673  0.4925  0.4524 -0.0487
 5109TIP3    H236743   5.364   6.665   3.580  1.3107 -1.5358 -1.9392
 5110TIP3   OH236744   1.679   3.901   5.429 -0.2193 -0.5850  0.6948
 5110TIP3    H136745   1.601   3.870   5.476 -0.8646  0.0033  0.0313
 5110TIP3    H236746   1.735   3.824   5.422 -1.0779 -1.1964  0.5077
 5111TIP3   OH236747   4.042   1.381  15.513 -0.8956 -0.1194  0.6441
 5111TIP3    H136748   4.137   1.389  15.519 -0.7400 -1.5453  0.5461
 5111TIP3    H236749   4.008   1.458  15.559  0.2795  1.9787 -1.7515
 5112TIP3   OH236750   6.425   5.456   4.888  0.7572  0.6529 -0.1266
 5112TIP3    H136751   6.402   5.490   4.801  0.7565  1.7273  0.2693
 5112TIP3    H236752   6.453   5.534   4.937  3.7040 -0.3471 -0.0772
 5113TIP3   OH236753   4.796   0.323   4.979  0.5529  0.0327 -0.9962
 5113TIP3    H136754   4.830   0.404   4.940 -0.2766  0.5376 -0.7166
 5113TIP3    H236755   4.832   0.253   4.926  2.2688  0.5126 -0.5168
 5114TIP3   OH236756   2.177   0.226   4.771  0.1160 -0.1011 -0.7552
 5114TIP3    H136757   2.212   0.264   4.690 -0.0298 -0.7680 -1.1391
 5114TIP3    H236758   2.171   0.300   4.831  0.6465  0.3250 -1.2100
 5115TIP3   OH236759   0.691   5.232  11.747  0.1179 -0.6512 -0.0590
 5115TIP3    H136760   0.705   5.139  11.727  1.1870 -0.0335 -2.6597
 5115TIP3    H236761   0.762   5.277  11.701 -0.4782  1.4802  0.9942
 5116TIP3   OH236762   3.138   1.441  16.614  0.2120 -0.3890  0.0201
 5116TIP3    H136763   3.144   1.358  16.661 -1.2521  0.3066  1.5551
 5116TIP3    H236764   3.075   1.425  16.545  2.1192 -1.3225 -1.6052
 5117TIP3   OH236765   1.504   4.184   3.575 -0.2606  0.0915  0.6869
 5117TIP3    H136766   1.561   4.153   3.504 -0.4106 -1.0470  1.0446
 5117TIP3    H236767   1.548   4.155   3.655  0.2728  1.9782  1.1188
 5118TIP3   OH236768   4.796   3.155   3.384  0.0460  0.7710 -0.0959
 5118TIP3    H136769   4.788   3.243   3.346  0.5866  0.1798 -1.6994
 5118TIP3    H236770   4.866   3.163   3.449  0.5818  1.3925 -0.7338
 5119TIP3   OH236771   4.108   1.464   2.417  0.1237  0.5445 -0.6747
 5119TIP3    H136772   4.032   1.455   2.359  0.9988  2.0247 -2.1309
 5119TIP3    H236773   4.070   1.481   2.503 -1.2217 -2.0535 -0.6579
 5120TIP3   OH236774   1.946   3.056   0.669  0.8600 -0.4795 -0.1786
 5120TIP3    H136775   1.962   2.962   0.674  1.3413 -0.4333 -0.7289
 5120TIP3    H236776   1.919   3.072   0.579 -0.3323 -0.2453  0.2066
 5121TIP3   OH236777   4.357   4.500  16.370 -0.3262 -0.0892 -0.1165
 5121TIP3    H136778   4.279   4.554  16.386  0.0647 -0.0776  2.0695
 5121TIP3    H236779   4.378   4.515  16.278 -2.5381  0.3731 -0.6246
 5122TIP3   OH236780   1.035   5.241   1.163  0.1505  1.2648  0.1259
 5122TIP3    H136781   0.977   5.167   1.181  1.7767 -0.0720  0.1317
 5122TIP3    H236782   1.047   5.284   1.248  0.2813  0.7089  0.3885
 5123TIP3   OH236783   0.213   4.731  12.891  0.2391  0.2616 -0.5670
 5123TIP3    H136784   0.293   4.721  12.942  0.2694 -0.7313 -0.7910
 5123TIP3    H236785   0.242   4.756  12.804  0.3276 -0.2971 -0.7031
 5124TIP3   OH236786   5.880   1.945  11.926 -0.3249 -0.0174  0.0355
 5124TIP3    H136787   5.912   1.855  11.927 -0.9859 -0.2605 -0.2957
 5124TIP3    H236788   5.871   1.969  12.018 -1.5070 -0.7897  0.1436
 5125TIP3   OH236789   6.753   1.155  15.403  0.3391  0.5931 -0.0946
 5125TIP3    H136790   6.706   1.227  15.445  0.3156 -0.6202  2.0751
 5125TIP3    H236791   6.697   1.130  15.329 -0.7992  1.3081  0.4967
 5126TIP3   OH236792   0.576   3.854  13.418 -0.4495 -0.2266  0.1366
 5126TIP3    H136793   0.507   3.854  13.485 -1.9322  1.3008 -1.2912
 5126TIP3    H236794   0.648   3.902  13.458 -1.8302  1.9053  0.2257
 5127TIP3   OH236795   0.294   2.201  17.116 -0.1384  0.0079  0.0065
 5127TIP3    H136796   0.385   2.230  17.115  0.2356 -0.9887  1.6264
 5127TIP3    H236797   0.250   2.263  17.174  0.1568 -1.1591  1.5411
 5128TIP3   OH236798   0.876   1.302  14.694 -0.3925 -0.6732 -0.5810
 5128TIP3    H136799   0.899   1.382  14.647  1.6981 -1.3728 -0.8641
 5128TIP3    H236800   0.803   1.327  14.751  1.6902  2.1044  1.1288
 5129TIP3   OH236801   5.112   4.839   4.504 -0.1168  0.3110 -0.2097
 5129TIP3    H136802   5.018   4.824   4.507  0.4119 -4.4623  2.8200
 5129TIP3    H236803   5.144   4.814   4.591  4.1115  0.4254 -1.4740
 5130TIP3   OH236804   1.024   2.135  17.082  0.1771 -0.1455 -0.2033
 5130TIP3    H136805   0.939   2.119  17.041  0.5177 -1.6379 -0.3706
 5130TIP3    H236806   1.004   2.182  17.163 -0.6194  1.5218 -1.3199
 5131TIP3   OH236807   3.628   2.392  14.991  0.5591 -0.0256 -0.2447
 5131TIP3    H136808   3.712   2.349  15.004  1.1147  0.7197 -1.1636
 5131TIP3    H236809   3.580   2.334  14.932  0.2364 -0.6653  0.6233
 5132TIP3   OH236810   3.478   5.510  15.790  0.1723 -0.5453  0.4242
 5132TIP3    H136811   3.427   5.461  15.725 -1.8721 -0.0568  1.5584
 5132TIP3    H236812   3.502   5.591  15.745 -1.1010 -0.2697  0.1976
 5133TIP3   OH236813   2.328   4.973   2.596  0.3094  0.0215  0.1224
 5133TIP3    H136814   2.303   4.902   2.655 -0.8878 -0.1179 -0.5228
 5133TIP3    H236815   2.245   5.004   2.560  1.0079  0.0616 -1.5314
 5134TIP3   OH236816   4.444   0.936   6.271 -0.5931 -0.2831  0.1024
 5134TIP3    H136817   4.357   0.976   6.272 -0.2413  0.4988  1.3956
 5134TIP3    H236818   4.502   1.005   6.238 -0.4743 -0.8939 -1.0349
 5135TIP3   OH236819   0.672   5.023   2.900  0.7424  0.3768 -0.5494
 5135TIP3    H136820   0.762   4.995   2.916  1.0456  0.3885 -2.0706
 5135TIP3    H236821   0.681   5.107   2.853 -0.0761  0.7688 -0.0273
 5136TIP3   OH236822   6.670   4.216  10.465 -0.7592  0.1003 -0.6919
 5136TIP3    H136823   6.681   4.172  10.380  1.8219 -1.1579  0.1998
 5136TIP3    H236824   6.704   4.304  10.450  1.2889 -0.6259 -0.6162
 5137TIP3   OH236825   6.097   2.969  14.855  0.3178 -0.1969  0.0091
 5137TIP3    H136826   6.175   2.983  14.909 -0.7083 -0.5913  1.6543
 5137TIP3    H236827   6.036   2.923  14.912 -1.2047  0.2593 -1.1831
 5138TIP3   OH236828   6.640   2.538  13.924 -0.2325 -0.0191 -0.0342
 5138TIP3    H136829   6.652   2.623  13.968 -0.8039 -0.5623  1.2029
 5138TIP3    H236830   6.726   2.519  13.887  1.0566 -0.7231  3.0386
 5139TIP3   OH236831   1.943   5.865   0.942 -0.4044  0.3283 -0.2963
 5139TIP3    H136832   1.941   5.834   0.852 -1.4186  0.1206 -0.2134
 5139TIP3    H236833   1.953   5.786   0.995 -0.2764  0.4048 -0.2061
 5140TIP3   OH236834   2.384   1.444   6.801  0.1894 -0.4184 -0.2082
 5140TIP3    H136835   2.371   1.370   6.742  0.3519  0.8614 -1.9314
 5140TIP3    H236836   2.473   1.474   6.782  0.2543  0.0120  0.7204
 5141TIP3   OH236837   5.651   0.889  14.145 -0.2256  0.1408 -0.1227
 5141TIP3    H136838   5.607   0.843  14.073 -1.2364  0.2220  0.4258
 5141TIP3    H236839   5.720   0.939  14.102  0.3313 -1.1699 -0.8353
 5142TIP3   OH236840   4.160   2.901  16.129  0.2134  0.5455 -0.0734
 5142TIP3    H136841   4.108   2.868  16.056  1.7941  0.1148 -1.0590
 5142TIP3    H236842   4.129   2.852  16.205 -0.5486  0.0441 -0.6987
 5143TIP3   OH236843   4.199   4.414   0.319  0.1813  0.2597  0.1294
 5143TIP3    H136844   4.272   4.416   0.258  0.2786  2.2236  0.2290
 5143TIP3    H236845   4.121   4.404   0.264  0.4002  0.0613 -0.1427
 5144TIP3   OH236846   2.095   4.703  16.565  0.1458  0.4601 -0.2157
 5144TIP3    H136847   2.182   4.734  16.590  1.0898 -2.5844  0.6548
 5144TIP3    H236848   2.048   4.695  16.649 -0.8408  1.5514 -0.6311
 5145TIP3   OH236849   0.437   5.416  11.834  0.0229 -0.0799  0.4209
 5145TIP3    H136850   0.469   5.376  11.914 -0.1356  0.2724  0.6614
 5145TIP3    H236851   0.510   5.470  11.803  0.1320 -0.3191  0.2516
 5146TIP3   OH236852   4.100   5.501  15.109 -0.5468 -0.2966 -0.2120
 5146TIP3    H136853   4.056   5.533  15.187  1.6294  0.8791  0.6211
 5146TIP3    H236854   4.088   5.406  15.111 -1.6953 -0.1433  0.7859
 5147TIP3   OH236855   0.011   4.269   5.459 -0.1442  0.1098  0.4974
 5147TIP3    H136856  -0.077   4.306   5.461 -0.4152 -0.5167  2.3872
 5147TIP3    H236857   0.069   4.342   5.482 -0.3314  0.1451  0.8518
 5148TIP3   OH236858   5.535   2.698   5.994 -0.0064 -0.0254 -0.4104
 5148TIP3    H136859   5.561   2.708   6.085 -1.3985 -1.2344  0.1639
 5148TIP3    H236860   5.604   2.742   5.944  0.4632  1.2070  1.2351
 5149TIP3   OH236861   5.865   3.245   1.442 -0.0939 -0.1714 -0.0705
 5149TIP3    H136862   5.802   3.182   1.478  0.9311 -1.9964 -1.2961
 5149TIP3    H236863   5.950   3.208   1.466  0.5748 -0.3938 -2.5556
 5150TIP3   OH236864   3.179   6.674  16.786  0.0465 -0.4041  0.4209
 5150TIP3    H136865   3.198   6.624  16.707  0.3744  1.4628 -0.7691
 5150TIP3    H236866   3.238   6.750  16.780 -0.1864 -0.0308  2.2871
 5151TIP3   OH236867   5.809   2.928  11.473 -0.8446 -0.0834  0.6574
 5151TIP3    H136868   5.787   3.007  11.424  0.3399 -1.1811 -1.8693
 5151TIP3    H236869   5.724   2.893  11.501 -1.5245  1.0631  0.1071
 5152TIP3   OH236870   5.887   5.936   2.916 -0.3812 -0.1485 -0.1449
 5152TIP3    H136871   5.952   5.985   2.866 -0.5244 -2.2502 -2.5940
 5152TIP3    H236872   5.805   5.984   2.902 -0.0717  0.3130 -0.4024
 5153TIP3   OH236873   3.224   0.423   2.414 -0.1019 -0.3977 -0.2068
 5153TIP3    H136874   3.226   0.506   2.366 -0.9147 -0.2340  0.0285
 5153TIP3    H236875   3.158   0.436   2.483 -2.6922 -2.2857 -2.1295
 5154TIP3   OH236876   0.748   3.482   0.556  0.5288 -0.5965 -0.4132
 5154TIP3    H136877   0.655   3.476   0.535  0.7067 -1.4973 -1.0016
 5154TIP3    H236878   0.785   3.536   0.485  0.1796  1.2816  0.7828
 5155TIP3   OH236879   5.871   5.145   0.172 -0.1970  0.8633 -0.0094
 5155TIP3    H136880   5.837   5.232   0.195  1.7909  1.5985  0.3417
 5155TIP3    H236881   5.825   5.085   0.231 -1.2571  1.7169  0.0637
 5156TIP3   OH236882   4.078   2.738  13.956  0.0720 -0.5699  0.8500
 5156TIP3    H136883   4.143   2.806  13.935  2.0973 -2.8195 -0.7724
 5156TIP3    H236884   4.097   2.714  14.046 -0.8456  1.1091  1.5400
 5157TIP3   OH236885   5.597   1.370  14.193  0.5762  0.3216  1.1172
 5157TIP3    H136886   5.535   1.307  14.231  0.0084  0.2587  0.1230
 5157TIP3    H236887   5.545   1.449  14.180  1.1527  0.8339  1.8578
 5158TIP3   OH236888   2.557   2.013   6.510 -0.1896  0.2678  0.8234
 5158TIP3    H136889   2.593   1.946   6.452 -2.0154 -1.7170  1.8095
 5158TIP3    H236890   2.629   2.034   6.570  0.5048 -0.6137  0.3176
 5159TIP3   OH236891   0.322   0.593   0.526 -0.3816  0.4742 -0.4341
 5159TIP3    H136892   0.404   0.619   0.567 -0.4577  1.1031 -0.6610
 5159TIP3    H236893   0.338   0.601   0.432 -1.3171  2.6740 -0.4677
 5160TIP3   OH236894   1.831   0.913  15.356 -0.0099  0.2119 -0.4500
 5160TIP3    H136895   1.905   0.968  15.380 -0.1638  0.7014 -1.0763
 5160TIP3    H236896   1.796   0.882  15.440 -1.2139  2.7431  0.0707
 5161TIP3   OH236897   6.652   2.231   4.331  0.1682 -0.7677 -0.3942
 5161TIP3    H136898   6.667   2.172   4.257 -0.5212  0.9427 -1.9534
 5161TIP3    H236899   6.568   2.202   4.367  0.2361 -1.2528 -0.6081
 5162TIP3   OH236900   6.498   3.760  12.395  0.3207 -0.4384  0.2969
 5162TIP3    H136901   6.594   3.754  12.397  0.4255  1.1046  0.6988
 5162TIP3    H236902   6.472   3.772  12.486 -0.3768 -1.9690  0.3384
 5163TIP3   OH236903   5.010   5.612   3.937 -0.3930 -0.2228  0.5606
 5163TIP3    H136904   5.070   5.594   3.865 -0.5374  0.7577  0.1809
 5163TIP3    H236905   4.978   5.701   3.921 -1.1869 -0.3537  1.2965
 5164TIP3   OH236906   5.562   3.760   0.580 -0.1762  0.4316 -0.1062
 5164TIP3    H136907   5.609   3.841   0.563  0.8038  0.0748  0.7632
 5164TIP3    H236908   5.631   3.694   0.589 -0.9819 -0.7175 -1.7979
 5165TIP3   OH236909   0.781   2.690   3.413  0.2474  0.7966 -0.3079
 5165TIP3    H136910   0.805   2.770   3.460  0.8281  0.9699 -0.8809
 5165TIP3    H236911   0.698   2.712   3.370 -0.9938  0.1882  1.6975
 5166TIP3   OH236912   4.389   1.430   4.709 -0.0292 -0.0478  0.1808
 5166TIP3    H136913   4.326   1.370   4.667  0.2717  0.7005 -1.4229
 5166TIP3    H236914   4.473   1.386   4.698  0.1366  0.4515 -0.6321
 5167TIP3   OH236915   0.278   5.242   5.063 -0.4942 -0.1431 -0.0558
 5167TIP3    H136916   0.247   5.216   5.150 -2.3018 -0.6593 -0.8245
 5167TIP3    H236917   0.214   5.306   5.033 -1.2839 -1.7395 -1.9759
 5168TIP3   OH236918   1.639   5.661   0.601 -0.0070 -0.7407 -0.6087
 5168TIP3    H136919   1.577   5.726   0.568  0.0711 -0.0951  0.4913
 5168TIP3    H236920   1.620   5.583   0.549 -3.0187 -1.1651  0.9016
 5169TIP3   OH236921   4.386   5.350  14.452 -0.1039 -0.1996 -0.4969
 5169TIP3    H136922   4.302   5.303  14.450 -0.1653 -0.0731 -1.2421
 5169TIP3    H236923   4.433   5.313  14.527 -1.5240  0.9574  1.0294
 5170TIP3   OH236924   4.341   6.001  11.183 -0.3311 -0.5382  0.0777
 5170TIP3    H136925   4.429   6.010  11.145 -0.3084  1.3535  0.4983
 5170TIP3    H236926   4.298   5.936  11.127  1.1464 -1.1041 -0.4646
 5171TIP3   OH236927   3.068   6.101  13.672  0.4012  0.0970 -0.1542
 5171TIP3    H136928   3.161   6.124  13.677  0.4736  0.3153 -1.7772
 5171TIP3    H236929   3.034   6.158  13.602 -1.4109  1.4317  1.6940
 5172TIP3   OH236930   1.674   5.292   3.065 -0.4212 -0.0498 -0.1169
 5172TIP3    H136931   1.670   5.332   2.978 -0.8411  2.0410  0.8080
 5172TIP3    H236932   1.744   5.227   3.059 -1.1555 -0.7389 -2.2961
 5173TIP3   OH236933   4.393   4.036   0.532 -0.0110  0.2717  0.4242
 5173TIP3    H136934   4.356   3.963   0.581 -0.5108  0.8854  0.9823
 5173TIP3    H236935   4.320   4.098   0.523  0.2176  0.4228 -0.6146
 5174TIP3   OH236936   1.349   6.664   1.834 -0.2544  0.1344  0.2717
 5174TIP3    H136937   1.355   6.684   1.928  0.3858  0.4953  0.1552
 5174TIP3    H236938   1.261   6.692   1.809 -0.4250  0.0428  0.7624
 5175TIP3   OH236939   3.084   6.647   2.688  0.0663  0.4146 -0.3707
 5175TIP3    H136940   3.085   6.624   2.781  0.2821  1.9912  0.0484
 5175TIP3    H236941   3.127   6.732   2.684  0.9284 -0.0478 -2.0508
 5176TIP3   OH236942   1.251   6.618  12.121  0.2949 -0.1650 -0.1408
 5176TIP3    H136943   1.187   6.636  12.190 -1.3701  0.1482 -1.7031
 5176TIP3    H236944   1.260   6.522  12.122  2.8269 -0.0347  2.6283
 5177TIP3   OH236945   1.063   3.045  14.145  0.3175 -0.3622 -0.0984
 5177TIP3    H136946   0.994   2.992  14.186 -1.0963  0.3427 -1.4568
 5177TIP3    H236947   1.087   2.995  14.067  1.9028 -0.9561  0.7368
 5178TIP3   OH236948   0.738   2.254   0.150 -0.2943  0.2287  0.1763
 5178TIP3    H136949   0.693   2.319   0.204 -0.9641  0.9126 -1.1644
 5178TIP3    H236950   0.680   2.178   0.151  0.1129 -0.0940  1.0959
 5179TIP3   OH236951   1.605   1.578   0.323 -0.1969 -0.0764 -0.5562
 5179TIP3    H136952   1.676   1.542   0.376  0.4221 -0.2014 -1.4524
 5179TIP3    H236953   1.641   1.583   0.235  0.0252  3.4505 -0.3950
 5180TIP3   OH236954   1.183   2.619  17.068  0.2113 -0.5020 -0.2829
 5180TIP3    H136955   1.268   2.649  17.102 -0.1470 -1.2993  1.3603
 5180TIP3    H236956   1.168   2.535  17.110 -0.2975 -1.5443 -2.4077
 5181TIP3   OH236957   6.241   4.472   3.078  0.0011  0.7144 -0.0557
 5181TIP3    H136958   6.225   4.389   3.034  2.2996  0.9410 -1.4674
 5181TIP3    H236959   6.287   4.448   3.159  1.4735  0.5809 -0.8860
 5182TIP3   OH236960   0.521   4.076  10.866  0.2557  0.2740  0.2331
 5182TIP3    H136961   0.529   4.156  10.814 -0.1923  1.0428  1.2914
 5182TIP3    H236962   0.595   4.022  10.839  0.6410  1.0946 -0.4157
 5183TIP3   OH236963   4.434   1.357  14.147 -0.0231 -0.5387 -0.3606
 5183TIP3    H136964   4.508   1.412  14.171 -1.2115  0.9524 -0.0122
 5183TIP3    H236965   4.457   1.322  14.061  1.1462 -0.2420 -0.1803
 5184TIP3   OH236966   6.628   5.103  10.246  0.2265 -0.0828 -0.4800
 5184TIP3    H136967   6.568   5.123  10.318 -0.8895 -1.0094 -1.1152
 5184TIP3    H236968   6.709   5.149  10.269 -0.5216  0.7040  0.7044
 5185TIP3   OH236969   4.516   3.372   3.392 -0.0663  0.0945  0.4290
 5185TIP3    H136970   4.452   3.440   3.412 -0.3092 -0.9559  3.8019
 5185TIP3    H236971   4.598   3.404   3.429  0.3635 -0.4270 -0.0552
 5186TIP3   OH236972   6.403   3.051   2.707  0.0680  0.0600  0.2699
 5186TIP3    H136973   6.334   3.112   2.732  0.4964  0.3315  0.8024
 5186TIP3    H236974   6.452   3.035   2.788  0.8421  0.1416 -0.1747
 5187TIP3   OH236975   0.746   2.188  15.219 -0.6678 -0.4939  0.3601
 5187TIP3    H136976   0.743   2.278  15.252  0.9079 -0.6086  0.8759
 5187TIP3    H236977   0.767   2.196  15.126 -1.8359 -0.3024  0.0939
 5188TIP3   OH236978   2.930   1.361   3.778  0.0557  0.0618 -0.2728
 5188TIP3    H136979   2.916   1.270   3.753  0.6820 -0.1719  0.2069
 5188TIP3    H236980   2.972   1.356   3.864  0.8604  0.7887 -0.6150
 5189TIP3   OH236981   2.386   0.969  15.936 -0.1761 -0.4755 -0.2025
 5189TIP3    H136982   2.336   0.954  15.856 -2.7114 -0.2412  1.2400
 5189TIP3    H236983   2.443   0.892  15.943  0.5615 -0.2204 -2.4757
 5190TIP3   OH236984   5.100   5.852  15.144 -0.3517 -0.3347  0.6109
 5190TIP3    H136985   5.022   5.838  15.198  1.4482  1.0697  3.8771
 5190TIP3    H236986   5.082   5.932  15.096 -1.6410 -1.1037 -0.2536
 5191TIP3   OH236987   4.941   6.446   4.985  0.3604  0.3264 -0.3555
 5191TIP3    H136988   4.927   6.425   4.892 -0.0277 -1.5270  0.0751
 5191TIP3    H236989   5.032   6.475   4.990  0.3596  0.5313 -1.3267
 5192TIP3   OH236990   0.593   0.135  16.707 -0.3296 -0.1298  0.2159
 5192TIP3    H136991   0.532   0.205  16.732 -0.6429 -0.3427  0.0527
 5192TIP3    H236992   0.615   0.092  16.790  0.8378  0.9245  0.5001
 5193TIP3   OH236993   6.455   1.229   0.944  0.2378  0.2887 -0.0667
 5193TIP3    H136994   6.464   1.201   0.853 -0.2362 -0.4208  0.0913
 5193TIP3    H236995   6.461   1.148   0.994  0.6571  0.6936  0.5510
 5194TIP3   OH236996   4.219   1.572  14.954  0.1720 -0.3663  0.3014
 5194TIP3    H136997   4.165   1.633  14.904  0.6958 -1.8001 -2.1909
 5194TIP3    H236998   4.280   1.627  15.002 -0.8936  1.1210  0.0112
 5195TIP3   OH236999   3.909   2.451   2.629  0.0969  0.4004  0.0647
 5195TIP3    H137000   3.859   2.533   2.637 -0.5748 -0.1122  1.5263
 5195TIP3    H237001   3.949   2.439   2.715  1.5443  0.0152 -0.6345
 5196TIP3   OH237002   1.227   4.936  10.596 -0.1737 -0.2758  0.0370
 5196TIP3    H137003   1.282   4.926  10.674  0.0015  1.1725  0.1201
 5196TIP3    H237004   1.235   4.851  10.551 -0.1243 -1.0714  1.4723
 5197TIP3   OH237005   4.139   3.932  11.501 -0.1582  0.0793  0.4918
 5197TIP3    H137006   4.124   4.021  11.531 -1.3791  0.2703 -0.5958
 5197TIP3    H237007   4.224   3.935  11.458 -1.7307  1.7198 -2.8761
 5198TIP3   OH237008   4.553   2.947  14.256 -0.1147 -0.5665  0.1853
 5198TIP3    H137009   4.635   2.913  14.221  0.5563  0.5867  0.5927
 5198TIP3    H237010   4.565   2.944  14.351 -0.0695  0.6803  0.2399
 5199TIP3   OH237011   6.106   5.471  15.955  0.0253  0.1251  0.2357
 5199TIP3    H137012   6.196   5.439  15.962 -0.2620 -0.9655 -0.8050
 5199TIP3    H237013   6.113   5.550  15.902  0.2685 -0.4774 -0.6429
 5200TIP3   OH237014   1.741   4.410   0.419  0.4219  0.3245  0.5357
 5200TIP3    H137015   1.804   4.338   0.414 -0.3357 -0.3244  0.1689
 5200TIP3    H237016   1.787   4.484   0.379  0.4141 -0.5395 -1.1467
 5201TIP3   OH237017   4.568   5.076   2.216  0.3283 -0.2553 -0.1478
 5201TIP3    H137018   4.548   5.122   2.297 -0.9166  0.1723 -0.6638
 5201TIP3    H237019   4.656   5.103   2.192 -0.7006  2.7187 -0.9583
 5202TIP3   OH237020   2.319   2.558  16.901  0.7721 -0.3481  0.4449
 5202TIP3    H137021   2.275   2.527  16.822 -2.0819 -0.7053  2.0441
 5202TIP3    H237022   2.363   2.480  16.936  2.8103  0.0065 -1.1673
 5203TIP3   OH237023   5.288   1.140   4.027  0.3733 -0.3054 -0.3137
 5203TIP3    H137024   5.203   1.164   3.989  0.9642  1.1501 -0.7953
 5203TIP3    H237025   5.287   1.044   4.029 -1.0906 -0.3241 -0.7441
 5204TIP3   OH237026   4.069   3.897  12.207 -0.4391  0.2217  0.0034
 5204TIP3    H137027   4.111   3.888  12.122 -0.1175 -0.1395  0.1966
 5204TIP3    H237028   4.024   3.981  12.203 -0.7694  0.0152 -0.6677
 5205TIP3   OH237029   2.402   4.482   2.997  0.2133 -0.2631 -0.4050
 5205TIP3    H137030   2.494   4.504   3.009  0.1580 -0.3269  0.1625
 5205TIP3    H237031   2.402   4.408   2.937  0.4917  0.1991 -0.9823
 5206TIP3   OH237032   0.053   2.896   3.641 -0.1733 -0.1710  0.0452
 5206TIP3    H137033   0.117   2.825   3.630 -1.0251 -1.0824  0.8340
 5206TIP3    H237034   0.062   2.921   3.733 -1.1914 -0.5515  0.2536
 5207TIP3   OH237035   1.186   3.784   4.730 -0.6128  0.4475  0.2445
 5207TIP3    H137036   1.210   3.871   4.761  0.5417  0.3439 -0.3217
 5207TIP3    H237037   1.267   3.747   4.696 -0.7037 -1.5083  1.9700
 5208TIP3   OH237038   2.247   6.540  12.356 -0.3623  0.9104  0.7120
 5208TIP3    H137039   2.196   6.474  12.403 -1.0276  0.7062 -0.2575
 5208TIP3    H237040   2.183   6.609  12.336 -0.2699  0.6687 -0.4870
 5209TIP3   OH237041   1.459   1.478  12.355  0.4900  0.1775 -0.5877
 5209TIP3    H137042   1.506   1.471  12.438 -0.2369 -0.4363 -0.2124
 5209TIP3    H237043   1.514   1.534  12.300  0.6114  1.2391  0.5740
 5210TIP3   OH237044   6.340   3.171  12.746  0.4587 -0.5232  0.0137
 5210TIP3    H137045   6.370   3.136  12.662  0.2519 -2.9654  0.8726
 5210TIP3    H237046   6.412   3.154  12.806  0.2963  0.4850  0.5121
 5211TIP3   OH237047   0.126   6.496   1.991 -0.1242  0.0775 -0.4842
 5211TIP3    H137048   0.031   6.480   1.984 -0.5226  2.0786 -0.3354
 5211TIP3    H237049   0.156   6.496   1.900  0.0515 -2.0130 -0.4727
 5212TIP3   OH237050   5.829   0.089   0.682 -0.3507  0.5242 -0.5123
 5212TIP3    H137051   5.779   0.170   0.676  0.4873  1.1653  0.7135
 5212TIP3    H237052   5.766   0.022   0.708 -0.9523  0.8825 -1.0470
 5213TIP3   OH237053   1.677   4.902  13.663  0.0905 -0.6237  0.0080
 5213TIP3    H137054   1.671   4.812  13.697  0.8439 -0.7968 -0.2945
 5213TIP3    H237055   1.672   4.892  13.568  2.4041 -0.5862 -0.1644
 5214TIP3   OH237056   5.125   0.014  14.447  0.0179 -0.2659 -0.0786
 5214TIP3    H137057   5.128   0.097  14.398  0.6609 -0.5828 -0.5907
 5214TIP3    H237058   5.215  -0.018  14.444 -0.4712 -1.6314 -1.0170
 5215TIP3   OH237059   3.710   5.043   1.708  0.0078 -0.1251 -0.5968
 5215TIP3    H137060   3.646   4.997   1.653 -0.8680 -0.2884  0.5200
 5215TIP3    H237061   3.670   5.043   1.795  0.5980  1.5826 -0.2968
 5216TIP3   OH237062   6.644   0.740  12.652  0.2688 -0.3125 -0.6105
 5216TIP3    H137063   6.558   0.779  12.638  0.0218 -0.5965  0.1000
 5216TIP3    H237064   6.652   0.674  12.584 -0.0910 -0.3142 -0.6525
 5217TIP3   OH237065   0.594   1.093   1.131 -0.5412 -0.1872 -0.0064
 5217TIP3    H137066   0.521   1.112   1.073 -0.6066 -0.3497  0.0228
 5217TIP3    H237067   0.672   1.117   1.080 -0.6429  0.6348  0.2163
 5218TIP3   OH237068   5.308   1.772   1.682  0.3692  0.1411 -0.2877
 5218TIP3    H137069   5.228   1.768   1.734  0.4956  0.1438 -0.0906
 5218TIP3    H237070   5.286   1.728   1.600 -0.2785  1.4272 -0.8240
 5219TIP3   OH237071   6.635   0.854   5.444 -0.2673  0.3739  0.1140
 5219TIP3    H137072   6.580   0.922   5.405  0.9726  0.5599 -1.4305
 5219TIP3    H237073   6.577   0.809   5.506 -1.8250  1.2296 -0.6507
 5220TIP3   OH237074   6.270   1.643   3.329  0.1238  0.5134  0.4588
 5220TIP3    H137075   6.328   1.641   3.405  0.6167  2.3807  0.1744
 5220TIP3    H237076   6.181   1.640   3.366  0.3222 -1.9735  0.9107
 5221TIP3   OH237077   2.910   3.343  13.279  0.3687  0.3580 -0.3695
 5221TIP3    H137078   2.922   3.436  13.261  2.2703 -0.0679 -1.7074
 5221TIP3    H237079   2.978   3.300  13.226 -0.9370 -1.8423 -0.3707
 5222TIP3   OH237080   2.222   0.922   1.303 -0.2853  0.1956  0.1513
 5222TIP3    H137081   2.252   0.863   1.373 -1.1991  1.1650  1.4130
 5222TIP3    H237082   2.184   0.863   1.237 -2.8702 -0.6407  2.1884
 5223TIP3   OH237083   0.138   1.506  14.974 -0.1269  0.5301  0.0558
 5223TIP3    H137084   0.081   1.441  15.015 -0.7593  1.7116  1.1192
 5223TIP3    H237085   0.192   1.538  15.046  3.0022 -1.5490 -1.1233
 5224TIP3   OH237086   0.322   2.996  16.933  0.4967 -0.6934 -0.3410
 5224TIP3    H137087   0.391   3.063  16.936  0.2431 -0.4615  0.4956
 5224TIP3    H237088   0.350   2.930  16.997 -0.3690 -0.2814  0.4902
 5225TIP3   OH237089   2.173   0.917   4.463  0.3339  0.1508  0.2257
 5225TIP3    H137090   2.114   0.850   4.498  2.2540 -1.5882  0.3703
 5225TIP3    H237091   2.192   0.888   4.374 -0.9099  2.0323 -0.6928
 5226TIP3   OH237092   1.716   6.224  10.599  0.6203 -0.1382  0.7664
 5226TIP3    H137093   1.649   6.200  10.664  1.9550  2.0580  3.1599
 5226TIP3    H237094   1.796   6.184  10.632  1.3486  1.0955  0.5289
 5227TIP3   OH237095   5.606   3.372  10.675 -0.0020 -0.0034  0.5973
 5227TIP3    H137096   5.611   3.373  10.770  1.5639 -0.2145  0.5322
 5227TIP3    H237097   5.638   3.286  10.649  1.9069  0.8738 -0.1865
 5228TIP3   OH237098   1.645   1.633   6.435  0.7661  0.4882  0.3573
 5228TIP3    H137099   1.617   1.548   6.400 -1.1370  1.1179  0.2337
 5228TIP3    H237100   1.680   1.679   6.359  2.0283 -0.2294  0.4680
 5229TIP3   OH237101   3.427   1.461   0.671 -0.5049 -0.2112  0.1782
 5229TIP3    H137102   3.342   1.419   0.656 -0.8958  0.2802  0.9569
 5229TIP3    H237103   3.413   1.518   0.746  0.2693  0.6006 -0.2689
 5230TIP3   OH237104   4.104   3.956  14.746  0.0671 -0.0559 -0.1580
 5230TIP3    H137105   4.030   3.997  14.790 -0.0764 -0.0337 -0.4188
 5230TIP3    H237106   4.139   4.024  14.689  2.2868  1.0292  2.2807
 5231TIP3   OH237107   6.633   0.505  11.549  0.2346 -0.0795 -0.0076
 5231TIP3    H137108   6.603   0.481  11.462  0.2223 -0.5339  0.1195
 5231TIP3    H237109   6.600   0.594  11.562  2.3152  0.9778 -1.4427
 5232TIP3   OH237110   3.800   3.977   6.225 -1.0728 -0.1461 -0.1503
 5232TIP3    H137111   3.741   4.051   6.215 -1.2391 -0.0707  1.2187
 5232TIP3    H237112   3.744   3.905   6.254 -0.8722 -0.7501 -1.2248
 5233TIP3   OH237113   2.160   2.402   3.814 -0.0899  0.0084  0.0603
 5233TIP3    H137114   2.222   2.419   3.742  0.0019  0.4838  0.2496
 5233TIP3    H237115   2.209   2.425   3.893 -0.5622  0.5474  0.2010
 5234TIP3   OH237116   6.530   2.965  10.699  0.0574 -0.0919 -0.5300
 5234TIP3    H137117   6.526   3.060  10.691 -0.4982  0.0121  0.8718
 5234TIP3    H237118   6.624   2.946  10.706  0.0729  0.6134  1.8350
 5235TIP3   OH237119   4.222   2.532   1.880  0.2616  0.8651 -0.4014
 5235TIP3    H137120   4.132   2.538   1.913  0.2217  0.0261 -0.3256
 5235TIP3    H237121   4.276   2.557   1.955  0.1040  1.0854 -0.3585
 5236TIP3   OH237122   2.502   0.383  15.724 -0.7523 -0.0320 -0.6865
 5236TIP3    H137123   2.446   0.384  15.647  0.2431  0.4563 -1.4291
 5236TIP3    H237124   2.586   0.349  15.693 -0.2723  0.3666  0.1293
 5237TIP3   OH237125   3.648   0.857   2.510  0.0636 -0.5870 -0.2001
 5237TIP3    H137126   3.590   0.925   2.474 -0.4936 -1.9714 -2.0875
 5237TIP3    H237127   3.707   0.836   2.437  1.1327 -1.1512  0.8083
 5238TIP3   OH237128   1.466   4.822  16.327  0.2315  0.1082 -0.6135
 5238TIP3    H137129   1.428   4.877  16.396 -0.9942 -1.6815  0.2193
 5238TIP3    H237130   1.420   4.849  16.247  0.7259  1.2911 -0.5259
 5239TIP3   OH237131   5.127   1.498  14.423  0.0250  0.2033  0.2431
 5239TIP3    H137132   5.166   1.441  14.357 -0.4813  0.1197  0.0184
 5239TIP3    H237133   5.088   1.439  14.487 -1.8978  0.2576 -0.8001
 5240TIP3   OH237134   6.184   2.915   4.053  0.2290 -0.2265 -0.0677
 5240TIP3    H137135   6.105   2.953   4.092  0.0954  0.2745 -0.7987
 5240TIP3    H237136   6.237   2.991   4.029  0.0852 -0.5099 -1.3087
 5241TIP3   OH237137   5.390   3.543   3.640 -0.3673 -0.5026 -0.6479
 5241TIP3    H137138   5.450   3.526   3.713 -1.0936  1.0901  0.3600
 5241TIP3    H237139   5.312   3.493   3.661 -1.2885  1.3693  0.6910
 5242TIP3   OH237140   5.841   5.143  10.405 -0.4152 -0.4696  0.2884
 5242TIP3    H137141   5.820   5.184  10.321  2.7208  0.8321  0.0228
 5242TIP3    H237142   5.800   5.201  10.470  1.8464  1.8322 -0.1992
 5243TIP3   OH237143   3.045   2.889  12.771  0.5269  0.0759 -0.7104
 5243TIP3    H137144   3.080   2.893  12.681 -1.1351  0.8891 -1.3493
 5243TIP3    H237145   2.991   2.810  12.772  1.4901 -0.6012 -0.0347
 5244TIP3   OH237146   2.976   2.184  15.272  0.6230  0.2168  0.0215
 5244TIP3    H137147   2.883   2.164  15.286  0.3534  1.3570 -0.0679
 5244TIP3    H237148   2.995   2.149  15.185 -0.2997  1.8230 -0.8782
 5245TIP3   OH237149   2.340   2.980  14.332 -0.3565 -0.2347 -0.5477
 5245TIP3    H137150   2.345   2.948  14.422  0.4394 -0.9325 -0.8250
 5245TIP3    H237151   2.385   2.913  14.280  0.4497  0.8410 -1.2798
 5246TIP3   OH237152   2.963   2.929  17.234  0.5515  0.2366  0.5930
 5246TIP3    H137153   2.953   2.983  17.156 -0.3721 -1.2325 -0.3533
 5246TIP3    H237154   2.874   2.915  17.266  0.8523  0.0673  1.3796
 5247TIP3   OH237155   2.450   3.470  11.827  0.0932 -0.7197 -0.1300
 5247TIP3    H137156   2.515   3.534  11.800  1.2500 -1.6865  0.2823
 5247TIP3    H237157   2.387   3.467  11.755  1.5731 -1.1861 -1.4600
 5248TIP3   OH237158   0.509   3.099   5.864 -0.3374  0.2368  0.7953
 5248TIP3    H137159   0.415   3.109   5.875 -0.4777  0.9552 -0.7451
 5248TIP3    H237160   0.541   3.188   5.849  0.5507 -0.0255  1.0632
 5249TIP3   OH237161   5.026   4.797   5.574  0.1796 -0.2299 -0.6288
 5249TIP3    H137162   4.933   4.810   5.589  0.7021  1.7651  1.3910
 5249TIP3    H237163   5.046   4.715   5.619 -0.1861  0.6448  1.2484
 5250TIP3   OH237164   1.442   1.302  10.617 -0.9110 -0.4303 -0.5226
 5250TIP3    H137165   1.511   1.335  10.560  0.8052 -1.9428  0.5729
 5250TIP3    H237166   1.369   1.363  10.604  1.2934  2.4811 -0.1538
 5251TIP3   OH237167   6.134   4.483  16.124  0.1882  0.0949  0.3018
 5251TIP3    H137168   6.192   4.449  16.191  0.0297  0.9586  0.8933
 5251TIP3    H237169   6.174   4.456  16.041 -0.1193 -1.7977  0.7396
 5252TIP3   OH237170   5.806   1.662   6.454  0.2463 -0.5826  0.1359
 5252TIP3    H137171   5.839   1.584   6.409  0.2612  0.2813 -1.4446
 5252TIP3    H237172   5.764   1.629   6.533  3.9854 -1.8139  1.8060
 5253TIP3   OH237173   0.928   6.238  15.935  0.6320 -0.7247 -0.8368
 5253TIP3    H137174   0.851   6.213  15.884  0.4860 -0.6614 -0.6522
 5253TIP3    H237175   0.975   6.301  15.880 -1.4328  2.2289  0.4838
 5254TIP3   OH237176   3.735   1.516  11.806  0.0083 -0.0121  0.2182
 5254TIP3    H137177   3.660   1.514  11.866 -0.2401  1.4087 -0.0188
 5254TIP3    H237178   3.703   1.561  11.729  0.9547  0.1148 -0.1149
 5255TIP3   OH237179   3.309   2.705  11.715 -0.0475  0.3086  0.1198
 5255TIP3    H137180   3.260   2.719  11.796  0.5249 -0.2467  0.5598
 5255TIP3    H237181   3.373   2.776  11.713 -0.4380  0.6625 -0.1433
 5256TIP3   OH237182   4.153   1.331  12.170  0.3588 -0.2016  0.0680
 5256TIP3    H137183   4.086   1.385  12.211 -0.4529 -0.0104 -1.4619
 5256TIP3    H237184   4.210   1.393  12.125 -0.9258 -0.5685 -2.2091
 5257TIP3   OH237185   0.381   5.085   2.342  0.2609  0.2150  0.1252
 5257TIP3    H137186   0.428   5.118   2.265  0.5059 -2.0165 -0.7531
 5257TIP3    H237187   0.307   5.036   2.307  0.7379 -1.3945  1.2491
 5258TIP3   OH237188   1.663   4.336  12.868 -0.0777 -0.1108 -0.1778
 5258TIP3    H137189   1.646   4.270  12.936  1.9162  0.0919  0.5730
 5258TIP3    H237190   1.602   4.407  12.888  0.7796  0.1483  1.7348
 5259TIP3   OH237191   0.544   4.673   2.437 -0.7626 -0.7343  0.2170
 5259TIP3    H137192   0.456   4.657   2.404  0.0018 -0.8850 -1.9023
 5259TIP3    H237193   0.541   4.762   2.473 -1.6962 -0.6189 -0.1229
 5260TIP3   OH237194   4.660   2.908   5.970 -0.1492 -0.6502 -0.3667
 5260TIP3    H137195   4.747   2.870   5.967  0.3966  0.5902 -1.0154
 5260TIP3    H237196   4.675   3.003   5.969 -1.4621 -0.3905  0.8257
 5261TIP3   OH237197   5.455   4.360  13.684 -1.0348  0.4334  0.3163
 5261TIP3    H137198   5.368   4.355  13.722 -1.1268 -0.9342 -0.0139
 5261TIP3    H237199   5.449   4.310  13.603 -0.1131  0.8906 -0.0518
 5262TIP3   OH237200   0.974   3.765   2.125 -0.1681  0.4189 -0.4708
 5262TIP3    H137201   1.014   3.681   2.102  3.0192  1.9209 -0.9314
 5262TIP3    H237202   0.963   3.810   2.041 -1.1836  0.7668 -0.1656
 5263TIP3   OH237203   6.105   4.769   1.569 -0.4674 -0.0407  0.0528
 5263TIP3    H137204   6.173   4.783   1.503 -0.0158 -3.6260 -0.4442
 5263TIP3    H237205   6.105   4.850   1.621  1.5812  1.5357 -2.1767
 5264TIP3   OH237206   5.169   6.469  12.160  0.8635  0.5491 -0.0721
 5264TIP3    H137207   5.142   6.382  12.132  1.2867 -0.1383  1.5690
 5264TIP3    H237208   5.201   6.457  12.249  0.8009  2.4173  0.2367
 5265TIP3   OH237209   5.854   5.013   4.466 -0.3444  0.1937  0.6464
 5265TIP3    H137210   5.801   5.051   4.536 -2.5256  1.8927 -1.7575
 5265TIP3    H237211   5.934   5.066   4.465 -2.5639  3.8822 -1.4658
 5266TIP3   OH237212   2.633   2.842   3.603 -0.0817  0.1581 -0.0313
 5266TIP3    H137213   2.603   2.821   3.691 -1.4635 -0.7138 -0.6705
 5266TIP3    H237214   2.684   2.766   3.576 -2.5800 -1.2217 -1.2277
 5267TIP3   OH237215   2.206   3.479   1.426  0.2862  0.0400  0.1326
 5267TIP3    H137216   2.234   3.465   1.517  1.5752  0.9045 -0.1020
 5267TIP3    H237217   2.111   3.490   1.432  0.3544  0.1705  1.3800
 5268TIP3   OH237218   4.018   1.448  15.240  0.9623 -0.4431 -0.3714
 5268TIP3    H137219   4.070   1.528  15.236  2.2834 -1.2691 -0.4078
 5268TIP3    H237220   4.001   1.434  15.333 -0.6354  0.6865 -0.4498
 5269TIP3   OH237221   0.847   0.311  16.739 -0.7408  0.6603  0.5690
 5269TIP3    H137222   0.820   0.402  16.744 -2.9269  0.0669  0.9220
 5269TIP3    H237223   0.765   0.262  16.745  0.1924 -1.3007 -1.3083
 5270TIP3   OH237224   5.484   2.914  15.035  0.4704 -0.1868  0.0167
 5270TIP3    H137225   5.411   2.961  14.995 -0.1575 -0.1241  1.2009
 5270TIP3    H237226   5.552   2.913  14.967 -1.1462 -1.5883 -1.6994
 5271TIP3   OH237227   5.996   5.797   4.154  0.3735 -0.5756  0.2685
 5271TIP3    H137228   6.038   5.712   4.166 -1.0282 -1.3641 -0.1570
 5271TIP3    H237229   6.030   5.851   4.226 -0.8391 -2.3595  2.2976
 5272TIP3   OH237230   0.587   3.651  15.207 -0.0676  0.3373 -0.1595
 5272TIP3    H137231   0.659   3.715  15.204  0.2334  0.0130  0.0668
 5272TIP3    H237232   0.631   3.566  15.215 -0.3078 -0.2771 -3.8791
 5273TIP3   OH237233   4.559   1.431  12.806  0.6372 -0.6990  0.5929
 5273TIP3    H137234   4.513   1.456  12.887  0.5154 -0.8603  0.5751
 5273TIP3    H237235   4.636   1.383  12.837  1.0242 -0.0515  0.6336
 5274TIP3   OH237236   5.340   5.739  11.506  0.1975 -0.0979 -0.5081
 5274TIP3    H137237   5.308   5.649  11.494 -2.6582  0.1301  3.5338
 5274TIP3    H237238   5.271   5.794  11.470 -0.5089  0.3936  1.4796
 5275TIP3   OH237239   3.891   2.868  17.165 -0.2243  0.6181 -0.0584
 5275TIP3    H137240   3.800   2.868  17.193 -0.5351 -0.1560 -1.0082
 5275TIP3    H237241   3.901   2.788  17.114  1.1850  0.3283  0.6215
 5276TIP3   OH237242   2.869   5.411   3.079 -0.5000 -0.0923 -0.4944
 5276TIP3    H137243   2.946   5.382   3.030  0.6441 -0.0562  1.2006
 5276TIP3    H237244   2.801   5.347   3.057  0.0896 -0.3146 -1.7731
 5277TIP3   OH237245   4.161   1.843   4.564  0.2434 -0.0872 -0.1131
 5277TIP3    H137246   4.153   1.938   4.557 -2.3593 -0.2461 -0.1319
 5277TIP3    H237247   4.126   1.823   4.651  1.1051 -1.0285  0.0306
 5278TIP3   OH237248   0.452   6.077  11.208 -0.7518  0.7606  0.9705
 5278TIP3    H137249   0.544   6.054  11.194 -0.9423 -0.3210  1.3535
 5278TIP3    H237250   0.423   6.113  11.124 -0.1072  0.6763  0.7041
 5279TIP3   OH237251   2.504   5.871  10.612 -0.6300 -0.0444  0.1763
 5279TIP3    H137252   2.582   5.912  10.649 -0.4958  0.2033 -0.3777
 5279TIP3    H237253   2.501   5.785  10.653  0.7702 -0.6355 -0.8786
 5280TIP3   OH237254   4.086   1.711  16.696 -0.0209  0.0005  0.9714
 5280TIP3    H137255   4.080   1.674  16.608  2.8193 -1.2048  1.1726
 5280TIP3    H237256   4.006   1.681  16.740 -0.7826 -0.6180 -0.7289
 5281TIP3   OH237257   5.663   1.303  12.878  0.4817 -0.1534  0.4182
 5281TIP3    H137258   5.666   1.359  12.955 -1.1262 -0.0206  0.4261
 5281TIP3    H237259   5.635   1.362  12.807  0.3993 -0.5933  0.0824
 5282TIP3   OH237260   0.702   2.045  10.763 -0.0528 -0.5505 -0.1457
 5282TIP3    H137261   0.650   1.970  10.733 -0.6378 -0.4936  0.6938
 5282TIP3    H237262   0.763   2.062  10.691 -2.0616  0.2304 -1.7651
 5283TIP3   OH237263   4.634   2.403  16.653 -0.9258  0.0883 -0.7840
 5283TIP3    H137264   4.631   2.330  16.591  0.2797  0.0664 -0.8507
 5283TIP3    H237265   4.726   2.430  16.653 -0.9776  0.3610  0.6666
 5284TIP3   OH237266   3.080   6.119   0.743  0.1854 -0.2512  0.6774
 5284TIP3    H137267   3.097   6.056   0.673 -0.8347 -1.9921  1.9318
 5284TIP3    H237268   3.093   6.070   0.824  1.8156  1.8284  1.7915
 5285TIP3   OH237269   2.676   2.252  15.823  0.6086 -0.1650 -0.4729
 5285TIP3    H137270   2.591   2.255  15.778  0.0308 -1.3222  0.4777
 5285TIP3    H237271   2.738   2.231  15.753  0.3722  2.1002 -1.4446
 5286TIP3   OH237272   5.965   6.070  13.685  0.0694  0.1459  0.0759
 5286TIP3    H137273   5.875   6.099  13.701  0.7588  1.8260  1.2292
 5286TIP3    H237274   5.978   5.997  13.745 -1.2845 -1.8584 -1.9257
 5287TIP3   OH237275   1.293   4.954  14.373  0.0423 -0.5699  0.8656
 5287TIP3    H137276   1.304   4.915  14.459  0.9578  0.9341  1.4744
 5287TIP3    H237277   1.377   4.940  14.329  0.0724 -0.0963  0.7616
 5288TIP3   OH237278   6.193   1.357   0.863 -0.2602  0.3566 -0.5646
 5288TIP3    H137279   6.203   1.380   0.771  0.1964  0.1413 -0.5717
 5288TIP3    H237280   6.282   1.354   0.897 -0.4608  1.0872  0.0487
 5289TIP3   OH237281   2.425   6.373  13.209 -0.4937  0.5115  0.3635
 5289TIP3    H137282   2.404   6.429  13.283  0.9522  2.1305 -0.3923
 5289TIP3    H237283   2.407   6.427  13.132 -1.0025 -0.7813 -0.4548
 5290TIP3   OH237284   0.338   6.675   4.553  0.6758 -0.0715  0.2419
 5290TIP3    H137285   0.274   6.603   4.549  0.5992 -0.0211  0.5711
 5290TIP3    H237286   0.299   6.738   4.613  0.7534  0.2387 -0.0321
 5291TIP3   OH237287   0.742   3.058  16.816  0.3280 -0.4715 -0.0379
 5291TIP3    H137288   0.724   2.993  16.748 -1.0029  0.6842 -0.8518
 5291TIP3    H237289   0.826   3.096  16.791  0.5329 -1.0551 -0.2350
 5292TIP3   OH237290   1.682   2.672  16.944 -0.4356 -0.1488 -0.4792
 5292TIP3    H137291   1.734   2.752  16.938  0.1274 -0.5683 -1.5359
 5292TIP3    H237292   1.722   2.623  17.016 -0.5308  0.3278 -0.0907
 5293TIP3   OH237293   0.254   4.614  15.946  0.1995 -0.1854  0.3031
 5293TIP3    H137294   0.167   4.614  15.986 -0.3415 -0.7947 -0.8276
 5293TIP3    H237295   0.248   4.551  15.873  1.7646 -0.7212  0.5762
 5294TIP3   OH237296   0.227   4.793  12.533  0.3307 -0.3785  0.5347
 5294TIP3    H137297   0.201   4.869  12.585  1.4698  0.0350  0.5188
 5294TIP3    H237298   0.221   4.823  12.442  0.4468 -0.4148  0.5150
 5295TIP3   OH237299   4.068   1.327  11.436  0.3392 -0.5315  0.4068
 5295TIP3    H137300   4.069   1.331  11.340  2.4136  0.9908  0.4231
 5295TIP3    H237301   4.036   1.413  11.464  1.6539 -0.2269  1.0514
 5296TIP3   OH237302   0.031   3.702   6.522 -0.1165 -1.1586 -0.1869
 5296TIP3    H137303   0.069   3.743   6.444  1.7087 -0.8301  0.8146
 5296TIP3    H237304   0.080   3.620   6.532  1.8256  0.1656  2.2273
 5297TIP3   OH237305   1.399   3.915   1.824 -0.4571 -0.1622 -0.1654
 5297TIP3    H137306   1.494   3.927   1.818 -0.3628 -1.1556 -0.8658
 5297TIP3    H237307   1.388   3.845   1.889 -0.6359 -0.8304 -0.8945
 5298TIP3   OH237308   4.639   1.768   3.300  0.3968 -0.1456 -0.2644
 5298TIP3    H137309   4.671   1.681   3.276 -2.0054 -1.1472 -0.1450
 5298TIP3    H237310   4.606   1.758   3.389 -0.7341  0.6278 -0.5752
 5299TIP3   OH237311   5.296   3.418  16.330  0.3569  0.2507 -0.3820
 5299TIP3    H137312   5.226   3.482  16.321 -1.1216 -1.5197 -2.5897
 5299TIP3    H237313   5.309   3.409  16.424 -2.3995  0.6540  0.1166
 5300TIP3   OH237314   2.123   2.935   0.912  0.0119  0.0776  0.1776
 5300TIP3    H137315   2.194   2.877   0.883 -0.0969  0.8555 -1.8163
 5300TIP3    H237316   2.047   2.877   0.921  0.5681 -0.5410  0.9967
 5301TIP3   OH237317   0.675   6.175  16.909 -0.0830 -0.5426 -0.4612
 5301TIP3    H137318   0.646   6.224  16.832  0.2330 -1.7086 -1.3555
 5301TIP3    H237319   0.594   6.142  16.948 -0.1969 -0.5879 -0.7346
 5302TIP3   OH237320   4.457   5.882   5.111 -0.4296 -0.4914  0.3707
 5302TIP3    H137321   4.518   5.899   5.182 -0.8080 -0.4592  0.6878
 5302TIP3    H237322   4.403   5.810   5.141 -0.0935 -0.9911 -0.1975
 5303TIP3   OH237323   0.791   1.122   0.659  0.1277 -0.4106 -0.3226
 5303TIP3    H137324   0.757   1.035   0.680 -0.0983  0.2590  2.4930
 5303TIP3    H237325   0.863   1.135   0.721 -0.4110  1.7266 -0.0763
 5304TIP3   OH237326   4.951   6.035  13.596 -0.1232 -0.1052 -0.0477
 5304TIP3    H137327   5.006   6.113  13.587  0.9787 -0.8436  0.1188
 5304TIP3    H237328   4.894   6.038  13.519 -0.2586  0.9796  0.0717
 5305TIP3   OH237329   0.455   4.886   0.349  0.1890  0.4582 -0.5186
 5305TIP3    H137330   0.534   4.831   0.351  0.6316  1.0058 -1.8914
 5305TIP3    H237331   0.389   4.832   0.306  0.4896  0.8015 -1.4402
 5306TIP3   OH237332   0.230   2.907  12.245  0.4009 -0.5081  0.1666
 5306TIP3    H137333   0.283   2.870  12.315  2.8725 -0.0989 -1.3606
 5306TIP3    H237334   0.247   2.851  12.169 -0.4101  0.3637 -0.6881
 5307TIP3   OH237335   2.359   0.814  11.156 -0.7079 -0.2268  0.3481
 5307TIP3    H137336   2.448   0.850  11.152 -0.4747 -0.8308 -0.0537
 5307TIP3    H237337   2.326   0.821  11.066 -2.1354  2.5730  0.9785
 5308TIP3   OH237338   2.037   6.773   5.205 -0.1720 -0.0686 -0.3280
 5308TIP3    H137339   1.942   6.766   5.196  0.0742 -1.8945 -2.2977
 5308TIP3    H237340   2.070   6.689   5.173  2.0044 -0.7839  3.2049
 5309TIP3   OH237341   3.019   1.538  12.393 -0.0627  0.5257 -0.2708
 5309TIP3    H137342   3.000   1.444  12.390 -1.2129  0.7650 -1.3131
 5309TIP3    H237343   2.967   1.571  12.466 -0.6294  0.5386 -0.6733
 5310TIP3   OH237344   0.144   4.741  11.529 -0.0668 -0.2487 -0.3565
 5310TIP3    H137345   0.113   4.824  11.565 -1.4080 -0.7830 -0.2207
 5310TIP3    H237346   0.093   4.729  11.449 -0.2695 -1.1809 -0.1011
 5311TIP3   OH237347   5.483   3.680   3.895  0.4056  0.6545 -0.2136
 5311TIP3    H137348   5.517   3.590   3.895  0.8204  0.8041 -0.7234
 5311TIP3    H237349   5.546   3.729   3.842  0.3971  1.3308  0.3905
 5312TIP3   OH237350   2.913   3.197  12.958 -0.7560 -0.4110 -0.1657
 5312TIP3    H137351   2.843   3.241  13.006 -0.0162  4.4324 -2.8830
 5312TIP3    H237352   2.867   3.141  12.895 -2.3517  2.3608 -1.6305
 5313TIP3   OH237353   2.190   2.963  11.288 -0.0047  0.2302  0.1008
 5313TIP3    H137354   2.248   2.998  11.219 -0.9067  0.0530 -0.7707
 5313TIP3    H237355   2.148   3.041  11.325 -1.4833  0.1808 -1.3616
 5314TIP3   OH237356   1.695   2.533  14.862 -0.4244 -0.3969  0.0072
 5314TIP3    H137357   1.753   2.566  14.794  0.8340  0.9219  1.6458
 5314TIP3    H237358   1.753   2.496  14.927 -1.6524 -2.6662 -0.0826
 5315TIP3   OH237359   0.373   6.331  14.889  0.7224  0.0260 -0.1303
 5315TIP3    H137360   0.301   6.310  14.949  1.0008  1.8399  0.8935
 5315TIP3    H237361   0.434   6.382  14.942  1.1406  1.4165 -1.8821
 5316TIP3   OH237362   4.501   5.244   2.485 -0.3414 -0.0123  0.2905
 5316TIP3    H137363   4.557   5.320   2.501 -0.9419  0.5023  0.0171
 5316TIP3    H237364   4.418   5.266   2.528  0.2533 -1.6006  2.3986
 5317TIP3   OH237365   3.983   4.424   6.930  0.2651  0.3141 -0.3847
 5317TIP3    H137366   3.894   4.452   6.910 -0.0349 -1.0613 -1.1577
 5317TIP3    H237367   4.040   4.482   6.879 -0.3493 -0.7705 -2.4190
 5318TIP3   OH237368   5.398   3.307  13.703  0.0387  0.3825 -0.0723
 5318TIP3    H137369   5.334   3.300  13.632 -0.9635 -1.8655  0.9543
 5318TIP3    H237370   5.423   3.399  13.704 -1.5832  0.9083 -1.8860
 5319TIP3   OH237371   6.700   2.552   4.280  0.2022  0.2325 -0.2807
 5319TIP3    H137372   6.740   2.477   4.323  1.5032  0.8777 -0.3232
 5319TIP3    H237373   6.681   2.521   4.191 -1.3135 -0.6974  0.3183
 5320TIP3   OH237374   2.909   0.038  12.688 -0.0553  0.2884  0.2840
 5320TIP3    H137375   2.857  -0.039  12.711 -0.1386 -0.0898 -1.1282
 5320TIP3    H237376   2.993   0.003  12.659 -0.1374  0.7199 -0.4887
 5321TIP3   OH237377   5.591   3.181  12.852 -0.5445  0.2610 -0.5874
 5321TIP3    H137378   5.644   3.169  12.930 -0.0572 -0.9205 -1.0904
 5321TIP3    H237379   5.509   3.219  12.885 -0.8490 -1.3860  0.6723
 5322TIP3   OH237380   3.671   3.138  14.412 -0.3754  0.0662  0.2109
 5322TIP3    H137381   3.611   3.077  14.454 -2.8192  0.9212 -1.7579
 5322TIP3    H237382   3.680   3.209  14.475  0.3845 -1.0676  1.4344
 5323TIP3   OH237383   4.953   4.861   1.405  0.6897 -0.1578  0.0622
 5323TIP3    H137384   4.949   4.860   1.309 -0.7327  0.7824  0.0651
 5323TIP3    H237385   4.871   4.818   1.432  1.1512 -0.5460  0.8622
 5324TIP3   OH237386   6.152   6.265  11.017 -0.2652  0.1416  0.3918
 5324TIP3    H137387   6.176   6.212  10.942 -0.4881  1.0158 -0.3086
 5324TIP3    H237388   6.209   6.341  11.013 -1.7185  1.2361 -0.1229
 5325TIP3   OH237389   5.548   3.582  17.055  0.5884  0.4334 -0.1949
 5325TIP3    H137390   5.538   3.675  17.037 -0.3568  0.2044 -0.9306
 5325TIP3    H237391   5.525   3.573  17.148  0.4124  0.8890 -0.1930
 5326TIP3   OH237392   4.249   3.432  12.183 -0.1403 -0.2705  0.4473
 5326TIP3    H137393   4.195   3.487  12.127 -0.5460 -2.2149 -1.1829
 5326TIP3    H237394   4.312   3.493  12.223 -1.7632  1.6132  0.2567
 5327TIP3   OH237395   2.344   3.191  14.681 -0.4015 -0.9528  0.2732
 5327TIP3    H137396   2.356   3.105  14.640  1.0530  0.2277 -1.9826
 5327TIP3    H237397   2.251   3.196  14.701 -0.2709 -3.7442  2.2634
 5328TIP3   OH237398   1.162   1.172   3.124  0.1164 -0.4375 -0.0738
 5328TIP3    H137399   1.087   1.202   3.176 -0.4085 -1.0221 -0.4836
 5328TIP3    H237400   1.208   1.253   3.100  0.2964 -0.1477  1.1725
 5329TIP3   OH237401   3.964   5.637  12.125 -0.1731  0.6420  0.2243
 5329TIP3    H137402   3.994   5.713  12.175  0.4242  1.0030 -0.6527
 5329TIP3    H237403   4.030   5.570  12.143  0.2292  0.8802 -0.3301
 5330TIP3   OH237404   3.535   6.159   1.141  0.0225  0.1430 -0.3311
 5330TIP3    H137405   3.625   6.130   1.156  0.1442  0.5374 -0.2944
 5330TIP3    H237406   3.483   6.111   1.205 -0.1048 -1.7844 -1.7966
 5331TIP3   OH237407   6.046   3.182  12.277 -0.3887 -0.1932  0.2348
 5331TIP3    H137408   5.958   3.203  12.310 -0.3767 -1.2073  0.9509
 5331TIP3    H237409   6.078   3.265  12.240 -1.9996 -0.0182 -0.8824
 5332TIP3   OH237410   2.314   0.050   1.066  0.2760  0.1066 -0.3454
 5332TIP3    H137411   2.244   0.024   1.006  0.5363 -0.4043 -0.4311
 5332TIP3    H237412   2.276   0.122   1.117  0.2005  0.8460 -1.4183
 5333TIP3   OH237413   1.106   5.747  12.937 -0.1262 -0.7287 -0.3565
 5333TIP3    H137414   1.072   5.757  12.848 -1.3333 -2.4406 -0.1601
 5333TIP3    H237415   1.117   5.652  12.947  1.0712 -0.4787  0.9365
 5334TIP3   OH237416   5.082   3.813  13.128  0.2002  0.5073  0.3263
 5334TIP3    H137417   5.175   3.835  13.114  0.0061  1.8946  1.0034
 5334TIP3    H237418   5.066   3.836  13.220 -0.6851 -0.2123  0.3595
 5335TIP3   OH237419   3.849   0.769   1.032  0.2490 -0.1023  0.1897
 5335TIP3    H137420   3.814   0.730   1.112 -1.9391  0.2370 -0.5343
 5335TIP3    H237421   3.926   0.716   1.011 -0.1120 -1.2556  1.5883
 5336TIP3   OH237422   6.245   2.077   1.612 -0.4067 -0.4006  0.1056
 5336TIP3    H137423   6.176   2.074   1.546 -0.2644  0.9096 -0.1432
 5336TIP3    H237424   6.322   2.042   1.567 -0.0641  1.3573 -0.8058
 5337TIP3   OH237425   3.517   1.315   1.391  0.0950 -0.2556  0.1194
 5337TIP3    H137426   3.533   1.264   1.312 -1.4699 -0.5061 -0.0537
 5337TIP3    H237427   3.579   1.280   1.456  0.5302 -0.8740 -0.6204
 5338TIP3   OH237428   3.491   0.614   0.094 -0.6295 -0.1120  0.5039
 5338TIP3    H137429   3.475   0.616   0.188 -1.5951  0.1908  0.3448
 5338TIP3    H237430   3.574   0.661   0.083  1.0327 -2.5977  1.4539
 5339TIP3   OH237431   5.099   2.103  12.938 -0.2689 -0.6396  0.3386
 5339TIP3    H137432   5.020   2.089  12.886  0.1484 -0.1972 -0.4311
 5339TIP3    H237433   5.105   2.026  12.994 -0.4902 -1.3363 -0.5780
 5340TIP3   OH237434   6.065   5.983   4.332 -0.1726  0.6449 -0.0358
 5340TIP3    H137435   5.976   6.017   4.343 -0.3262 -0.1004  1.1883
 5340TIP3    H237436   6.121   6.049   4.373 -0.2895  0.4249  0.4809
 5341TIP3   OH237437   3.329   1.817   5.495 -0.0659  0.0060 -0.5836
 5341TIP3    H137438   3.265   1.888   5.501 -0.4245 -0.3170 -0.5300
 5341TIP3    H237439   3.414   1.861   5.495 -0.1062  0.3356  2.4670
 5342TIP3   OH237440   2.690   6.175  13.577 -0.1692 -0.2735  0.6125
 5342TIP3    H137441   2.746   6.100  13.559  1.5370  1.2783 -0.8989
 5342TIP3    H237442   2.622   6.171  13.510  0.0334 -0.3335  0.4125
 5343TIP3   OH237443   3.524   6.075   4.088  0.4201 -0.5247 -0.1827
 5343TIP3    H137444   3.473   6.155   4.099 -1.2061 -1.6207  0.7692
 5343TIP3    H237445   3.566   6.061   4.173 -1.7500 -2.2091  0.7034
 5344TIP3   OH237446   5.109   1.407  12.236 -0.0863 -0.3520  0.3477
 5344TIP3    H137447   5.148   1.356  12.165  0.1253 -0.3418  0.4574
 5344TIP3    H237448   5.183   1.435  12.289 -0.4017 -2.1669  1.8064
 5345TIP3   OH237449   5.406   6.421   0.741  0.4451 -0.3026 -0.5074
 5345TIP3    H137450   5.403   6.502   0.690  0.6177 -1.3987 -2.3612
 5345TIP3    H237451   5.366   6.444   0.825  1.3194  1.9178 -0.6275
 5346TIP3   OH237452   6.116   5.160   2.171 -0.1564 -0.6638  0.3244
 5346TIP3    H137453   6.154   5.237   2.130 -0.4895 -0.2276  0.8223
 5346TIP3    H237454   6.045   5.134   2.113  0.3226 -0.9479 -0.1435
 5347TIP3   OH237455   1.939   1.841   2.153 -0.6029 -0.6928 -0.1249
 5347TIP3    H137456   2.012   1.826   2.094  0.3783  0.4460  0.7406
 5347TIP3    H237457   1.867   1.869   2.096  0.1886 -0.0425 -0.8313
 5348TIP3   OH237458   0.223   1.321   5.356 -0.4431  0.2279 -0.5372
 5348TIP3    H137459   0.218   1.246   5.297 -0.7506  1.0294 -1.5556
 5348TIP3    H237460   0.141   1.319   5.405  0.3536 -1.1815  0.8264
 5349TIP3   OH237461   2.137   1.879   0.850  0.8576  0.0983  0.0473
 5349TIP3    H137462   2.094   1.866   0.766 -0.7415  1.0827  0.6709
 5349TIP3    H237463   2.217   1.826   0.844  0.3519 -0.5486 -1.7383
 5350TIP3   OH237464   2.527   6.374  14.083  0.4221 -0.0627  0.1142
 5350TIP3    H137465   2.536   6.437  14.155  0.1414  0.6833 -0.4907
 5350TIP3    H237466   2.526   6.428  14.004 -2.2861 -0.5814 -0.2916
 5351TIP3   OH237467   1.450   5.386  16.799 -0.5137  0.0403  0.3809
 5351TIP3    H137468   1.377   5.435  16.761 -0.0509  0.6389  0.2451
 5351TIP3    H237469   1.468   5.316  16.737  2.2565  2.7787 -2.2392
 5352TIP3   OH237470   1.098   2.722  14.714  0.0930  0.4508  0.7342
 5352TIP3    H137471   1.140   2.637  14.713 -0.8267 -0.0188  0.8373
 5352TIP3    H237472   1.095   2.746  14.807 -0.5455  0.1301  0.8007
 5353TIP3   OH237473   6.304   0.468  10.629 -0.1521 -0.1704  0.2468
 5353TIP3    H137474   6.302   0.543  10.689 -0.3444 -1.8495  2.4968
 5353TIP3    H237475   6.395   0.439  10.631 -0.1024 -0.0718 -0.5255
 5354TIP3   OH237476   0.941   3.579   1.781 -0.4546 -0.4465 -0.6789
 5354TIP3    H137477   0.867   3.529   1.816 -0.2221 -0.1764  0.2547
 5354TIP3    H237478   0.902   3.659   1.748 -0.6249 -0.4556 -0.5041
 5355TIP3   OH237479   3.684   6.368  15.939  0.4471  0.4066  0.0797
 5355TIP3    H137480   3.749   6.402  16.001  0.8467  0.6964 -0.4876
 5355TIP3    H237481   3.609   6.346  15.994 -0.3194  3.3722  0.4003
 5356TIP3   OH237482   0.401   0.290   0.091  0.1346  0.3153 -0.3291
 5356TIP3    H137483   0.374   0.327   0.007  0.3938  0.0924 -0.5119
 5356TIP3    H237484   0.488   0.255   0.074  1.1164  2.1920  0.5791
 5357TIP3   OH237485   0.855   2.129  10.556  1.0323 -0.2603 -0.0747
 5357TIP3    H137486   0.946   2.129  10.526  1.6030  1.8836  1.4149
 5357TIP3    H237487   0.805   2.159  10.481  1.7000 -0.3734 -0.5760
 5358TIP3   OH237488   3.969   2.485  10.954 -0.6360 -0.2961 -0.2254
 5358TIP3    H137489   3.903   2.464  10.888 -0.6520 -1.3310  0.0985
 5358TIP3    H237490   3.925   2.546  11.014 -0.9980 -0.2679 -0.5191
 5359TIP3   OH237491   4.833   1.226  13.459 -0.7866 -0.2812 -0.3868
 5359TIP3    H137492   4.838   1.305  13.513 -1.4215 -0.5603  0.1031
 5359TIP3    H237493   4.892   1.242  13.386 -0.8368  0.6036 -0.2373
 5360TIP3   OH237494   2.812   3.318   0.690 -0.0248 -0.1149 -0.2159
 5360TIP3    H137495   2.819   3.238   0.742  1.4518  0.2585  0.2016
 5360TIP3    H237496   2.762   3.378   0.745  0.2192 -0.2267  0.1308
 5361TIP3   OH237497   4.684   1.713   3.757  0.1635  0.1199  0.5227
 5361TIP3    H137498   4.767   1.736   3.714 -0.6332 -0.8783 -1.6887
 5361TIP3    H237499   4.701   1.727   3.850  2.5699  0.6818  0.0719
 5362TIP3   OH237500   3.224   4.714   5.895  1.3220 -0.8162 -0.3803
 5362TIP3    H137501   3.147   4.710   5.950  0.7825  3.2435 -0.5459
 5362TIP3    H237502   3.211   4.646   5.829  0.0029 -2.9846  1.9750
 5363TIP3   OH237503   4.984   6.519  14.433  0.7970 -0.1861  0.3982
 5363TIP3    H137504   5.071   6.560  14.434  0.0894  1.4766  2.6944
 5363TIP3    H237505   4.931   6.579  14.380  0.5503  0.0046  0.8585
 5364TIP3   OH237506   6.531   1.252   3.077 -0.1979 -0.0890 -0.3690
 5364TIP3    H137507   6.512   1.166   3.040  1.4433 -1.5389  1.8668
 5364TIP3    H237508   6.601   1.287   3.023 -1.2659  0.1483 -1.6385
 5365TIP3   OH237509   4.407   6.032  16.135 -0.0989  0.1164 -0.1206
 5365TIP3    H137510   4.480   6.075  16.180  0.7325  1.3481 -2.4938
 5365TIP3    H237511   4.425   5.939  16.145  0.4811  0.3529  1.3575
 5366TIP3   OH237512   3.802   0.745   4.724  0.3580  0.3724 -0.5007
 5366TIP3    H137513   3.732   0.738   4.658 -1.1944  0.2546  1.0761
 5366TIP3    H237514   3.842   0.658   4.726  0.8978  0.5641 -1.7329
 5367TIP3   OH237515   5.805   3.462   2.690  0.4260 -0.2871 -0.2116
 5367TIP3    H137516   5.797   3.375   2.650  0.5026 -0.6812  0.6032
 5367TIP3    H237517   5.898   3.482   2.687  0.5237 -0.6247  0.3833
 5368TIP3   OH237518   0.216   1.519  13.004 -0.4126 -0.0128 -0.0898
 5368TIP3    H137519   0.283   1.585  13.020  0.7794 -1.3594  0.6897
 5368TIP3    H237520   0.160   1.523  13.081 -0.2735 -0.0097  0.0110
 5369TIP3   OH237521   1.140   0.907  11.980  0.2002  0.2099 -0.5470
 5369TIP3    H137522   1.191   0.898  11.899  3.0394  1.0162  1.0051
 5369TIP3    H237523   1.067   0.964  11.956  0.2248 -0.5921 -2.8020
 5370TIP3   OH237524   6.690   2.573   4.977 -0.5042  0.1786 -0.7214
 5370TIP3    H137525   6.658   2.508   5.041  1.4497 -1.7338 -1.5456
 5370TIP3    H237526   6.651   2.545   4.894  0.3326  0.0383 -1.0769
 5371TIP3   OH237527   0.859   4.402  11.651  0.2071  0.2841  0.1517
 5371TIP3    H137528   0.940   4.451  11.669  0.3204  0.4643 -0.7884
 5371TIP3    H237529   0.790   4.455  11.691  0.2318  1.6915 -1.5449
 5372TIP3   OH237530   0.574   1.379   4.144 -0.0436  0.2003 -0.2956
 5372TIP3    H137531   0.511   1.450   4.151  0.4083  0.6453 -0.7111
 5372TIP3    H237532   0.535   1.307   4.193 -0.2212  0.9303  0.6432
 5373TIP3   OH237533   4.642   4.423   4.221  0.3062  0.2570 -0.0027
 5373TIP3    H137534   4.571   4.436   4.159  0.2727 -0.3101 -0.0790
 5373TIP3    H237535   4.695   4.352   4.185 -0.5252 -1.0940  1.3204
 5374TIP3   OH237536   6.566   6.069  16.476 -0.1664 -0.2977 -0.1091
 5374TIP3    H137537   6.536   6.143  16.422  1.6898  0.4600 -0.1626
 5374TIP3    H237538   6.555   6.100  16.566  0.5301  0.0118 -0.1299
 5375TIP3   OH237539   1.299   2.188   4.094  0.0410  0.0497  0.2442
 5375TIP3    H137540   1.217   2.154   4.130  0.3372  1.1336  2.0722
 5375TIP3    H237541   1.363   2.119   4.110  0.0851  0.3721  1.4969
 5376TIP3   OH237542   1.778   1.285   5.558  0.0365  0.3641  0.1778
 5376TIP3    H137543   1.858   1.305   5.510 -0.5641  1.7678 -0.2978
 5376TIP3    H237544   1.719   1.246   5.494  0.1436 -0.1615  0.3962
 5377TIP3   OH237545   4.104   2.933   3.783  0.2441  0.2723  0.1485
 5377TIP3    H137546   4.160   2.869   3.738  0.5126 -0.0917  0.9865
 5377TIP3    H237547   4.151   2.953   3.863 -1.1172 -0.5167  1.1834
 5378TIP3   OH237548   6.396   2.716   1.384 -0.6516  0.4653  0.9330
 5378TIP3    H137549   6.465   2.705   1.319  0.6016  1.2114  2.0812
 5378TIP3    H237550   6.316   2.725   1.333 -0.2846 -2.5247 -0.4065
 5379TIP3   OH237551   2.610   2.891  12.089 -0.3585 -0.6100  0.3821
 5379TIP3    H137552   2.662   2.831  12.035 -0.8022  0.5544 -1.4055
 5379TIP3    H237553   2.519   2.863  12.075 -0.5516  0.3184 -0.2913
 5380TIP3   OH237554   0.893   0.704  15.787 -0.3519 -0.0222  0.1447
 5380TIP3    H137555   0.963   0.701  15.722 -0.9044 -2.5995 -0.4386
 5380TIP3    H237556   0.812   0.699  15.735 -0.8920  0.4632  0.9177
 5381TIP3   OH237557   5.254   5.398   3.442 -0.3461  0.0773  0.4778
 5381TIP3    H137558   5.340   5.366   3.471  0.1776  0.9441 -0.0678
 5381TIP3    H237559   5.263   5.494   3.444 -1.2470  0.1710  0.2543
 5382TIP3   OH237560   6.636   6.058   6.005  0.2484 -0.0299  0.1899
 5382TIP3    H137561   6.642   6.147   6.041  1.2328 -0.4905  1.2393
 5382TIP3    H237562   6.586   6.009   6.070  0.6757 -0.5011  0.1727
 5383TIP3   OH237563   0.474   1.055  15.192 -0.7661 -0.1139  0.8553
 5383TIP3    H137564   0.494   0.967  15.226 -0.6681 -0.3751  0.1391
 5383TIP3    H237565   0.401   1.085  15.245 -1.0640 -0.7973  0.8445
 5384TIP3   OH237566   0.234   0.205  12.112 -0.4109  0.1506  0.0280
 5384TIP3    H137567   0.150   0.250  12.116  0.7206  2.4700 -0.5779
 5384TIP3    H237568   0.255   0.185  12.203 -0.5511  1.6961  0.4186
 5385TIP3   OH237569   4.447   5.303   0.859 -0.4671 -0.2104  0.4403
 5385TIP3    H137570   4.433   5.216   0.821 -1.9261 -0.6301  1.7879
 5385TIP3    H237571   4.359   5.335   0.878 -0.0891  2.4233 -1.7250
 5386TIP3   OH237572   0.783   6.747  14.411 -0.7192  0.5105 -0.1703
 5386TIP3    H137573   0.711   6.689  14.437 -3.0735  3.1957 -0.1651
 5386TIP3    H237574   0.843   6.746  14.485 -1.5877 -0.5649  0.5548
 5387TIP3   OH237575   0.154   2.395  13.427  0.0528  0.0706  0.3799
 5387TIP3    H137576   0.077   2.338  13.432  0.3664 -0.2793  1.4373
 5387TIP3    H237577   0.227   2.341  13.457  0.5239  0.7354  0.4586
 5388TIP3   OH237578   3.965   0.444   1.490  0.7373  0.0303 -0.4071
 5388TIP3    H137579   3.914   0.456   1.410  0.7656  1.6832 -0.2037
 5388TIP3    H237580   3.904   0.462   1.561  0.7895 -1.1417 -0.0415
 5389TIP3   OH237581   4.806   2.322  14.743  0.0692  0.2904 -0.2189
 5389TIP3    H137582   4.781   2.399  14.692 -1.2038 -0.8488 -1.3863
 5389TIP3    H237583   4.723   2.288  14.777  0.4983 -1.1281 -0.5346
 5390TIP3   OH237584   5.909   6.411   5.120 -0.5768 -0.0298  0.5140
 5390TIP3    H137585   5.909   6.332   5.175 -0.3555  0.0315  0.6026
 5390TIP3    H237586   5.825   6.407   5.073  1.1036 -2.4883 -2.6389
 5391TIP3   OH237587   0.041   2.409   1.394 -0.2675  0.3424 -0.1808
 5391TIP3    H137588   0.100   2.385   1.466  0.5835 -0.9023 -1.2518
 5391TIP3    H237589  -0.046   2.411   1.435  0.0422 -1.4741  0.6790
 5392TIP3   OH237590   4.142   2.708  11.898  0.5960 -0.0445 -0.0151
 5392TIP3    H137591   4.158   2.690  11.805 -0.3564  0.7317 -0.3465
 5392TIP3    H237592   4.048   2.691  11.910  0.4536  0.9908  0.5117
 5393TIP3   OH237593   3.334   5.397  13.665 -0.6272 -0.6533  0.0153
 5393TIP3    H137594   3.396   5.418  13.595 -1.2131 -1.4111 -0.7535
 5393TIP3    H237595   3.359   5.455  13.737 -0.1068  0.2664 -0.8704
 5394TIP3   OH237596   4.196   5.403   2.916 -0.0787 -0.2719 -0.1845
 5394TIP3    H137597   4.165   5.484   2.957  2.1263  0.5971 -0.0685
 5394TIP3    H237598   4.281   5.427   2.879 -0.7285 -1.7749 -2.8592
 5395TIP3   OH237599   1.360   1.931  15.768  0.2073 -0.2434  0.3344
 5395TIP3    H137600   1.321   1.873  15.833  0.9800 -0.6306  0.4629
 5395TIP3    H237601   1.371   1.877  15.690 -1.6710  0.4879 -0.4979
 5396TIP3   OH237602   1.902   5.128   3.035  0.7152 -0.9173  0.2074
 5396TIP3    H137603   1.978   5.181   3.060  0.9167 -1.0342 -0.1526
 5396TIP3    H237604   1.876   5.084   3.116 -1.4330  2.1201  1.3617
 5397TIP3   OH237605   2.244   6.066  16.974 -0.3233  0.2138  0.9585
 5397TIP3    H137606   2.210   6.099  17.057  0.2782  0.1241  1.2522
 5397TIP3    H237607   2.339   6.080  16.981  0.0454 -2.0742  1.3404
 5398TIP3   OH237608   0.872   4.397  17.008 -0.1186 -0.7552  0.3197
 5398TIP3    H137609   0.967   4.384  17.005 -0.2545 -1.8448  0.2342
 5398TIP3    H237610   0.860   4.489  16.986  0.6751 -1.5048 -4.2202
 5399TIP3   OH237611   3.506   2.756  10.548 -0.3163 -0.0210  0.0877
 5399TIP3    H137612   3.529   2.677  10.597 -0.4199 -0.5942 -0.7775
 5399TIP3    H237613   3.418   2.778  10.579 -0.5416 -0.6067 -0.1143
 5400TIP3   OH237614   2.721   5.940   5.102  0.3570 -0.5776  0.2903
 5400TIP3    H137615   2.731   5.975   5.014  0.1224 -0.7804  0.1817
 5400TIP3    H237616   2.749   5.848   5.094  1.9175 -0.1742  0.7762
 5401TIP3   OH237617   2.815   1.789   3.926  0.0413 -0.1480  0.3581
 5401TIP3    H137618   2.815   1.811   3.833  1.5538  0.2843  0.4419
 5401TIP3    H237619   2.788   1.697   3.929 -3.2751  0.6584 -0.2238
 5402TIP3   OH237620   4.304   3.691   0.335 -0.1166 -0.6675  0.1501
 5402TIP3    H137621   4.248   3.654   0.403 -0.4534 -1.3204 -0.4649
 5402TIP3    H237622   4.252   3.682   0.254  0.1611  0.3346 -0.1579
 5403TIP3   OH237623   3.867   3.775   3.978  0.1537 -0.1278 -0.0258
 5403TIP3    H137624   3.903   3.743   4.060  2.9263 -2.2739 -1.8616
 5403TIP3    H237625   3.865   3.870   3.988  2.2628 -0.2047  1.8655
 5404TIP3   OH237626   2.005   2.288  11.110  0.1408 -0.0629 -0.4315
 5404TIP3    H137627   2.067   2.345  11.156 -0.1347 -0.0778 -0.0367
 5404TIP3    H237628   2.056   2.251  11.038  0.0598  1.4401 -1.3049
 5405TIP3   OH237629   1.952   0.677   0.750  0.0822  0.3351  0.0074
 5405TIP3    H137630   1.991   0.611   0.809  2.0140  1.0202 -0.4504
 5405TIP3    H237631   1.910   0.625   0.681 -0.4167 -0.4359  0.8576
 5406TIP3   OH237632   0.235   4.977  14.389  0.0190 -0.2457 -0.3976
 5406TIP3    H137633   0.195   5.011  14.469 -2.2045 -1.2047 -1.0341
 5406TIP3    H237634   0.169   4.919  14.352 -0.0343  1.9707 -4.2115
 5407TIP3   OH237635   0.986   5.753  13.795  0.3189  0.0646 -0.0047
 5407TIP3    H137636   0.964   5.735  13.704  0.5043  1.3057 -0.3110
 5407TIP3    H237637   0.905   5.787  13.833  0.5979  0.8449 -0.0822
 5408TIP3   OH237638   6.203   1.766  11.721 -0.6239 -0.4790 -0.3223
 5408TIP3    H137639   6.293   1.758  11.753 -0.3249 -1.4584 -1.3389
 5408TIP3    H237640   6.149   1.741  11.796 -0.0543  0.0249  0.2701
 5409TIP3   OH237641   1.197   4.138  17.041 -0.0010  0.1912  0.1478
 5409TIP3    H137642   1.244   4.202  16.988  1.2884 -0.7870  0.0736
 5409TIP3    H237643   1.139   4.094  16.978  0.0542  0.3940 -0.0465
 5410TIP3   OH237644   4.071   0.364  13.087 -0.3434 -0.4595  0.3343
 5410TIP3    H137645   4.036   0.338  13.002  0.5748 -1.1040  0.1374
 5410TIP3    H237646   4.033   0.450  13.104 -0.9662 -0.5678 -0.4685
 5411TIP3   OH237647   2.247   0.640   2.737  0.0437 -0.7447  0.0457
 5411TIP3    H137648   2.272   0.548   2.735 -1.3328 -1.1387 -0.7913
 5411TIP3    H237649   2.209   0.653   2.824 -4.5226 -2.4319 -1.4012
 5412TIP3   OH237650   3.947   0.267   0.367 -0.3280 -0.2693 -0.0492
 5412TIP3    H137651   3.854   0.270   0.346 -0.2338 -1.5469 -0.7605
 5412TIP3    H237652   3.980   0.353   0.342 -1.4903  0.6064  1.2334
 5413TIP3   OH237653   5.341   1.872  16.623 -0.0926  0.2785  0.2351
 5413TIP3    H137654   5.294   1.807  16.675 -1.1651  1.1556  0.4104
 5413TIP3    H237655   5.430   1.871  16.659 -0.3882 -0.2902  0.9861
 5414TIP3   OH237656   4.893   6.748  15.324 -0.3169 -0.0618 -0.1083
 5414TIP3    H137657   4.959   6.767  15.390  0.1363  0.6071 -0.7289
 5414TIP3    H237658   4.944   6.724  15.246 -0.7688  1.0165 -0.7624
 5415TIP3   OH237659   4.484   1.983   2.088 -0.0490  0.5769  0.2264
 5415TIP3    H137660   4.563   1.973   2.035 -0.7578 -0.0706 -0.7520
 5415TIP3    H237661   4.461   1.893   2.112  0.0822  0.8422  1.3774
 5416TIP3   OH237662   3.058   4.089   4.482  0.4596  0.1783  0.6542
 5416TIP3    H137663   2.993   4.092   4.552 -0.6521  2.4896 -0.3587
 5416TIP3    H237664   3.015   4.038   4.413  0.4482  0.2022  0.6434
 5417TIP3   OH237665   4.086   1.721  15.263 -0.2135 -0.1265 -0.1376
 5417TIP3    H137666   4.168   1.741  15.218 -0.4929  3.1325  0.5446
 5417TIP3    H237667   4.020   1.771  15.216 -1.6512 -1.7684  0.0445
 5418TIP3   OH237668   4.360   6.068  12.390  0.3880 -0.0081 -0.1292
 5418TIP3    H137669   4.429   6.134  12.394 -1.2108  1.8822 -1.5344
 5418TIP3    H237670   4.306   6.095  12.316 -1.3534 -1.9437  0.3476
 5419TIP3   OH237671   1.101   3.844   3.107 -0.0115  0.6723 -0.1075
 5419TIP3    H137672   1.073   3.758   3.075  0.6945 -0.3159  1.8015
 5419TIP3    H237673   1.080   3.904   3.035 -0.8219 -1.0275 -1.3597
 5420TIP3   OH237674   2.751   2.021  10.661 -0.4481  0.0664 -0.2557
 5420TIP3    H137675   2.660   2.010  10.691 -0.6086 -1.2953 -1.1574
 5420TIP3    H237676   2.749   2.104  10.613 -0.9423  0.6117  0.6639
 5421TIP3   OH237677   4.070   3.778   3.434  0.5506 -0.6661 -0.2820
 5421TIP3    H137678   3.975   3.776   3.422  0.2534  1.7098  1.1039
 5421TIP3    H237679   4.085   3.845   3.501  3.3028  0.1573 -1.5649
 5422TIP3   OH237680   0.946   4.584   6.245  0.6819  0.3163 -0.1263
 5422TIP3    H137681   0.898   4.502   6.260 -0.2412  0.5022 -1.7025
 5422TIP3    H237682   1.014   4.586   6.312 -1.6244  0.1191  2.3892
 5423TIP3   OH237683   1.290   5.692   0.732  0.2465 -0.4145 -0.2440
 5423TIP3    H137684   1.307   5.676   0.640 -0.3248 -1.2012 -0.2159
 5423TIP3    H237685   1.309   5.609   0.775  1.2797  0.1588  0.4675
 5424TIP3   OH237686   4.038   3.465   4.357  0.4164  0.5943  0.4505
 5424TIP3    H137687   3.962   3.452   4.414 -1.2516  0.9315 -1.5569
 5424TIP3    H237688   4.030   3.397   4.290  1.5159  1.0560 -0.1792
 5425TIP3   OH237689   5.072   2.140   2.304 -0.3572 -0.1360  0.2774
 5425TIP3    H137690   5.115   2.218   2.267  1.3015 -0.5612  1.2338
 5425TIP3    H237691   5.098   2.069   2.246 -3.1383  0.1562 -1.5322
 5426TIP3   OH237692   2.749   6.663   3.828 -0.1307  0.0716  0.1631
 5426TIP3    H137693   2.763   6.754   3.852 -1.9002  0.5283 -0.3831
 5426TIP3    H237694   2.656   6.648   3.844  0.4456 -2.2078  2.0110
 5427TIP3   OH237695   6.392   4.259   2.134 -0.7378  0.0732 -0.4884
 5427TIP3    H137696   6.359   4.180   2.092  0.8395 -0.7545 -0.2247
 5427TIP3    H237697   6.313   4.306   2.162 -1.7045 -1.2189 -0.9744
 5428TIP3   OH237698   0.715   4.302  14.220 -0.6510  0.1574 -1.1238
 5428TIP3    H137699   0.737   4.295  14.313 -0.8341 -0.6197 -1.1267
 5428TIP3    H237700   0.750   4.386  14.192 -0.1096  0.1473 -0.4781
 5429TIP3   OH237701   2.052   6.749  14.897  0.0180  0.0615 -0.2231
 5429TIP3    H137702   1.999   6.670  14.909 -1.9926  1.5181  1.5000
 5429TIP3    H237703   2.049   6.766  14.803 -1.4677 -0.6888 -0.3448
 5430TIP3   OH237704   6.696   3.840   0.454  0.3128 -0.4803 -0.1803
 5430TIP3    H137705   6.739   3.787   0.521  0.0918 -0.4308  0.0014
 5430TIP3    H237706   6.715   3.931   0.480 -0.0648 -0.4544  0.0113
 5431TIP3   OH237707   4.380   4.303   6.231  0.3902  0.2919 -0.4888
 5431TIP3    H137708   4.363   4.369   6.298  1.3954 -1.2426  1.3735
 5431TIP3    H237709   4.294   4.285   6.193 -0.3466  0.6370  0.9549
 5432TIP3   OH237710   2.904   5.027   5.903  0.2070  0.4377 -0.1720
 5432TIP3    H137711   2.904   4.981   5.987 -1.8698  2.4194  1.0198
 5432TIP3    H237712   2.991   5.009   5.867  1.4977  0.1502  2.7652
 5433TIP3   OH237713   3.071   1.726   4.790 -0.0873 -0.5114 -0.3143
 5433TIP3    H137714   3.047   1.641   4.752  0.1097  0.2696 -2.2949
 5433TIP3    H237715   3.156   1.746   4.751  1.0147 -0.4371  1.9577
 5434TIP3   OH237716   0.982   2.373   2.820  0.4851 -0.4635 -0.1871
 5434TIP3    H137717   0.947   2.384   2.732 -0.4269 -0.5559  0.1521
 5434TIP3    H237718   1.074   2.398   2.813 -0.0018  1.3420 -0.7823
 5435TIP3   OH237719   5.252   2.326  16.032  0.2009  0.2114 -0.1160
 5435TIP3    H137720   5.191   2.345  16.103 -0.7679 -0.5468 -0.6947
 5435TIP3    H237721   5.248   2.403  15.975  1.1030  0.8880  0.7137
 5436TIP3   OH237722   6.184   4.234  14.243  0.7457 -0.0339 -0.0411
 5436TIP3    H137723   6.267   4.199  14.209  0.7881 -0.8525  0.8804
 5436TIP3    H237724   6.117   4.191  14.190  0.8969  1.0384 -1.1613
 5437TIP3   OH237725   2.064   3.667   3.079 -0.6614 -0.0387 -0.1233
 5437TIP3    H137726   2.004   3.734   3.045 -0.6076  1.0077  1.7200
 5437TIP3    H237727   2.091   3.700   3.165  1.1718 -1.3513 -0.1374
 5438TIP3   OH237728   3.111   4.827  13.587  0.3062 -0.0456 -0.1441
 5438TIP3    H137729   3.130   4.916  13.617  0.1015  1.3840 -3.8071
 5438TIP3    H237730   3.052   4.791  13.654 -2.4074  3.8153 -0.1492
 5439TIP3   OH237731   5.781   6.295  15.570  0.1128  0.7442 -0.1511
 5439TIP3    H137732   5.770   6.363  15.504  2.5357  1.0337 -0.3514
 5439TIP3    H237733   5.749   6.215  15.527  3.2474  0.5609 -2.4964
 5440TIP3   OH237734   1.365   1.276   0.810 -0.2721  1.2012  0.1405
 5440TIP3    H137735   1.386   1.369   0.819  1.2018  1.4157 -3.6475
 5440TIP3    H237736   1.424   1.244   0.741 -1.3239 -2.3529  0.6763
 5441TIP3   OH237737   5.822   0.764   0.450  0.2012  0.5580 -0.3874
 5441TIP3    H137738   5.750   0.705   0.471  0.8845 -0.2378 -0.2534
 5441TIP3    H237739   5.863   0.725   0.373 -0.2874  1.7043 -1.2664
 5442TIP3   OH237740   0.608   6.535   1.042 -0.3013 -0.4553 -0.0348
 5442TIP3    H137741   0.555   6.590   0.984  2.0478  1.7044 -0.3422
 5442TIP3    H237742   0.644   6.467   0.985  0.9162  0.8540 -0.9015
 5443TIP3   OH237743   6.047   4.804   5.282 -0.3881 -0.4173 -0.6731
 5443TIP3    H137744   6.079   4.714   5.272 -0.0515 -0.8776  3.1980
 5443TIP3    H237745   5.951   4.796   5.279 -0.4067 -1.1905  1.0365
 5444TIP3   OH237746   6.468   4.162  12.876  0.0708  0.0277 -0.5961
 5444TIP3    H137747   6.547   4.199  12.836 -0.0584  0.3059 -0.5961
 5444TIP3    H237748   6.472   4.189  12.968 -0.0652  0.1128 -0.6154
 5445TIP3   OH237749   3.318   5.290   2.767  0.3149  0.2951  0.1595
 5445TIP3    H137750   3.403   5.245   2.764 -0.0121 -0.2620 -1.3169
 5445TIP3    H237751   3.296   5.292   2.860  2.4510  1.4412  0.7137
 5446TIP3   OH237752   6.299   6.619   3.368  0.4284  0.0789 -0.2787
 5446TIP3    H137753   6.306   6.638   3.461 -0.7622 -1.1382  0.0946
 5446TIP3    H237754   6.352   6.687   3.325  1.3924  0.3686  1.2933
 5447TIP3   OH237755   6.509   5.938  14.527  0.3687 -0.0619 -0.1033
 5447TIP3    H137756   6.552   5.937  14.441 -1.4453 -1.2812 -1.0483
 5447TIP3    H237757   6.581   5.929  14.590  1.6650  0.0110 -1.5241
 5448TIP3   OH237758   5.365   5.363   0.162 -0.3960  0.5495 -0.2201
 5448TIP3    H137759   5.406   5.278   0.175 -2.0280  0.0058  1.7939
 5448TIP3    H237760   5.414   5.422   0.220  1.2177  1.2565 -2.1486
 5449TIP3   OH237761   0.788   2.573  11.211  0.0173  0.9216 -0.0425
 5449TIP3    H137762   0.850   2.505  11.185 -3.1415 -1.2065 -2.7380
 5449TIP3    H237763   0.737   2.534  11.282 -1.1061  0.8439 -0.8684
 5450TIP3   OH237764   1.799   4.144   0.170  0.4035  0.2079 -0.4168
 5450TIP3    H137765   1.796   4.071   0.232  1.0245 -0.6065 -1.3144
 5450TIP3    H237766   1.892   4.163   0.160  0.3357  0.1148 -1.3225
 5451TIP3   OH237767   2.042   5.797  12.579  0.9876  0.3239 -0.1582
 5451TIP3    H137768   2.107   5.774  12.512  0.6946 -2.3237  0.3669
 5451TIP3    H237769   1.964   5.821  12.529  1.8333  1.9762 -0.7674
 5452TIP3   OH237770   6.187   3.638  11.310  0.2206  0.1015  0.6417
 5452TIP3    H137771   6.269   3.659  11.266  1.2483 -1.6879  1.6155
 5452TIP3    H237772   6.121   3.688  11.262  1.9049  1.9300  0.1226
 5453TIP3   OH237773   0.531   1.399  12.196  0.4560  0.6462 -0.8006
 5453TIP3    H137774   0.538   1.383  12.290 -1.0477 -0.4308 -0.8326
 5453TIP3    H237775   0.588   1.332  12.156  1.4436  1.3837 -0.6724
 5454TIP3   OH237776   1.654   6.027   2.061 -0.4119 -0.2932  1.1023
 5454TIP3    H137777   1.581   6.005   2.004 -0.0715  1.2088  0.0405
 5454TIP3    H237778   1.671   6.119   2.044  1.1396 -0.3795  2.0183
 5455TIP3   OH237779   1.264   4.366  12.962  0.1781  0.2757 -0.2872
 5455TIP3    H137780   1.226   4.403  13.041  0.1737 -0.9317  0.2948
 5455TIP3    H237781   1.215   4.285  12.946  1.2456 -0.3402 -0.5852
 5456TIP3   OH237782   1.380   1.743  14.180  0.2982 -0.2814 -0.3594
 5456TIP3    H137783   1.290   1.741  14.213 -0.2136 -0.1478 -1.6808
 5456TIP3    H237784   1.417   1.823  14.218 -0.7801  0.7228 -1.3056
 5457TIP3   OH237785   1.642   2.620   2.605 -0.4418  0.4575  0.1927
 5457TIP3    H137786   1.632   2.601   2.698 -1.0888  0.3440  0.1002
 5457TIP3    H237787   1.553   2.622   2.571 -0.1588 -1.0538 -0.7315
 5458TIP3   OH237788   5.292   3.065  12.037  0.3212  0.1145  0.4881
 5458TIP3    H137789   5.205   3.099  12.055  0.2747 -0.3605  1.1896
 5458TIP3    H237790   5.278   2.977  12.002  0.5742 -1.2800  3.6209
 5459TIP3   OH237791   6.033   3.968  13.754 -0.1889  0.3786 -0.1255
 5459TIP3    H137792   6.097   4.019  13.703  0.2019 -0.5619 -0.6026
 5459TIP3    H237793   5.949   3.985  13.712 -0.3127  1.8085  0.6444
 5460TIP3   OH237794   5.278   2.377   5.552  0.1012 -0.1795  0.4195
 5460TIP3    H137795   5.312   2.374   5.642 -1.1524 -0.4084  0.8968
 5460TIP3    H237796   5.197   2.428   5.559 -0.3749 -0.8032 -0.4643
 5461TIP3   OH237797   6.638   5.688  12.519  0.0347 -0.6322  0.3664
 5461TIP3    H137798   6.656   5.620  12.454 -0.4457 -1.2960  0.9129
 5461TIP3    H237799   6.554   5.663  12.557  0.2565 -0.1969  1.1660
 5462TIP3   OH237800   2.640   4.295  14.414  0.2049 -0.3712 -0.3064
 5462TIP3    H137801   2.571   4.232  14.391  1.2928 -1.5858 -0.3534
 5462TIP3    H237802   2.703   4.289  14.342 -0.1849  1.5948 -0.8615
 5463TIP3   OH237803   1.934   6.545   5.494  0.4860  0.0961  0.1314
 5463TIP3    H137804   1.961   6.454   5.479  0.4307  0.0713  0.1778
 5463TIP3    H237805   1.839   6.539   5.507  0.4457  0.1950 -0.1286
 5464TIP3   OH237806   6.708   0.514   3.945  0.5488 -0.3467  0.1168
 5464TIP3    H137807   6.778   0.564   3.987  0.5474 -0.7417  0.6001
 5464TIP3    H237808   6.628   0.564   3.965  0.7926  0.7244 -1.3917
 5465TIP3   OH237809   4.661   1.023  13.028 -0.5310  0.2754  0.4692
 5465TIP3    H137810   4.614   1.099  13.064  0.0489  2.2215 -2.5052
 5465TIP3    H237811   4.754   1.045  13.041 -0.3671 -0.4951  0.6168
 5466TIP3   OH237812   1.649   3.388   5.463  0.5492  0.1166  0.5297
 5466TIP3    H137813   1.585   3.320   5.485  1.1139 -1.2951 -1.8412
 5466TIP3    H237814   1.719   3.341   5.417  1.1209  2.2218 -0.8877
 5467TIP3   OH237815   6.454   6.282  12.997  0.4180  0.4765 -0.4534
 5467TIP3    H137816   6.410   6.333  13.065  0.8305 -0.6775  0.7446
 5467TIP3    H237817   6.521   6.233  13.045  0.5229 -0.5979 -1.6606
 5468TIP3   OH237818   0.635   3.962  15.562  0.0830 -0.0299  0.2370
 5468TIP3    H137819   0.618   3.983  15.470 -0.9784 -0.3915  0.3364
 5468TIP3    H237820   0.548   3.954  15.601  0.5220  0.1568  1.2882
 5469TIP3   OH237821   0.997   5.334  16.404 -0.3724 -0.5152 -0.3745
 5469TIP3    H137822   1.003   5.334  16.499  0.6239 -0.1977 -0.4205
 5469TIP3    H237823   0.904   5.349  16.386 -0.4638  0.1209  0.5437
 5470TIP3   OH237824   6.506   2.671   6.700  0.7109 -0.5853  0.6421
 5470TIP3    H137825   6.495   2.578   6.678  0.1252 -0.2090 -0.7569
 5470TIP3    H237826   6.502   2.673   6.796 -0.2082 -1.9027  0.6653
 5471TIP3   OH237827   5.575   4.873   3.108  0.0498  0.2175  0.2802
 5471TIP3    H137828   5.502   4.812   3.118  2.1015 -2.1012  2.8541
 5471TIP3    H237829   5.535   4.952   3.071 -3.2415 -1.7231 -0.7917
 5472TIP3   OH237830   1.285   3.112  12.824 -0.8093 -0.3062 -0.2779
 5472TIP3    H137831   1.377   3.138  12.815 -0.2694 -1.4547  1.3425
 5472TIP3    H237832   1.275   3.037  12.766 -0.8854  0.1759 -0.8907
 5473TIP3   OH237833   1.819   0.301   5.817  0.2755  0.0790  0.2090
 5473TIP3    H137834   1.848   0.379   5.864  1.7475  0.8720 -1.8673
 5473TIP3    H237835   1.748   0.332   5.760  1.8033  0.3181 -1.6728
 5474TIP3   OH237836   1.384   3.610   3.608 -0.3840 -0.2967  0.3761
 5474TIP3    H137837   1.348   3.581   3.692 -1.5466  1.3661  0.5038
 5474TIP3    H237838   1.365   3.538   3.548  0.0492 -1.3143  1.4152
 5475TIP3   OH237839   1.130   5.809   4.052  0.0493  0.2307  0.0256
 5475TIP3    H137840   1.059   5.752   4.081  0.6723 -1.3957 -1.4725
 5475TIP3    H237841   1.119   5.815   3.957  1.3657  0.7305 -0.1191
 5476TIP3   OH237842   0.071   6.520   0.311 -0.2009 -0.5041 -0.1736
 5476TIP3    H137843   0.059   6.446   0.251 -1.4826  0.4141 -1.1099
 5476TIP3    H237844   0.164   6.521   0.330  0.3486 -0.5975 -2.5275
 5477TIP3   OH237845   5.213   2.370   2.194  0.1469  0.0460 -0.0133
 5477TIP3    H137846   5.146   2.438   2.186  0.7992  0.6837 -0.1499
 5477TIP3    H237847   5.274   2.405   2.259  0.1588 -0.6888  0.3733
 5478TIP3   OH237848   5.685   0.424   4.320 -0.2526 -0.3334 -0.4985
 5478TIP3    H137849   5.750   0.384   4.378  1.8257  1.7345 -1.2327
 5478TIP3    H237850   5.694   0.376   4.237 -0.4666 -0.7802 -0.2639
 5479TIP3   OH237851   3.223   4.849  10.534 -0.2466  0.2659 -0.1005
 5479TIP3    H137852   3.210   4.760  10.565  0.5618  0.3591  0.5482
 5479TIP3    H237853   3.135   4.883  10.520 -0.5624 -0.5855 -0.2173
 5480TIP3   OH237854   0.123   5.784  14.515 -1.2308 -0.3221 -0.4420
 5480TIP3    H137855   0.196   5.810  14.570 -1.3419 -1.4914  0.2978
 5480TIP3    H237856   0.100   5.863  14.466  0.6882 -0.0164 -0.9015
 5481TIP3   OH237857   4.734   4.906   3.317 -0.3145  0.4451  0.1801
 5481TIP3    H137858   4.746   4.842   3.388 -1.7127 -0.2871 -0.2043
 5481TIP3    H237859   4.793   4.978   3.340  0.0171 -0.2130  1.5490
 5482TIP3   OH237860   1.197   1.015  15.297 -0.0919  0.2644 -0.3588
 5482TIP3    H137861   1.190   1.018  15.393  0.1722  1.2571 -0.3634
 5482TIP3    H237862   1.176   0.924  15.275 -0.1761  0.0257  0.6378
 5483TIP3   OH237863   3.970   2.836  12.942 -0.4153 -0.0902 -0.2852
 5483TIP3    H137864   3.970   2.741  12.935  0.1682  0.0153 -2.4975
 5483TIP3    H237865   3.988   2.867  12.853  1.9252  2.0485  0.7822
 5484TIP3   OH237866   5.506   2.212   3.896 -0.0104 -0.5541  0.2669
 5484TIP3    H137867   5.437   2.177   3.952 -0.1864 -1.3117 -0.4136
 5484TIP3    H237868   5.584   2.212   3.951 -0.2992 -0.7872  0.6783
 5485TIP3   OH237869   3.064   4.551   4.243  0.3143  0.0213 -0.0913
 5485TIP3    H137870   3.081   4.474   4.297  0.5586 -0.7239 -1.1974
 5485TIP3    H237871   3.008   4.606   4.297 -0.7710 -1.4216  0.3254
 5486TIP3   OH237872   1.804   6.574   6.182 -0.0167 -0.6485  0.0279
 5486TIP3    H137873   1.798   6.596   6.089 -0.2979 -4.0843 -0.8996
 5486TIP3    H237874   1.731   6.621   6.222 -0.5203  0.0950 -1.6454
 5487TIP3   OH237875   2.582   5.313   4.247  0.4717  0.6802  0.0959
 5487TIP3    H137876   2.652   5.259   4.209  0.7831  1.0880  0.0791
 5487TIP3    H237877   2.591   5.301   4.341  0.5472  0.7094  0.0928
 5488TIP3   OH237878   4.156   0.722   0.732 -0.8294  0.0807 -0.2186
 5488TIP3    H137879   4.199   0.711   0.817 -1.3091 -1.4664 -0.1475
 5488TIP3    H237880   4.162   0.816   0.714 -0.1625  0.3409  1.2238
 5489TIP3   OH237881   0.580   3.530   5.192  0.1142  0.0703 -0.1320
 5489TIP3    H137882   0.566   3.579   5.110  1.1524  0.4532 -0.1049
 5489TIP3    H237883   0.492   3.505   5.220 -0.3062  0.3957 -1.0858
 5490TIP3   OH237884   0.394   1.971   5.719 -0.4668  0.3020  0.4013
 5490TIP3    H137885   0.329   2.033   5.752  0.1308  2.1626 -1.7185
 5490TIP3    H237886   0.343   1.911   5.665 -0.5868  1.1262 -0.4198
 5491TIP3   OH237887   0.000   0.669   0.326 -0.8282  0.2880 -0.3234
 5491TIP3    H137888   0.057   0.717   0.265 -1.7142  1.2200 -0.4338
 5491TIP3    H237889   0.037   0.580   0.327 -0.0553  0.5740 -1.2642
 5492TIP3   OH237890   3.276   2.676  16.776  0.1439  0.4033  0.7405
 5492TIP3    H137891   3.318   2.758  16.802  0.4216  0.5739 -0.2163
 5492TIP3    H237892   3.182   2.694  16.779  0.1523  0.3177  1.9230
 5493TIP3   OH237893   4.973   5.129   3.945 -0.4780  0.5820 -0.2378
 5493TIP3    H137894   4.936   5.214   3.918 -1.6077 -0.3382 -1.7470
 5493TIP3    H237895   4.995   5.085   3.863  1.4917 -0.0284  0.5644
 5494TIP3   OH237896   4.528   5.077  16.687 -0.3863 -0.0192  0.0759
 5494TIP3    H137897   4.494   5.007  16.632  1.0108 -0.3944 -0.3654
 5494TIP3    H237898   4.553   5.146  16.625  4.1162 -1.6495 -0.2616
 5495TIP3   OH237899   6.441   3.606  14.809 -0.7754 -0.4273  0.2508
 5495TIP3    H137900   6.432   3.522  14.854 -0.5598  0.0373  1.1883
 5495TIP3    H237901   6.478   3.665  14.875 -0.6767  0.3411 -0.4692
 5496TIP3   OH237902   4.964   3.486  14.312  0.3895 -0.0448  0.2244
 5496TIP3    H137903   4.975   3.574  14.347 -1.8439  0.8604 -1.2158
 5496TIP3    H237904   5.027   3.481  14.240 -0.0703  0.6890 -0.2361
 5497TIP3   OH237905   6.335   4.585  16.336  0.1373  0.3136  0.2944
 5497TIP3    H137906   6.285   4.624  16.408  1.7872 -0.6472  2.0117
 5497TIP3    H237907   6.426   4.592  16.363  0.9729  1.3592 -2.4421
 5498TIP3   OH237908   0.795   2.605   0.139  0.1298 -0.7586  0.5061
 5498TIP3    H137909   0.871   2.556   0.110 -1.3557 -1.6796 -2.1678
 5498TIP3    H237910   0.809   2.618   0.233  2.2280 -3.3050  0.6610
 5499TIP3   OH237911   0.350   5.245   3.819  0.1574 -0.6371 -0.3624
 5499TIP3    H137912   0.437   5.216   3.793  0.4629  0.8058 -1.0841
 5499TIP3    H237913   0.326   5.190   3.893  1.3747 -1.5300 -0.6122
 5500TIP3   OH237914   6.112   2.680   4.213 -0.6424 -0.5973  0.1880
 5500TIP3    H137915   6.028   2.716   4.241 -0.4944  0.8871 -1.1885
 5500TIP3    H237916   6.164   2.756   4.188  1.4170 -1.4027  1.6911
 5501TIP3   OH237917   1.497   2.039   0.836  0.0614  0.3440  0.6355
 5501TIP3    H137918   1.433   2.109   0.832 -0.7213 -0.1893  2.5604
 5501TIP3    H237919   1.538   2.038   0.749 -1.0304  2.0862  0.0569
 5502TIP3   OH237920   2.943   2.463  15.582  0.2966  0.1855  0.1434
 5502TIP3    H137921   2.950   2.527  15.511 -0.6868 -0.3234 -0.4212
 5502TIP3    H237922   2.902   2.512  15.654 -0.3359  0.2219 -0.2407
 5503TIP3   OH237923   3.906   5.234  14.467  0.3602 -0.1387  0.3487
 5503TIP3    H137924   3.813   5.211  14.472  0.2060  0.4349  0.2725
 5503TIP3    H237925   3.907   5.329  14.483  0.7288  0.2231 -1.5734
 5504TIP3   OH237926   3.965   3.429  13.984 -0.7942  0.3286  0.3644
 5504TIP3    H137927   3.976   3.463  13.895  0.3831 -0.2751  0.2555
 5504TIP3    H237928   3.983   3.335  13.975  0.4249  0.4327  1.4075
 5505TIP3   OH237929   0.221   5.980   0.129 -0.0538  0.1699 -0.2318
 5505TIP3    H137930   0.207   5.961   0.222  0.5762 -1.6188 -0.4734
 5505TIP3    H237931   0.243   5.896   0.090 -0.7961  0.8007 -2.1164
 5506TIP3   OH237932   2.498   2.041  10.686 -0.3300 -0.3479  0.0666
 5506TIP3    H137933   2.445   1.962  10.696  1.8667 -1.9248 -0.0445
 5506TIP3    H237934   2.440   2.112  10.711 -2.3611 -1.9915  0.2929
 5507TIP3   OH237935   0.644   5.029  15.410  0.4024 -0.5026  0.5532
 5507TIP3    H137936   0.692   5.009  15.491 -0.0162  2.3242  1.6028
 5507TIP3    H237937   0.604   5.114  15.426 -0.3160 -0.1700 -2.4069
 5508TIP3   OH237938   4.039   1.857  17.084 -0.2099 -0.1374  0.2290
 5508TIP3    H137939   4.125   1.844  17.042  0.8224  1.4461  1.7265
 5508TIP3    H237940   4.030   1.782  17.143 -0.3864 -0.9038 -0.7588
 5509TIP3   OH237941   3.238   1.384   4.969 -1.0331 -0.4502  0.4029
 5509TIP3    H137942   3.209   1.375   4.879  0.0572 -1.6677  0.1314
 5509TIP3    H237943   3.334   1.383   4.963 -0.9297  0.8405  1.4560
 5510TIP3   OH237944   0.348   5.106   4.079  0.0651 -0.0839 -0.8847
 5510TIP3    H137945   0.334   5.026   4.129  1.0870 -0.2220 -0.7830
 5510TIP3    H237946   0.275   5.163   4.101  0.3400 -0.2631  0.5365
 5511TIP3   OH237947   6.251   4.471   4.981 -0.1188  0.1255  0.2396
 5511TIP3    H137948   6.167   4.483   5.026  0.1815 -0.9768  1.1325
 5511TIP3    H237949   6.314   4.455   5.052  1.1138  2.1819 -0.3030
 5512TIP3   OH237950   4.331   0.641   4.051 -0.2789 -0.4224 -0.9577
 5512TIP3    H137951   4.375   0.584   4.114  0.8942  1.9292  0.4729
 5512TIP3    H237952   4.250   0.667   4.094 -1.0368 -1.2647 -1.7962
 5513TIP3   OH237953   3.741   5.097  11.018  0.0701  0.0505 -0.2047
 5513TIP3    H137954   3.661   5.103  11.071  0.8438  0.2244  0.9666
 5513TIP3    H237955   3.742   5.005  10.989 -0.6472  0.0903 -0.3886
 5514TIP3   OH237956   5.966   1.985   5.555  0.6467  0.0060 -0.5646
 5514TIP3    H137957   5.939   1.925   5.485  0.6260 -0.4331 -0.1803
 5514TIP3    H237958   5.939   2.071   5.524 -2.7607 -0.5529  0.5215
 5515TIP3   OH237959   3.759   1.427  15.855 -0.0267 -0.0075  0.8860
 5515TIP3    H137960   3.788   1.395  15.769  0.9014 -0.6738  1.4249
 5515TIP3    H237961   3.809   1.374  15.918 -0.1701  0.9549  1.8333
 5516TIP3   OH237962   3.529   2.008   0.928  0.2201  0.5678 -0.3340
 5516TIP3    H137963   3.598   1.997   0.862  0.7616 -0.0549  0.3017
 5516TIP3    H237964   3.462   1.944   0.904 -0.5807  1.7982 -1.4742
 5517TIP3   OH237965   0.171   3.151   2.980 -0.0741 -0.6572  0.1171
 5517TIP3    H137966   0.142   3.096   2.907  0.1269  2.0181 -2.1175
 5517TIP3    H237967   0.265   3.163   2.964  0.1607 -0.7434  1.3540
 5518TIP3   OH237968   3.475   2.304  13.875  0.1952 -0.4674 -0.0770
 5518TIP3    H137969   3.502   2.333  13.788  1.2446  2.0367  1.0016
 5518TIP3    H237970   3.503   2.374  13.934 -0.3671 -2.1229  2.3168
 5519TIP3   OH237971   2.963   0.066   2.984  0.3470 -0.5161 -0.1154
 5519TIP3    H137972   2.928   0.041   2.898 -0.2802 -0.9627  0.2555
 5519TIP3    H237973   2.995   0.155   2.972  2.3923 -1.3577 -1.4152
 5520TIP3   OH237974   2.596   6.032   2.033  0.7050  0.2049  1.2246
 5520TIP3    H137975   2.528   6.024   2.100 -1.0417 -0.1178 -0.4918
 5520TIP3    H237976   2.624   6.123   2.038 -0.8099  0.7078  1.1399
 5521TIP3   OH237977   1.025   0.335  12.074  0.3231  0.0808 -0.1722
 5521TIP3    H137978   1.096   0.301  12.018 -0.6622  2.1462 -2.8976
 5521TIP3    H237979   0.950   0.279  12.054 -0.1351  1.0562 -1.3361
 5522TIP3   OH237980   2.183   0.163   2.382 -0.0969 -0.0062 -0.4356
 5522TIP3    H137981   2.118   0.099   2.411  0.0576  0.3255  0.6858
 5522TIP3    H237982   2.263   0.112   2.368 -0.3576 -0.2777 -0.9826
 5523TIP3   OH237983   3.231   0.353   1.314  0.1994  0.0262 -0.1719
 5523TIP3    H137984   3.300   0.373   1.251  0.1591 -0.1095 -0.2604
 5523TIP3    H237985   3.269   0.287   1.372  0.1727  0.0094 -0.1730
 5524TIP3   OH237986   2.592   3.875  12.987  0.6483 -0.3868  0.2329
 5524TIP3    H137987   2.624   3.807  13.046  0.7289  0.0355  0.6840
 5524TIP3    H237988   2.625   3.957  13.024  2.6975 -0.2602 -1.6837
 5525TIP3   OH237989   4.232   0.169  15.273 -0.4143  0.0900  0.0453
 5525TIP3    H137990   4.210   0.224  15.197  0.0369  0.0416 -0.1214
 5525TIP3    H237991   4.147   0.136  15.303 -0.7614  1.3022  0.4753
 5526TIP3   OH237992   0.107   0.821   0.146 -0.7213  0.2181 -0.3873
 5526TIP3    H137993   0.102   0.793   0.054 -2.1455  0.2897 -0.3461
 5526TIP3    H237994   0.053   0.900   0.150  1.5395  1.8698 -0.0538
 5527TIP3   OH237995   4.141   0.005  16.752  0.9520  0.1311  0.4565
 5527TIP3    H137996   4.198   0.013  16.675  0.6682  0.0177  0.2349
 5527TIP3    H237997   4.053   0.017  16.719  0.8701  0.7040  0.8680
 5528TIP3   OH237998   3.879   5.490   4.047  0.1667 -0.1309 -0.3741
 5528TIP3    H137999   3.832   5.573   4.041 -0.7310 -0.4895  1.0590
 5528TIP3    H238000   3.904   5.470   3.957 -0.1449  1.3734 -0.8240
 5529TIP3   OH238001   3.630   1.194  15.507 -0.3124  0.3297  0.3093
 5529TIP3    H138002   3.606   1.109  15.544 -2.2701  1.7079  2.5053
 5529TIP3    H238003   3.556   1.217  15.452 -0.4878  1.2231  0.8994
 5530TIP3   OH238004   4.439   6.185   0.553 -0.1422  0.5552 -0.1346
 5530TIP3    H138005   4.523   6.191   0.598  0.2506  0.3675 -0.8201
 5530TIP3    H238006   4.422   6.091   0.548  0.8576  0.4229 -2.1983
 5531TIP3   OH238007   0.745   2.017  16.379 -0.4148 -0.0527  0.2624
 5531TIP3    H138008   0.786   1.949  16.325  0.2294 -0.1480  0.8493
 5531TIP3    H238009   0.654   1.990  16.386  0.1198 -1.6990  1.6909
 5532TIP3   OH238010   1.739   6.646  17.158 -0.3099  0.9115 -0.0498
 5532TIP3    H138011   1.792   6.665  17.080  0.9233 -2.0511 -0.0954
 5532TIP3    H238012   1.799   6.658  17.231 -0.0242 -0.6935  0.0302
 5533TIP3   OH238013   4.857   4.749   6.656 -0.0346 -0.3114  0.0841
 5533TIP3    H138014   4.861   4.839   6.688  0.2363 -0.1596 -0.3664
 5533TIP3    H238015   4.944   4.733   6.619 -0.7188 -0.0531 -1.7211
 5534TIP3   OH238016   0.752   0.952  12.325 -0.4931  0.3859 -0.2802
 5534TIP3    H138017   0.752   1.030  12.381 -0.3212 -2.4120  4.1724
 5534TIP3    H238018   0.840   0.917  12.332 -1.0278 -1.1293 -0.6310
 5535TIP3   OH238019   2.432   0.147  14.168  0.1814 -0.0346  0.4577
 5535TIP3    H138020   2.360   0.207  14.147 -0.3041 -0.5027  0.7345
 5535TIP3    H238021   2.481   0.192  14.236  0.0052  0.1888  0.4396
 5536TIP3   OH238022   3.250   5.678  12.832  0.4456 -0.0761 -0.3428
 5536TIP3    H138023   3.164   5.720  12.829  0.3707  0.0423  1.9487
 5536TIP3    H238024   3.236   5.593  12.792 -0.2973  0.5977 -1.5986
 5537TIP3   OH238025   5.694   1.534  16.912 -0.1199  0.6286 -0.3648
 5537TIP3    H138026   5.679   1.494  16.997  1.6345 -0.4729 -0.5301
 5537TIP3    H238027   5.698   1.628  16.929  0.9006  0.3755  0.8813
 5538TIP3   OH238028   4.596   6.517   5.526 -0.0738 -0.1561  0.3467
 5538TIP3    H138029   4.530   6.560   5.581 -0.4732 -0.3810  0.0480
 5538TIP3    H238030   4.595   6.566   5.444 -0.2414 -0.4849  0.1515
 5539TIP3   OH238031   0.960   5.941  12.362 -0.1066  0.5204  0.0590
 5539TIP3    H138032   1.018   5.931  12.287 -0.5664  0.5482 -0.3048
 5539TIP3    H238033   1.018   5.957  12.436  0.4262 -0.6797 -0.0697
 5540TIP3   OH238034   1.582   3.671  17.192  0.4582 -0.1719  0.2098
 5540TIP3    H138035   1.496   3.702  17.163 -0.0049 -0.7838  0.8882
 5540TIP3    H238036   1.643   3.739  17.162 -0.1815  0.0077 -0.7610
 5541TIP3   OH238037   0.370   1.004  14.195  0.3935 -0.4136  0.0091
 5541TIP3    H138038   0.359   0.911  14.219 -1.6696 -0.9687 -2.6437
 5541TIP3    H238039   0.299   1.048  14.241  0.1135 -0.4827 -0.3592
 5542TIP3   OH238040   0.057   2.935  16.798 -0.2985 -0.0632  0.5904
 5542TIP3    H138041   0.045   2.940  16.892 -1.3997  1.8101  0.3924
 5542TIP3    H238042  -0.018   2.885  16.766  0.9035 -2.1383  0.7898
 5543TIP3   OH238043   0.137   6.338   3.845 -0.4657 -0.6281 -0.7124
 5543TIP3    H138044   0.189   6.349   3.766 -1.2628 -1.5662 -1.3913
 5543TIP3    H238045   0.052   6.377   3.824  0.0970  1.4408  0.5885
 5544TIP3   OH238046   5.900   0.476  16.213  0.2378 -0.5825  0.5617
 5544TIP3    H138047   5.816   0.521  16.214  0.0346 -0.9232 -0.2151
 5544TIP3    H238048   5.950   0.517  16.142  0.8412 -0.1915  1.2007
 5545TIP3   OH238049   5.163   2.134   5.629  0.0788  0.1675  0.2866
 5545TIP3    H138050   5.247   2.110   5.668 -1.9634 -2.1489  3.8733
 5545TIP3    H238051   5.160   2.230   5.637  2.8977  0.5262 -1.4871
 5546TIP3   OH238052   4.604   5.737  11.569  0.7764  0.1098 -0.6605
 5546TIP3    H138053   4.539   5.798  11.603 -0.5567 -1.2708 -0.6427
 5546TIP3    H238054   4.677   5.743  11.631 -0.6322 -0.6279  1.1589
 5547TIP3   OH238055   4.701   0.360  13.885 -0.1363  0.5921  0.2035
 5547TIP3    H138056   4.689   0.389  13.794 -2.4496  0.1920  0.3242
 5547TIP3    H238057   4.697   0.441  13.936 -2.9588  0.5205  0.2355
 5548TIP3   OH238058   3.259   4.088  11.667 -0.3526  0.8076  0.2198
 5548TIP3    H138059   3.287   4.062  11.755 -0.3211 -0.8198 -0.2251
 5548TIP3    H238060   3.164   4.093  11.672 -0.6454 -2.2817 -0.3065
 5549TIP3   OH238061   1.780   1.822   1.899  0.4974 -0.3965 -0.3544
 5549TIP3    H138062   1.704   1.765   1.886  1.6373 -1.3047 -4.7788
 5549TIP3    H238063   1.745   1.911   1.889 -0.1250 -0.7825 -1.8945
 5550TIP3   OH238064   2.896   5.226  15.473  0.1648 -0.0828  0.1620
 5550TIP3    H138065   2.842   5.148  15.486  0.3930 -0.3333 -0.3539
 5550TIP3    H238066   2.985   5.193  15.463  0.2283  0.2219 -0.3279
 5551TIP3   OH238067   2.558   4.789  13.062 -0.6730  0.1737 -1.0052
 5551TIP3    H138068   2.524   4.699  13.055 -2.8798  0.8764  0.0531
 5551TIP3    H238069   2.556   4.808  13.155 -0.2077  1.3305 -1.2220
 5552TIP3   OH238070   4.925   5.886  15.342 -0.1195  0.0846  0.2373
 5552TIP3    H138071   4.849   5.940  15.360 -0.2797  0.4110 -1.2610
 5552TIP3    H238072   4.968   5.875  15.427 -1.3768  0.5772  0.9612
 5553TIP3   OH238073   2.128   5.827  17.234  0.3171  0.0305 -0.0015
 5553TIP3    H138074   2.043   5.788  17.215 -0.8993  2.4179  0.1924
 5553TIP3    H238075   2.189   5.782  17.176 -0.9351 -2.1661  0.3061
 5554TIP3   OH238076   6.023   2.160   0.136  0.5332 -0.1443 -0.7083
 5554TIP3    H138077   6.081   2.235   0.154  1.8516 -1.0522 -1.0177
 5554TIP3    H238078   6.026   2.149   0.041 -2.2643  1.3823 -1.0840
 5555TIP3   OH238079   3.044   1.756   2.486  0.4260  0.3639  0.6667
 5555TIP3    H138080   3.128   1.712   2.470  0.2105  0.2044 -0.0565
 5555TIP3    H238081   3.043   1.829   2.425 -0.6677 -0.5976 -0.5107
 5556TIP3   OH238082   0.100   3.159   3.245  0.0099  0.5575  0.3908
 5556TIP3    H138083   0.036   3.229   3.254 -0.1275  0.4055  0.5938
 5556TIP3    H238084   0.118   3.154   3.151 -1.0384 -0.0878  0.2156
 5557TIP3   OH238085   1.470   3.809   2.900  0.1277 -0.1005  0.2105
 5557TIP3    H138086   1.544   3.866   2.882 -0.8379  1.6751  1.5164
 5557TIP3    H238087   1.495   3.760   2.978  0.5432 -0.7182 -0.3004
 5558TIP3   OH238088   1.467   0.518  14.926 -0.2213  0.1785  0.1734
 5558TIP3    H138089   1.553   0.540  14.962 -0.1536 -0.6123  0.5079
 5558TIP3    H238090   1.484   0.452  14.860 -0.5387  0.2534  0.0137
 5559TIP3   OH238091   3.007   6.076   2.071  0.1813 -0.6367 -0.1998
 5559TIP3    H138092   3.040   6.095   2.159  0.9933 -0.4318 -0.5383
 5559TIP3    H238093   2.943   6.006   2.084  0.5423 -0.8466  0.5184
 5560TIP3   OH238094   5.386   3.584   5.048 -0.5813 -0.7684  0.4433
 5560TIP3    H138095   5.292   3.581   5.032 -0.5053  0.5965 -0.5033
 5560TIP3    H238096   5.416   3.659   4.996  0.9524 -0.8945  1.0991
 5561TIP3   OH238097   1.037   5.835  14.926 -0.1539 -0.3815  0.7470
 5561TIP3    H138098   1.030   5.899  14.997  0.4489  1.5096 -0.7985
 5561TIP3    H238099   0.970   5.770  14.945  0.3062 -0.2107  3.2800
 5562TIP3   OH238100   2.346   4.262   2.811 -0.4469  0.0308  0.1958
 5562TIP3    H138101   2.334   4.285   2.719  2.0097  0.3852 -0.0893
 5562TIP3    H238102   2.381   4.173   2.809  0.8167  0.5014  0.7018
 5563TIP3   OH238103   1.738   5.414  15.038 -0.1526 -0.0373 -0.3684
 5563TIP3    H138104   1.791   5.455  14.970 -0.6889  1.8315  0.2685
 5563TIP3    H238105   1.667   5.476  15.053 -1.0456 -1.2628  0.6252
 5564TIP3   OH238106   6.130   4.744  15.375 -0.5156  0.5832  0.1579
 5564TIP3    H138107   6.064   4.755  15.444 -1.6335  1.1768 -0.9749
 5564TIP3    H238108   6.104   4.664  15.330  1.2521 -0.8152  1.5000
 5565TIP3   OH238109   1.453   1.196   5.141 -0.1723  0.3910  0.0005
 5565TIP3    H138110   1.467   1.199   5.046  0.4892 -0.3880  0.0695
 5565TIP3    H238111   1.417   1.282   5.162 -1.2190  0.2499 -1.0960
 5566TIP3   OH238112   2.600   4.494  11.313  0.1655  0.3619  0.8839
 5566TIP3    H138113   2.588   4.558  11.243  1.6489  0.0203  0.3000
 5566TIP3    H238114   2.566   4.412  11.277  1.3009  0.0955  0.4005
 5567TIP3   OH238115   5.997   4.056   5.967  0.2685  0.2938  0.1403
 5567TIP3    H138116   6.070   3.997   5.986 -0.7068 -1.1565 -0.3874
 5567TIP3    H238117   5.954   4.069   6.051  0.8648  0.7892  0.3743
 5568TIP3   OH238118   6.598   1.246  16.384 -0.3623  0.6981 -0.0650
 5568TIP3    H138119   6.619   1.187  16.456  1.8214 -2.2050 -2.8260
 5568TIP3    H238120   6.648   1.326  16.404 -2.8706  1.6895  3.3980
 5569TIP3   OH238121   4.283   0.857  11.838  0.5638 -0.2158  0.6148
 5569TIP3    H138122   4.269   0.935  11.785  1.4179 -0.5632 -0.1557
 5569TIP3    H238123   4.194   0.826  11.860  0.1703 -0.3237 -1.0230
 5570TIP3   OH238124   6.575   4.480   2.231  0.0322 -0.5148 -0.0766
 5570TIP3    H138125   6.517   4.404   2.221 -1.6747  0.5514  1.3136
 5570TIP3    H238126   6.649   4.446   2.282 -1.0851 -1.0993  1.2177
 5571TIP3   OH238127   3.595   4.507   4.268  0.1220  0.5497 -0.2585
 5571TIP3    H138128   3.582   4.596   4.237  0.7996  0.8312  0.2568
 5571TIP3    H238129   3.525   4.493   4.332 -0.2858  0.5342 -0.7059
 5572TIP3   OH238130   5.398   1.370   1.561  0.1655  0.3707 -0.5352
 5572TIP3    H138131   5.465   1.385   1.628 -0.3829  0.6444 -0.0345
 5572TIP3    H238132   5.337   1.307   1.601  0.3365 -0.1820 -1.1370
 5573TIP3   OH238133   6.177   4.026  15.665  0.1386  0.5308 -0.1232
 5573TIP3    H138134   6.211   4.113  15.688 -0.8252  0.8713  0.0548
 5573TIP3    H238135   6.248   3.986  15.615  2.5024 -0.3722  3.5383
 5574TIP3   OH238136   3.410   0.383   5.144  0.6320  0.0139 -0.0933
 5574TIP3    H138137   3.392   0.426   5.228  0.1925 -0.2230 -0.0634
 5574TIP3    H238138   3.353   0.428   5.081 -1.1158 -1.5955  0.2346
 5575TIP3   OH238139   6.678   4.111  12.622 -0.0155 -0.2051  0.1200
 5575TIP3    H138140   6.654   4.021  12.600 -0.1671 -0.5927  1.7371
 5575TIP3    H238141   6.754   4.102  12.679 -0.4030  0.6576  0.7931
 5576TIP3   OH238142   2.592   5.923   1.606  0.3197  0.1388 -0.4347
 5576TIP3    H138143   2.627   6.010   1.588  1.9280 -0.9175 -2.9091
 5576TIP3    H238144   2.608   5.873   1.526 -2.4990 -1.8858  0.0837
 5577TIP3   OH238145   4.969   3.394   2.869 -0.3323  0.1570  0.0509
 5577TIP3    H138146   4.878   3.366   2.863 -0.4569  0.8218 -2.1129
 5577TIP3    H238147   4.978   3.430   2.958 -1.6320 -1.5938  0.9435
 5578TIP3   OH238148   6.040   1.627   3.058 -0.0128 -0.3230 -0.0481
 5578TIP3    H138149   5.964   1.679   3.033 -0.2516  0.4136  2.0340
 5578TIP3    H238150   6.007   1.568   3.126  1.2340 -0.0628  0.8161
 5579TIP3   OH238151   2.114   4.981   6.256 -0.3770 -0.0392 -0.1573
 5579TIP3    H138152   2.202   4.982   6.292 -0.2100 -1.8552 -0.4066
 5579TIP3    H238153   2.065   5.044   6.309  0.1899 -1.5674  2.3532
 5580TIP3   OH238154   1.804   1.498  11.297  0.1107  0.1835 -0.0437
 5580TIP3    H138155   1.740   1.566  11.321 -0.2191 -0.3772  0.7043
 5580TIP3    H238156   1.795   1.432  11.365 -0.1461 -1.0080 -1.2023
 5581TIP3   OH238157   0.351   6.200   3.527 -0.3919 -0.3221  0.5755
 5581TIP3    H138158   0.256   6.200   3.528 -0.3986 -0.8432  0.4106
 5581TIP3    H238159   0.375   6.107   3.518  0.0886 -0.0317 -2.2290
 5582TIP3   OH238160   2.994   4.017  12.028 -0.4481  0.0572  0.0914
 5582TIP3    H138161   3.040   3.970  12.098  0.2989  0.3686 -0.1756
 5582TIP3    H238162   3.017   3.970  11.948 -0.1548  0.5256 -0.1061
 5583TIP3   OH238163   2.769   2.560  15.113 -0.0530  0.3606  0.1208
 5583TIP3    H138164   2.735   2.544  15.201  1.6767  0.8345  0.9134
 5583TIP3    H238165   2.841   2.498  15.103  0.8896  1.4779 -0.2661
 5584TIP3   OH238166   1.393   6.114   5.277 -0.0167 -0.1672 -0.4355
 5584TIP3    H138167   1.476   6.156   5.302  0.2817 -0.9498 -0.0710
 5584TIP3    H238168   1.389   6.123   5.182  0.5787 -0.2869 -0.4758
 5585TIP3   OH238169   4.930   4.567  11.591 -0.5364  0.0053 -0.5056
 5585TIP3    H138170   4.879   4.491  11.617 -0.8521 -0.2318 -1.7172
 5585TIP3    H238171   4.886   4.599  11.512 -0.7439  1.7780  0.2701
 5586TIP3   OH238172   0.230   0.795  12.533 -0.1482  0.0826  0.7810
 5586TIP3    H138173   0.280   0.809  12.613 -0.4163 -0.1213  0.9867
 5586TIP3    H238174   0.163   0.863  12.534  1.7815  2.1190 -0.8683
 5587TIP3   OH238175   0.349   2.196   0.193  0.5326 -0.1759 -0.8999
 5587TIP3    H138176   0.380   2.219   0.281 -0.6699  0.2169 -0.5660
 5587TIP3    H238177   0.302   2.273   0.163  0.3161 -0.5732 -1.5983
 5588TIP3   OH238178   0.593   6.571  16.328  0.4424  0.2888 -0.9496
 5588TIP3    H138179   0.567   6.651  16.375  1.2847  0.2792 -0.4348
 5588TIP3    H238180   0.517   6.549  16.274 -0.4704  0.4477  0.2154
 5589TIP3   OH238181   4.001   1.882  10.983  0.0703 -0.1999 -0.4462
 5589TIP3    H138182   3.958   1.823  10.922 -0.1852 -2.5765  1.8305
 5589TIP3    H238183   4.088   1.895  10.947  0.0937 -1.9299 -1.1181
 5590TIP3   OH238184   0.947   2.777  16.646 -0.7271 -0.3483  0.6924
 5590TIP3    H138185   0.908   2.768  16.732 -0.7505 -0.8895  0.6276
 5590TIP3    H238186   1.011   2.848  16.656  0.3428 -1.3838  1.5460
 5591TIP3   OH238187   1.737   1.952   2.920 -0.2179  0.4778  0.6256
 5591TIP3    H138188   1.727   2.046   2.935  0.9859  0.8986 -0.8566
 5591TIP3    H238189   1.648   1.919   2.908 -0.5894  1.6341  0.1228
 5592TIP3   OH238190   2.308   1.570  15.794 -0.2648  0.3872 -0.4924
 5592TIP3    H138191   2.245   1.508  15.758 -0.0155 -0.0519 -0.1937
 5592TIP3    H238192   2.266   1.655  15.787 -0.4624  0.2333 -1.2538
 5593TIP3   OH238193   3.261   3.578   3.859  0.0819 -0.4238  0.2411
 5593TIP3    H138194   3.182   3.615   3.896 -0.3144 -0.6319 -0.3726
 5593TIP3    H238195   3.314   3.552   3.934 -0.1824  0.2350  0.6569
 5594TIP3   OH238196   4.847   1.197   4.539  0.1166  0.0320 -0.4918
 5594TIP3    H138197   4.932   1.171   4.502  0.3581  1.0108 -0.6587
 5594TIP3    H238198   4.830   1.284   4.501 -0.5076  0.2526  0.2671
 5595TIP3   OH238199   2.362   6.303   0.030  0.8739 -0.5266 -0.3803
 5595TIP3    H138200   2.297   6.289   0.098 -0.3194  0.7346 -1.2015
 5595TIP3    H238201   2.344   6.391  -0.003  3.4187  0.1455 -0.2190
 5596TIP3   OH238202   2.903   5.832   0.432 -0.2788 -0.0061  0.1770
 5596TIP3    H138203   2.904   5.888   0.355 -0.0587 -1.4061 -0.8786
 5596TIP3    H238204   2.810   5.823   0.454 -0.5604 -1.4496 -1.3773
 5597TIP3   OH238205   2.045   4.632  15.689  0.6561  0.0309 -0.4603
 5597TIP3    H138206   2.116   4.655  15.629  0.6982  1.5911  0.1419
 5597TIP3    H238207   2.004   4.715  15.710 -1.6875 -0.8767 -1.1529
 5598TIP3   OH238208   5.702   4.328   2.480  0.6370  0.0202  0.2329
 5598TIP3    H138209   5.765   4.256   2.468  0.4118 -0.3368  1.1341
 5598TIP3    H238210   5.745   4.404   2.440  1.7779 -0.1563  1.0799
 5599TIP3   OH238211   4.496   0.054   2.317 -0.3556  0.0365  0.0720
 5599TIP3    H138212   4.457  -0.010   2.376 -0.5438 -0.2154 -0.3216
 5599TIP3    H238213   4.447   0.135   2.333  0.0004  0.1347  0.6979
 5600TIP3   OH238214   2.735   0.703   1.123  0.1805 -0.6475  0.2048
 5600TIP3    H138215   2.709   0.789   1.090  0.5877 -0.0953  1.2755
 5600TIP3    H238216   2.683   0.690   1.202  0.6088 -1.0856  0.4253
 5601TIP3   OH238217   3.113   1.166  12.211 -0.4504  0.4792  0.1219
 5601TIP3    H138218   3.111   1.130  12.123  0.2903  0.9633 -0.1024
 5601TIP3    H238219   3.154   1.252  12.201 -1.1138  0.8900  0.8198
 5602TIP3   OH238220   1.191   2.969   5.017  0.3189 -0.1068 -0.7948
 5602TIP3    H138221   1.116   2.910   5.025 -0.2880  0.5395 -1.4827
 5602TIP3    H238222   1.176   3.034   5.086  0.7235 -0.4695 -0.3595
 5603TIP3   OH238223   2.727   6.194  16.132  0.0550 -0.4717  0.6709
 5603TIP3    H138224   2.686   6.123  16.083 -0.0908 -0.7059  1.1219
 5603TIP3    H238225   2.797   6.226  16.075 -0.6568 -0.1650 -0.0466
 5604TIP3   OH238226   2.221   2.046   4.298 -0.5807 -0.2755  0.5800
 5604TIP3    H138227   2.164   1.980   4.336 -0.8004 -0.1995  0.3830
 5604TIP3    H238228   2.309   2.021   4.326 -0.4866 -1.4727 -0.6814
 5605TIP3   OH238229   5.493   2.902   0.023  0.0630 -0.2814  0.2713
 5605TIP3    H138230   5.532   2.865   0.103  0.1880 -0.6824  0.0250
 5605TIP3    H238231   5.495   2.997   0.037  0.5717 -0.3257  0.5185
 5606TIP3   OH238232   3.038   3.005   1.250  0.0041 -0.3172 -0.4971
 5606TIP3    H138233   2.978   3.075   1.225 -0.3617  0.2212  1.7056
 5606TIP3    H238234   3.110   3.013   1.187 -0.6713  1.1666 -1.1439
 5607TIP3   OH238235   6.512   6.364  14.187  0.1860  0.3162 -0.0890
 5607TIP3    H138236   6.470   6.431  14.241 -1.1346  0.1790 -0.9021
 5607TIP3    H238237   6.470   6.282  14.214 -0.0527  0.1699 -0.8684
 5608TIP3   OH238238   4.501   0.042   1.807 -0.1602  0.3676 -0.0954
 5608TIP3    H138239   4.520   0.106   1.876 -1.6380  0.2524  0.4576
 5608TIP3    H238240   4.434   0.084   1.753  0.0792 -0.0487 -0.7300
 5609TIP3   OH238241   6.656   5.912  16.114 -0.6303 -0.2099 -0.3578
 5609TIP3    H138242   6.615   5.983  16.064  0.1787 -1.0922 -2.4140
 5609TIP3    H238243   6.707   5.864  16.048  1.3258 -0.8710  1.5482
 5610TIP3   OH238244   4.657   0.128  11.095 -0.0165 -0.3694 -0.0798
 5610TIP3    H138245   4.678   0.137  11.188  0.9473 -0.0620 -0.3178
 5610TIP3    H238246   4.637   0.035  11.084 -0.2557 -0.3827  0.4592
 5611TIP3   OH238247   4.943   3.211  14.357 -0.7717  0.2164  0.2363
 5611TIP3    H138248   4.948   3.306  14.347  2.3591  0.1475  0.0086
 5611TIP3    H238249   4.977   3.176  14.275 -1.2904 -1.0936  0.5522
 5612TIP3   OH238250   6.182   1.552  13.315  0.5300  0.9348 -0.0300
 5612TIP3    H138251   6.174   1.569  13.222  2.4539  2.5864  0.0354
 5612TIP3    H238252   6.160   1.636  13.357 -0.9003  0.0635  1.0801
 5613TIP3   OH238253   2.210   0.945  13.713  0.2778  0.6139 -0.3920
 5613TIP3    H138254   2.204   1.024  13.767 -2.8497  0.0879  0.2050
 5613TIP3    H238255   2.246   0.879  13.772 -1.7738  0.4149  0.7400
 5614TIP3   OH238256   1.999   6.015   3.283 -0.7835 -0.2767 -0.2266
 5614TIP3    H138257   2.059   5.975   3.346 -0.5014  0.6308  0.0931
 5614TIP3    H238258   1.954   5.941   3.242 -2.0442 -0.8656  2.0699
 5615TIP3   OH238259   1.174   5.488  12.822 -0.0221  0.0412 -0.0487
 5615TIP3    H138260   1.198   5.402  12.854  1.4212  0.4809  0.1116
 5615TIP3    H238261   1.255   5.526  12.789 -0.7582  1.0671 -0.7724
 5616TIP3   OH238262   4.974   1.291   5.063 -0.1812  0.7632  0.1727
 5616TIP3    H138263   4.944   1.260   4.978 -0.6269 -0.5573  0.7831
 5616TIP3    H238264   5.054   1.340   5.044 -1.0702  1.7839 -1.1563
 5617TIP3   OH238265   1.018   2.105  15.904  0.0366  0.5038  0.7120
 5617TIP3    H138266   1.105   2.086  15.938 -0.3355  0.2859  1.5538
 5617TIP3    H238267   0.960   2.097  15.979 -0.5086  2.3113  0.5373
 5618TIP3   OH238268   1.911   2.432   2.931  0.0935  0.1974 -0.3163
 5618TIP3    H138269   1.949   2.352   2.966 -0.0722 -0.1548 -0.9297
 5618TIP3    H238270   1.975   2.500   2.952 -0.7440  0.3081  2.1223
 5619TIP3   OH238271   1.146   3.232  11.344  0.7856  0.4242 -0.2441
 5619TIP3    H138272   1.205   3.302  11.371  0.0065  0.9934  0.0135
 5619TIP3    H238273   1.068   3.243  11.398  1.2959 -1.7064  1.0549
 5620TIP3   OH238274   1.056   0.855   1.383 -0.1094 -0.6056 -0.1287
 5620TIP3    H138275   1.103   0.781   1.344 -2.7459 -2.4035 -0.0787
 5620TIP3    H238276   1.125   0.919   1.401  2.5933 -3.6243  1.3558
 5621TIP3   OH238277   5.642   1.575  16.596  0.1084 -0.0128  0.3019
 5621TIP3    H138278   5.550   1.550  16.600 -0.2619  0.7637 -1.9949
 5621TIP3    H238279   5.689   1.492  16.588 -0.7334 -0.3143 -2.4109
 5622TIP3   OH238280   5.992   1.842  13.940  0.2335 -0.1068  0.2867
 5622TIP3    H138281   5.930   1.847  13.867  0.5541 -2.1342 -0.1665
 5622TIP3    H238282   5.947   1.887  14.012 -0.3333  1.4148 -0.9568
 5623TIP3   OH238283   2.643   6.029  12.921 -0.1068  0.1595 -0.1716
 5623TIP3    H138284   2.693   5.949  12.931 -2.4771 -1.2475  1.1795
 5623TIP3    H238285   2.672   6.065  12.837  0.2643 -2.6897 -1.3629
 5624TIP3   OH238286   2.592   3.935   3.507  0.2167 -0.5692  0.1229
 5624TIP3    H138287   2.618   3.920   3.416  0.1195  0.8592 -0.1633
 5624TIP3    H238288   2.621   4.025   3.526 -1.7970  0.0013  0.7456
 5625TIP3   OH238289   5.061   3.995   1.248 -0.4457 -0.5768  0.1306
 5625TIP3    H138290   5.119   4.049   1.194 -1.5400  1.6412  1.0407
 5625TIP3    H238291   5.104   3.990   1.333 -0.1647 -1.5184 -0.0545
 5626TIP3   OH238292   2.384   0.805  14.421  0.6124  0.1451  0.1331
 5626TIP3    H138293   2.429   0.752  14.353 -0.4884 -0.1949 -0.3481
 5626TIP3    H238294   2.391   0.895  14.389  1.9796  0.2498  0.6595
 5627TIP3   OH238295   4.365   4.423  11.296 -0.0935 -0.1512  0.6655
 5627TIP3    H138296   4.403   4.497  11.344  3.2707 -0.6953 -0.9113
 5627TIP3    H238297   4.303   4.464  11.235 -0.4866  1.0193  1.7912
 5628TIP3   OH238298   3.229   0.379  16.420 -0.1069 -0.1519 -0.2182
 5628TIP3    H138299   3.243   0.296  16.465 -2.4759  0.0117  0.9899
 5628TIP3    H238300   3.198   0.353  16.333  1.8030 -0.4710 -0.8514
 5629TIP3   OH238301   2.324   0.186  15.273 -0.1044  0.5520 -0.6468
 5629TIP3    H138302   2.380   0.264  15.270  1.3779 -0.3858  0.7235
 5629TIP3    H238303   2.338   0.150  15.361  0.0378 -1.8128 -1.5724
 5630TIP3   OH238304   3.520   0.432   6.280 -0.2494 -0.0585 -0.1286
 5630TIP3    H138305   3.473   0.359   6.320 -1.1776  0.3172 -0.4871
 5630TIP3    H238306   3.606   0.396   6.259  0.5577 -0.0742  2.7773
 5631TIP3   OH238307   1.823   5.668  11.892  0.9042 -0.2314 -0.5001
 5631TIP3    H138308   1.780   5.603  11.948 -0.8317  1.0728 -0.2201
 5631TIP3    H238309   1.915   5.645  11.895  0.4766 -1.9867  0.5041
 5632TIP3   OH238310   6.173   4.845  16.366 -0.1252  0.2118  0.3420
 5632TIP3    H138311   6.189   4.938  16.382 -2.6406  0.8259 -0.2721
 5632TIP3    H238312   6.194   4.803  16.449  0.4205  1.4127  0.8357
 5633TIP3   OH238313   4.974   6.700   5.802  0.1901 -0.1071  0.4760
 5633TIP3    H138314   4.990   6.609   5.824  1.0569 -0.0165  0.2358
 5633TIP3    H238315   5.002   6.709   5.711 -0.9719  0.1307  0.1219
 5634TIP3   OH238316   5.306   0.134  12.814  0.2985 -0.1398 -0.0096
 5634TIP3    H138317   5.342   0.046  12.827 -3.3614 -1.7158  0.8616
 5634TIP3    H238318   5.239   0.142  12.882 -1.1568  2.3723 -1.5829
 5635TIP3   OH238319   5.755   4.902  16.651 -0.0201  0.0765  0.1294
 5635TIP3    H138320   5.817   4.970  16.680  0.6623 -1.1864  1.7930
 5635TIP3    H238321   5.691   4.950  16.598  1.1114  1.8084  0.2111
 5636TIP3   OH238322   0.487   3.380  12.154 -0.2177  0.0958 -0.0567
 5636TIP3    H138323   0.409   3.324  12.146 -0.1029  0.0840 -1.2932
 5636TIP3    H238324   0.554   3.335  12.102  0.3455  0.5811  0.2457
 5637TIP3   OH238325   2.130   1.710   2.472  0.1645  0.4110  0.8899
 5637TIP3    H138326   2.133   1.711   2.377  0.7818  0.4956  0.9062
 5637TIP3    H238327   2.072   1.782   2.495 -0.5456 -0.0424  0.5652
 5638TIP3   OH238328   4.865   2.107  11.895 -1.0399  0.4916  0.2076
 5638TIP3    H138329   4.818   2.149  11.967 -0.2129  1.6066  0.1109
 5638TIP3    H238330   4.847   2.162  11.819 -1.6338 -0.4949 -0.4023
 5639TIP3   OH238331   6.345   0.353   1.128  0.0280 -0.4248 -0.0137
 5639TIP3    H138332   6.357   0.447   1.114 -1.7730 -0.3715 -1.6593
 5639TIP3    H238333   6.433   0.318   1.138  0.7263  1.8150  4.0377
 5640TIP3   OH238334   2.947   5.824  15.310  0.0019 -0.2497 -0.0817
 5640TIP3    H138335   2.944   5.797  15.218 -2.5661  0.2956 -0.2475
 5640TIP3    H238336   2.860   5.804  15.344  0.1104  1.7374  1.5754
 5641TIP3   OH238337   5.428   2.399   2.963 -0.2292  0.2434 -0.3734
 5641TIP3    H138338   5.487   2.439   2.899 -0.6868  0.8256 -0.4426
 5641TIP3    H238339   5.350   2.376   2.913 -0.2888 -0.0050 -0.1723
 5642TIP3   OH238340   4.150   2.500  15.803  0.1086 -0.1391 -0.0399
 5642TIP3    H138341   4.115   2.415  15.829  0.7324 -0.4372 -0.1429
 5642TIP3    H238342   4.104   2.563  15.857 -0.8677 -0.4792 -0.4540
 5643TIP3   OH238343   6.075   2.259   4.247 -0.1569 -0.4234 -0.5458
 5643TIP3    H138344   6.052   2.177   4.291  1.5385  0.8173  2.9848
 5643TIP3    H238345   6.154   2.238   4.197  0.3308 -0.9410  0.4253
 5644TIP3   OH238346   3.841   0.249   5.380  0.0630 -0.1567  0.8453
 5644TIP3    H138347   3.891   0.186   5.432  0.2211  0.9988  2.1417
 5644TIP3    H238348   3.890   0.331   5.388 -1.6947  0.8663  1.6350
 5645TIP3   OH238349   6.176   0.014   0.047 -0.0965 -0.0390  0.5835
 5645TIP3    H138350   6.256  -0.021   0.007  0.5286  1.2598  0.6618
 5645TIP3    H238351   6.135   0.064  -0.023 -0.5161 -0.1719  0.7336
 5646TIP3   OH238352   4.580   4.977  11.310 -0.4502  0.4790  0.6478
 5646TIP3    H138353   4.513   5.027  11.263  0.2303  0.3496 -0.5141
 5646TIP3    H238354   4.576   4.889  11.272  0.0618  0.3457  0.8850
 5647TIP3   OH238355   2.559   1.768  15.462 -0.0334  0.0758  0.6855
 5647TIP3    H138356   2.483   1.814  15.499 -0.3518 -1.1050  1.5931
 5647TIP3    H238357   2.630   1.787  15.523  0.0424  0.0605  0.6014
 5648TIP3   OH238358   2.803   4.128   5.910 -0.8066  0.0627  0.5610
 5648TIP3    H138359   2.762   4.157   5.829  1.0694  0.1182 -0.4287
 5648TIP3    H238360   2.825   4.208   5.956  0.1917  0.1284  0.0079
 5649TIP3   OH238361   1.532   3.999  16.967 -0.0444  0.4991  0.4840
 5649TIP3    H138362   1.607   3.960  16.921 -0.8368 -1.6329  0.8706
 5649TIP3    H238363   1.571   4.056  17.033  1.1586  1.6600 -1.1459
 5650TIP3   OH238364   0.560   1.934   3.772  0.1052 -0.0774  0.3043
 5650TIP3    H138365   0.635   1.984   3.740  0.7821  0.1694  2.1904
 5650TIP3    H238366   0.543   1.870   3.703  2.0333 -0.1335 -0.1771
 5651TIP3   OH238367   1.235   6.108  15.431  0.6932 -0.3419  0.0850
 5651TIP3    H138368   1.264   6.042  15.368  0.3904 -0.8764  0.4929
 5651TIP3    H238369   1.234   6.062  15.515  0.0798  0.0625  0.3095
 5652TIP3   OH238370   4.970   2.793   0.790 -0.0441  0.2979  0.4762
 5652TIP3    H138371   4.885   2.793   0.746  0.2743  0.9258 -0.1616
 5652TIP3    H238372   5.009   2.877   0.767  0.3890  0.3892  1.4818
 5653TIP3   OH238373   6.769   2.976  13.952  0.0105 -0.2015  0.6612
 5653TIP3    H138374   6.848   3.012  13.992  1.9945 -1.9968 -1.3881
 5653TIP3    H238375   6.741   3.043  13.889  0.2871  0.1536  0.9131
 5654TIP3   OH238376   2.975   0.517   4.338  0.0263  0.2641  0.0381
 5654TIP3    H138377   3.059   0.479   4.311  0.2799 -0.6978  2.0049
 5654TIP3    H238378   2.943   0.562   4.259  3.1491  2.0981 -0.3808
 5655TIP3   OH238379   6.340   3.438   0.205 -1.2374 -0.7164  0.2839
 5655TIP3    H138380   6.361   3.388   0.283  0.5377 -2.8311 -1.4036
 5655TIP3    H238381   6.414   3.422   0.146 -1.5159  2.4040 -1.1162
 5656TIP3   OH238382   2.574   2.661   3.240 -0.4278  0.0819  0.1110
 5656TIP3    H138383   2.531   2.646   3.324  0.3221 -0.0915  0.4780
 5656TIP3    H238384   2.644   2.724   3.260  0.1877 -0.4805 -0.2361
 5657TIP3   OH238385   1.977   2.790   0.701  0.3263 -0.0155 -0.4150
 5657TIP3    H138386   1.905   2.730   0.719 -0.4254  1.3967  1.6379
 5657TIP3    H238387   2.041   2.738   0.652 -2.3067 -1.1666 -2.9399
 5658TIP3   OH238388   5.875   5.217   5.897  0.3233  0.6535 -0.2539
 5658TIP3    H138389   5.790   5.188   5.930  0.3835  2.6172  1.8370
 5658TIP3    H238390   5.855   5.297   5.847  0.9677  1.4074  0.6704
 5659TIP3   OH238391   1.287   0.841  11.759 -0.0872 -0.2426 -0.7377
 5659TIP3    H138392   1.366   0.878  11.719  0.6768 -1.2577 -0.2015
 5659TIP3    H238393   1.236   0.810  11.684 -0.2904  0.9824 -1.1298
 5660TIP3   OH238394   4.924   1.583  16.621 -0.4133 -0.3830  0.2646
 5660TIP3    H138395   4.944   1.633  16.542  1.9073  0.3382  1.2123
 5660TIP3    H238396   4.862   1.515  16.592 -1.8013  1.5355 -1.5488
 5661TIP3   OH238397   5.785   4.315   5.539 -0.1253  0.0450 -0.1687
 5661TIP3    H138398   5.733   4.395   5.536  1.1130  0.8594 -0.5668
 5661TIP3    H238399   5.801   4.300   5.632 -0.5642  0.1329 -0.0803
 5662TIP3   OH238400   1.310   3.979  14.733 -0.7831 -0.0784 -0.1339
 5662TIP3    H138401   1.341   4.006  14.820 -2.9514  0.2038  0.6182
 5662TIP3    H238402   1.237   4.038  14.714  0.3260  0.6084 -2.7107
 5663TIP3   OH238403   5.983   3.753  16.375  0.3375  0.2688  0.0163
 5663TIP3    H138404   6.044   3.695  16.329 -1.4092  1.2774 -4.0232
 5663TIP3    H238405   6.030   3.836  16.383  0.2880  0.4491 -1.2632
 5664TIP3   OH238406   4.679   1.124   2.418 -0.0932 -0.3357 -0.1254
 5664TIP3    H138407   4.756   1.117   2.362  0.5326  0.7088  0.5572
 5664TIP3    H238408   4.620   1.183   2.370  0.5708  0.8080  0.4031
 5665TIP3   OH238409   6.459   0.096  14.359  0.4329 -0.7507  0.3217
 5665TIP3    H138410   6.522   0.168  14.368 -1.1684  0.9501 -1.0445
 5665TIP3    H238411   6.383   0.125  14.410 -1.7026  0.4863 -3.2067
 5666TIP3   OH238412   3.170   5.818  14.443  1.1100 -0.7648 -0.0221
 5666TIP3    H138413   3.180   5.912  14.433  0.5527 -0.7364 -0.3283
 5666TIP3    H238414   3.110   5.808  14.517 -1.0747 -0.7941 -1.6966
 5667TIP3   OH238415   3.165   1.951   4.160  0.1199 -0.3181 -0.1295
 5667TIP3    H138416   3.238   1.996   4.202  0.7579 -1.8181  0.4620
 5667TIP3    H238417   3.091   2.011   4.169  1.4159  1.5606 -1.3980
 5668TIP3   OH238418   2.441   1.149   1.570  0.2270 -0.2800 -0.2413
 5668TIP3    H138419   2.531   1.170   1.598  0.0921  0.3863 -0.2887
 5668TIP3    H238420   2.407   1.231   1.536 -0.2149 -0.6716 -0.7539
 5669TIP3   OH238421   6.648   2.091  11.896  0.0991 -0.1195 -0.2903
 5669TIP3    H138422   6.572   2.111  11.842 -1.8680 -2.5918  1.3491
 5669TIP3    H238423   6.628   2.130  11.981  1.3531  0.3932 -0.2090
 5670TIP3   OH238424   1.070   5.112   2.142  0.4154  0.1378  0.3318
 5670TIP3    H138425   1.130   5.187   2.138  0.4369  0.1802  1.2580
 5670TIP3    H238426   1.026   5.112   2.057  0.0976  1.4581  0.4789
 5671TIP3   OH238427   4.389   3.728  15.816  0.1072  0.1780 -0.1456
 5671TIP3    H138428   4.339   3.670  15.875  1.7850  0.5809  1.7878
 5671TIP3    H238429   4.369   3.816  15.847  0.6523  0.4165 -0.4698
 5672TIP3   OH238430   6.101   2.781  15.560 -0.0736 -0.2586  0.7372
 5672TIP3    H138431   6.104   2.690  15.589  0.5588  0.5085  3.3401
 5672TIP3    H238432   6.193   2.809  15.561 -0.4336  1.1299  2.7583
 5673TIP3   OH238433   4.249   3.547  14.945  0.5248 -0.3119 -0.1623
 5673TIP3    H138434   4.186   3.618  14.930  0.8109 -0.2833 -1.2927
 5673TIP3    H238435   4.332   3.582  14.912  0.5231 -1.4292 -1.4251
 5674TIP3   OH238436   1.932   4.599  15.394  0.2140  0.3929 -0.5313
 5674TIP3    H138437   1.922   4.532  15.461 -1.4834  0.2769 -0.8514
 5674TIP3    H238438   2.026   4.613  15.387  0.4895 -0.6221  0.8446
 5675TIP3   OH238439   4.043   3.246   2.882  0.2875  0.6363 -0.3417
 5675TIP3    H138440   3.967   3.187   2.883  0.3159  0.5930  0.4659
 5675TIP3    H238441   4.005   3.333   2.874  0.2286  0.5399 -1.2295
 5676TIP3   OH238442   2.197   1.714   3.583 -0.1263 -0.6630 -0.1450
 5676TIP3    H138443   2.191   1.621   3.561  0.2879 -0.9577  0.9188
 5676TIP3    H238444   2.173   1.759   3.502 -1.8070 -1.6924 -0.2785
 5677TIP3   OH238445   0.684   2.448  14.141  0.4854  0.2791  0.0313
 5677TIP3    H138446   0.706   2.541  14.133 -0.6874  0.4273 -2.2381
 5677TIP3    H238447   0.702   2.411  14.055 -0.6959 -1.2320  0.3824
 5678TIP3   OH238448   3.621   4.409  13.589  0.7561  0.8054  0.3674
 5678TIP3    H138449   3.705   4.453  13.603  1.8082 -0.5522 -1.3001
 5678TIP3    H238450   3.572   4.425  13.670  2.9446  0.9064  1.7595
 5679TIP3   OH238451   1.760   5.404  12.110 -0.1155  0.4591  0.1658
 5679TIP3    H138452   1.687   5.455  12.144  0.0127 -0.7772  2.4893
 5679TIP3    H238453   1.750   5.318  12.150  1.0210 -0.6223 -1.7533
 5680TIP3   OH238454   1.083   2.798   1.173  0.4137 -0.5904 -0.7941
 5680TIP3    H138455   1.034   2.845   1.105  0.1092  0.0192 -0.1626
 5680TIP3    H238456   1.018   2.742   1.216 -0.0771  1.1715  0.9067
 5681TIP3   OH238457   4.965   5.457   0.904 -0.1908 -0.4448 -0.3413
 5681TIP3    H138458   4.889   5.417   0.947 -0.7049 -1.0212 -1.7482
 5681TIP3    H238459   5.037   5.397   0.924 -0.2545 -0.3208  0.3133
 5682TIP3   OH238460   3.107   4.628   4.866  0.3129  0.2661 -0.1506
 5682TIP3    H138461   3.099   4.604   4.959 -0.2121  0.3782 -0.1645
 5682TIP3    H238462   3.035   4.690   4.851  0.8449  0.8185 -0.4494
 5683TIP3   OH238463   4.107   6.063  14.295  0.0870  0.1633  0.4623
 5683TIP3    H138464   4.157   5.999  14.244 -2.1584 -1.4525  0.1391
 5683TIP3    H238465   4.029   6.016  14.324 -0.0508  1.8069  3.1533
 5684TIP3   OH238466   6.621   5.096  15.074 -0.5575  1.0085  0.3878
 5684TIP3    H138467   6.699   5.071  15.025 -0.4732 -1.7155  1.7555
 5684TIP3    H238468   6.655   5.147  15.148 -0.0933  0.1507  0.7761
 5685TIP3   OH238469   5.943   4.489   3.091  0.5758 -0.9271  0.5851
 5685TIP3    H138470   6.033   4.497   3.122  0.4870 -0.2888  0.7086
 5685TIP3    H238471   5.890   4.528   3.161  0.3455  0.2294 -0.2012
 5686TIP3   OH238472   2.189   1.922   6.241 -0.0754  0.2438  0.5144
 5686TIP3    H138473   2.147   1.997   6.198 -0.7416 -0.8371 -0.8074
 5686TIP3    H238474   2.137   1.847   6.213  1.6336 -0.9353  0.3387
 5687TIP3   OH238475   5.185   0.266  14.326 -0.1966  0.5968 -0.0539
 5687TIP3    H138476   5.227   0.273  14.240  0.6729 -0.1647  0.2888
 5687TIP3    H238477   5.097   0.300  14.313 -0.0744  0.4943 -1.2450
 5688TIP3   OH238478   4.721   2.137   1.516 -0.2108 -0.0779 -0.4529
 5688TIP3    H138479   4.653   2.171   1.458 -0.1994  1.3197  0.2975
 5688TIP3    H238480   4.803   2.158   1.473 -0.2282 -1.2457 -1.0820
 5689TIP3   OH238481   0.222   4.032  11.504  0.2282  0.0415  0.1172
 5689TIP3    H138482   0.238   4.125  11.486  0.9649  0.1601  1.2948
 5689TIP3    H238483   0.208   3.994  11.418 -2.7149  1.6794 -0.2547
 5690TIP3   OH238484   2.664   3.280   1.320 -0.5104  0.1128 -0.4096
 5690TIP3    H138485   2.655   3.376   1.319 -0.3112  0.1334 -0.3181
 5690TIP3    H238486   2.683   3.259   1.411  1.3532  0.1784 -0.7480
 5691TIP3   OH238487   1.193   4.490  11.501  0.3586  1.0585  0.0577
 5691TIP3    H138488   1.250   4.555  11.461  0.4438  0.8598 -0.1444
 5691TIP3    H238489   1.251   4.417  11.522  0.5068  1.5526  1.4573
 5692TIP3   OH238490   2.203   3.132   3.826  0.4846 -0.7471  0.0738
 5692TIP3    H138491   2.243   3.161   3.745  0.9300 -0.2329  0.4649
 5692TIP3    H238492   2.153   3.053   3.803  1.6239 -1.3293 -0.4408
 5693TIP3   OH238493   3.128   2.101   2.931 -0.0855  0.2379  0.2122
 5693TIP3    H138494   3.033   2.106   2.946 -0.0846  1.0535  0.0087
 5693TIP3    H238495   3.148   2.182   2.884  0.5695 -0.3619 -0.5513
 5694TIP3   OH238496   1.033   0.937  12.799 -0.0297 -0.1145  0.3718
 5694TIP3    H138497   1.064   0.934  12.890 -1.0347 -2.1790  0.6930
 5694TIP3    H238498   1.007   0.848  12.779 -1.8467  0.6962 -1.2558
 5695TIP3   OH238499   6.501   4.101   2.406 -0.0531  0.0141 -0.2662
 5695TIP3    H138500   6.466   4.155   2.335  1.0058  2.3122  0.8292
 5695TIP3    H238501   6.575   4.055   2.366 -1.3945 -1.2496 -1.4025
 5696TIP3   OH238502   5.007   5.433  11.664  0.2970  0.1162  0.6313
 5696TIP3    H138503   5.051   5.376  11.601  1.9218  0.0870  1.7265
 5696TIP3    H238504   4.918   5.397  11.670  0.0830  0.1340 -1.6020
 5697TIP3   OH238505   0.051   6.329   0.111 -0.0235 -0.2311  0.5584
 5697TIP3    H138506   0.041   6.321   0.016 -1.6537  0.1307  0.6724
 5697TIP3    H238507  -0.038   6.319   0.146  0.6821 -1.4805  2.1443
 5698TIP3   OH238508   0.494   0.314  15.522  0.2176  0.2910 -0.4844
 5698TIP3    H138509   0.470   0.230  15.483  0.5052  0.5014 -1.1165
 5698TIP3    H238510   0.576   0.338  15.480  1.0389  0.0705  0.9403
 5699TIP3   OH238511   1.226   1.004   3.715 -0.2125  0.1899  0.6950
 5699TIP3    H138512   1.306   1.054   3.727 -0.9292  1.4942  0.2962
 5699TIP3    H238513   1.158   1.059   3.754 -0.7401 -1.5953  2.4834
 5700TIP3   OH238514   5.363   4.857   2.667  0.0899 -0.2310  0.0899
 5700TIP3    H138515   5.306   4.883   2.594 -0.3020 -0.4157  0.3236
 5700TIP3    H238516   5.305   4.856   2.743  0.2819 -0.9853  0.2307
 5701TIP3   OH238517   0.337   0.425   4.134 -0.5402  0.5551 -0.0514
 5701TIP3    H138518   0.312   0.470   4.053  0.6542  0.6936 -0.3598
 5701TIP3    H238519   0.331   0.493   4.201  2.3524  1.5549 -0.6961
 5702TIP3   OH238520   0.560   5.313   0.880  0.1548  0.5356 -0.1978
 5702TIP3    H138521   0.654   5.329   0.876  1.2037 -2.4673  4.4734
 5702TIP3    H238522   0.526   5.386   0.931  0.2490  0.7800 -0.4825
 5703TIP3   OH238523   2.325   5.076  16.961 -0.4368 -0.1813 -0.2878
 5703TIP3    H138524   2.385   5.005  16.984  0.1429  0.3119 -0.2463
 5703TIP3    H238525   2.275   5.042  16.887 -0.5011 -0.8106  0.0396
 5704TIP3   OH238526   4.653   3.130   2.907  0.0345  0.5581  0.0547
 5704TIP3    H138527   4.727   3.079   2.941 -1.4447 -1.2216  0.7431
 5704TIP3    H238528   4.624   3.184   2.980 -1.4655 -1.3038  0.9115
 5705TIP3   OH238529   6.403   6.541  16.291 -0.2742  0.5027  0.2148
 5705TIP3    H138530   6.410   6.594  16.212 -0.9011  1.0716  0.5301
 5705TIP3    H238531   6.459   6.586  16.355  0.5729 -0.1940 -0.0185
 5706TIP3   OH238532   3.711   3.731  15.175 -0.2164 -0.1771 -0.1217
 5706TIP3    H138533   3.679   3.816  15.203  0.5527 -0.7359  2.8096
 5706TIP3    H238534   3.645   3.669  15.206 -0.1829 -0.7585 -1.1643
 5707TIP3   OH238535   1.931   4.394  15.614  0.5177  0.6856  0.3031
 5707TIP3    H138536   1.972   4.473  15.648 -0.5579  0.6083  1.8391
 5707TIP3    H238537   1.896   4.349  15.691 -0.5008 -0.3530 -0.7213
 5708TIP3   OH238538   1.983   4.264  15.910 -0.0360  0.4198 -0.2731
 5708TIP3    H138539   2.066   4.286  15.867  0.0647 -0.0927 -0.3378
 5708TIP3    H238540   1.985   4.316  15.991  0.3891  0.3377 -0.2289
 5709TIP3   OH238541   5.753   6.308  15.133  0.1748  0.2153  0.2584
 5709TIP3    H138542   5.849   6.319  15.130  0.1790  0.4968  1.1526
 5709TIP3    H238543   5.738   6.223  15.093  0.7473  0.4615 -0.4983
 5710TIP3   OH238544   2.690   5.628   4.245  0.0852 -0.6673 -0.2574
 5710TIP3    H138545   2.709   5.682   4.321 -0.0051  0.0681 -0.7453
 5710TIP3    H238546   2.677   5.540   4.280 -2.6138  0.1091  0.9184
 5711TIP3   OH238547   0.067   5.385   5.417 -1.3580  0.1171  0.1082
 5711TIP3    H138548   0.120   5.450   5.370 -1.0949  0.9006  1.4247
 5711TIP3    H238549   0.104   5.301   5.392 -0.8922  0.5409 -0.6620
 5712TIP3   OH238550   2.218   6.229  14.807  0.1504 -0.5836  0.1824
 5712TIP3    H138551   2.157   6.288  14.851  0.7668  0.5155 -0.4003
 5712TIP3    H238552   2.176   6.208  14.724  0.5669  0.2106 -0.2392
 5713TIP3   OH238553   4.261   2.305  16.434 -0.4358 -0.0895 -0.2095
 5713TIP3    H138554   4.270   2.300  16.529 -2.1936  0.5694  0.0313
 5713TIP3    H238555   4.291   2.394  16.412 -1.4740  0.3175 -0.0462
 5714TIP3   OH238556   3.655   4.754   2.310  0.1718  0.2947 -0.2757
 5714TIP3    H138557   3.715   4.690   2.349 -0.7624 -0.2043  0.3788
 5714TIP3    H238558   3.590   4.701   2.264 -0.7009  0.7419  0.4022
 5715TIP3   OH238559   3.486   1.952   4.393  0.4499  0.6278  0.1453
 5715TIP3    H138560   3.434   2.013   4.341  0.9882  0.0397 -1.1053
 5715TIP3    H238561   3.459   1.865   4.363  1.9727  0.3020 -0.3960
 5716TIP3   OH238562   1.240   0.959   5.834 -0.2551 -0.5409 -0.4791
 5716TIP3    H138563   1.246   0.865   5.848  1.0474 -0.3792  0.2025
 5716TIP3    H238564   1.324   0.984   5.795 -0.7036  0.2929 -0.9506
 5717TIP3   OH238565   3.279   0.894   1.508 -0.7012 -0.3662 -0.2133
 5717TIP3    H138566   3.282   0.914   1.415  0.3241  0.0183 -0.1098
 5717TIP3    H238567   3.198   0.935   1.539 -0.2879  0.7879 -0.6418
 5718TIP3   OH238568   0.621   0.764   3.080 -0.1031 -0.2106 -0.5920
 5718TIP3    H138569   0.526   0.765   3.075 -0.2147 -1.0377  0.7104
 5718TIP3    H238570   0.647   0.685   3.033  0.0044  0.4146 -1.5973
 5719TIP3   OH238571   1.740   3.173  10.495  0.0737  0.1883 -0.4688
 5719TIP3    H138572   1.743   3.266  10.519  1.8634  0.2470 -0.7928
 5719TIP3    H238573   1.647   3.154  10.486 -0.3488  1.8500 -0.0127
 5720TIP3   OH238574   6.016   0.326  14.641 -0.4460 -0.8004  0.8620
 5720TIP3    H138575   6.023   0.420  14.624  0.9077 -1.2156 -1.2556
 5720TIP3    H238576   5.927   0.303  14.615  0.1263 -0.5554 -1.5475
 5721TIP3   OH238577   3.372   4.988   5.098  0.0911  0.2793 -0.4301
 5721TIP3    H138578   3.347   4.952   5.182 -1.4547  0.5552 -0.7253
 5721TIP3    H238579   3.373   4.913   5.038 -0.9495  0.3710 -0.5878
 5722TIP3   OH238580   3.870   1.145   0.641  0.3902 -0.1461  0.6872
 5722TIP3    H138581   3.785   1.115   0.610  1.8991 -2.6593 -1.3431
 5722TIP3    H238582   3.868   1.129   0.736 -1.1464 -0.7560  0.5793
 5723TIP3   OH238583   5.570   3.424   4.282  0.2318  0.0225 -0.2620
 5723TIP3    H138584   5.599   3.401   4.194  0.3225 -2.0274  0.2405
 5723TIP3    H238585   5.651   3.426   4.334  0.1815  1.2371 -0.1949
 5724TIP3   OH238586   3.990   3.374   2.224 -0.9549 -0.7029  0.1694
 5724TIP3    H138587   3.922   3.343   2.164 -1.5591 -1.2324  1.1209
 5724TIP3    H238588   4.031   3.295   2.258 -0.9776 -0.4225  0.8734
 5725TIP3   OH238589   0.451   4.509  13.677  0.5639  0.2921 -0.3444
 5725TIP3    H138590   0.519   4.446  13.652  0.7627  1.0455 -1.7915
 5725TIP3    H238591   0.371   4.457  13.681  1.0268 -0.4039  0.3640
 5726TIP3   OH238592   0.728   3.075   4.657 -0.1539  0.5548  0.2410
 5726TIP3    H138593   0.680   3.141   4.607 -0.8184  0.6293  0.9578
 5726TIP3    H238594   0.755   3.010   4.591 -2.0040  0.0569 -0.0927
 5727TIP3   OH238595   6.167   3.161  16.347  0.3106  0.2946 -0.3066
 5727TIP3    H138596   6.141   3.069  16.355  1.3691  0.0873  1.2324
 5727TIP3    H238597   6.180   3.174  16.253  0.0072 -1.0812 -0.5650
 5728TIP3   OH238598   2.610   3.250   5.546 -0.5058 -0.3335 -0.0234
 5728TIP3    H138599   2.531   3.274   5.594  0.9156  1.0853  1.7047
 5728TIP3    H238600   2.682   3.282   5.599  1.2811 -1.6171 -1.5279
 5729TIP3   OH238601   3.395   4.643  13.202 -0.5051 -0.1771 -0.7476
 5729TIP3    H138602   3.436   4.674  13.283 -2.1152  2.3777 -0.7953
 5729TIP3    H238603   3.458   4.667  13.133 -0.6503  0.8435 -0.5405
 5730TIP3   OH238604   6.227   6.341  12.344 -0.0396  0.5578 -0.3991
 5730TIP3    H138605   6.210   6.430  12.375  0.3092  0.7856 -0.8533
 5730TIP3    H238606   6.167   6.330  12.271 -1.2629 -0.1792  0.6635
 5731TIP3   OH238607   1.343   5.059  14.911 -0.3013  0.0570 -0.3729
 5731TIP3    H138608   1.393   5.024  14.837  0.2671 -0.6463  0.3212
 5731TIP3    H238609   1.407   5.112  14.959 -0.3913 -0.3070  0.1572
 5732TIP3   OH238610   0.067   2.980  16.474  0.2899  0.6942  0.4163
 5732TIP3    H138611   0.068   3.035  16.395  0.7885 -0.8357 -0.6913
 5732TIP3    H238612   0.124   2.906  16.452  0.1583  0.0596  2.1000
 5733TIP3   OH238613   2.044   4.768   0.980  0.0631  0.1715  0.1341
 5733TIP3    H138614   2.057   4.742   1.071  1.3472  0.2397 -0.0080
 5733TIP3    H238615   1.955   4.740   0.959 -0.6572  1.1171  1.7201
 5734TIP3   OH238616   5.935   4.913   2.466  0.4102 -0.4614 -0.2727
 5734TIP3    H138617   5.959   4.896   2.375 -0.0385  0.5937 -0.5997
 5734TIP3    H238618   5.872   4.844   2.488 -0.1183 -0.2289 -1.0357
 5735TIP3   OH238619   2.376   6.110  12.031  0.2679  0.1572 -0.2623
 5735TIP3    H138620   2.409   6.189  11.987  0.5339  0.2915  0.1706
 5735TIP3    H238621   2.332   6.142  12.109 -2.4142  0.1262 -1.6347
 5736TIP3   OH238622   3.700   0.770  12.615  0.2208  0.1622  0.5155
 5736TIP3    H138623   3.662   0.818  12.542  0.3342  1.0495  1.0297
 5736TIP3    H238624   3.628   0.760  12.678  0.4841  0.6666  0.9047
 5737TIP3   OH238625   5.181   2.854  14.036 -0.0784 -0.4517 -0.3528
 5737TIP3    H138626   5.271   2.863  14.066 -0.4716 -1.4249  1.2863
 5737TIP3    H238627   5.183   2.780  13.975 -0.1564 -2.3845  1.8485
 5738TIP3   OH238628   1.672   4.591   4.455  0.4176 -0.0328 -0.3833
 5738TIP3    H138629   1.666   4.668   4.512 -0.6620 -1.4123  1.5050
 5738TIP3    H238630   1.766   4.581   4.439  0.5717  1.6918 -0.7446
 5739TIP3   OH238631   6.747   5.280   3.573 -0.7344 -0.2783 -0.2134
 5739TIP3    H138632   6.763   5.373   3.558  0.8119 -0.6066 -0.6894
 5739TIP3    H238633   6.734   5.273   3.668  0.6102  0.2240  0.0206
 5740TIP3   OH238634   2.529   4.474  15.736 -0.4998  0.1407  0.3367
 5740TIP3    H138635   2.542   4.559  15.695 -0.9838 -0.5143 -1.2352
 5740TIP3    H238636   2.455   4.488  15.796 -2.5414  0.2091 -2.0285
 5741TIP3   OH238637   0.666   4.855   3.417  0.0745  0.7875  0.7670
 5741TIP3    H138638   0.576   4.821   3.421  0.5531 -0.8914 -1.0475
 5741TIP3    H238639   0.661   4.930   3.358  0.2360 -0.9763 -1.6242
 5742TIP3   OH238640   3.567   3.830  12.833 -0.3011 -0.7007 -0.3334
 5742TIP3    H138641   3.524   3.773  12.897  0.2369 -1.0122 -0.2456
 5742TIP3    H238642   3.583   3.773  12.758  0.9856 -0.8964  0.0657
 5743TIP3   OH238643   5.452   5.901   1.383  0.4949  0.1187  0.2220
 5743TIP3    H138644   5.548   5.898   1.381  0.5101 -0.1580  0.9969
 5743TIP3    H238645   5.427   5.826   1.438 -0.0580  1.5541  2.0222
 5744TIP3   OH238646   5.021   5.934  10.181 -0.0258  0.0498 -0.4114
 5744TIP3    H138647   4.927   5.943  10.167 -0.1473 -1.6655 -1.0201
 5744TIP3    H238648   5.029   5.894  10.268  0.1802  0.7063 -0.1225
 5745TIP3   OH238649   3.986   6.459   0.009 -0.4054  0.0603 -0.3001
 5745TIP3    H138650   4.008   6.542   0.051  0.0947 -0.5362  0.6461
 5745TIP3    H238651   4.040   6.394   0.053 -0.9345 -0.8088 -0.8873
 5746TIP3   OH238652   2.860   3.897  11.776 -0.3149 -0.0312 -0.0687
 5746TIP3    H138653   2.776   3.934  11.805 -0.2780  1.0590 -1.2729
 5746TIP3    H238654   2.893   3.960  11.712  3.2060  1.5478  2.8993
 5747TIP3   OH238655   2.895   1.754   3.659 -0.6938  0.3260 -0.2406
 5747TIP3    H138656   2.849   1.675   3.687 -1.4564  1.4767  1.9975
 5747TIP3    H238657   2.827   1.810   3.622 -1.0030  1.5883  2.0699
 5748TIP3   OH238658   0.153   4.105  10.598 -0.0417  0.7502 -0.4919
 5748TIP3    H138659   0.190   4.026  10.561  0.3769  0.3976  0.6323
 5748TIP3    H238660   0.058   4.093  10.591 -0.0016 -0.2913  0.5264
 5749TIP3   OH238661   6.013   1.926  13.568 -0.1167 -0.0196  0.9594
 5749TIP3    H138662   5.986   1.867  13.497 -0.6093  2.8235 -1.3755
 5749TIP3    H238663   5.949   1.910  13.637 -1.8653 -0.3584 -0.6560
 5750TIP3   OH238664   5.351   0.393  11.673 -0.2172 -0.3499 -0.1893
 5750TIP3    H138665   5.392   0.476  11.697 -1.7511 -0.0727  1.6485
 5750TIP3    H238666   5.283   0.418  11.609 -0.9929 -0.0802  0.7105
 5751TIP3   OH238667   1.203   2.505   4.088  0.2070 -0.5255  0.6671
 5751TIP3    H138668   1.161   2.429   4.047 -0.3604  0.4717 -0.6893
 5751TIP3    H238669   1.151   2.580   4.058  0.4077  0.3613  2.4244
 5752TIP3   OH238670   0.042   4.092   6.419  0.2267 -0.0060 -0.3542
 5752TIP3    H138671   0.000   4.036   6.484 -0.2320  0.5807 -0.1338
 5752TIP3    H238672   0.135   4.069   6.423  0.2902  0.3847  0.8816
 5753TIP3   OH238673   6.587   2.627   0.383  0.1854  0.4445  0.2215
 5753TIP3    H138674   6.570   2.704   0.330 -0.1525  0.2950  0.1152
 5753TIP3    H238675   6.501   2.598   0.413  0.3447  0.3401  0.5867
 5754TIP3   OH238676   0.581   0.468  10.355 -0.0347  0.2605  0.2562
 5754TIP3    H138677   0.530   0.544  10.326 -0.2826 -0.4275 -1.1963
 5754TIP3    H238678   0.515   0.402  10.375  0.2017  0.2317  0.9439
 5755TIP3   OH238679   1.337   2.913  14.016 -0.0776 -1.5231  0.0610
 5755TIP3    H138680   1.351   2.849  14.085 -0.7135 -1.2315  0.4698
 5755TIP3    H238681   1.253   2.889  13.977 -0.9635 -0.2048  1.0625
 5756TIP3   OH238682   3.024   4.215   3.785  0.2621  0.1571 -0.0596
 5756TIP3    H138683   3.072   4.175   3.712 -0.7653  0.9396 -1.2010
 5756TIP3    H238684   3.092   4.260   3.835  0.9994 -0.4158 -0.5094
 5757TIP3   OH238685   6.200   3.307   2.846 -0.0140 -0.1110  0.2847
 5757TIP3    H138686   6.193   3.270   2.934 -0.7080  0.9239  0.6810
 5757TIP3    H238687   6.158   3.242   2.789  0.5730 -0.8548  0.6839
 5758TIP3   OH238688   0.186   1.400  14.727 -0.2437  0.1139 -0.1013
 5758TIP3    H138689   0.155   1.444  14.806 -3.5532  0.6556 -1.5091
 5758TIP3    H238690   0.153   1.455  14.655  1.8494 -0.8299 -1.9055
 5759TIP3   OH238691   1.241   6.026   5.856  0.2616 -0.8391 -0.3347
 5759TIP3    H138692   1.247   6.118   5.830 -1.0642 -1.0341 -1.5115
 5759TIP3    H238693   1.182   6.027   5.931  0.0785 -0.7395 -0.4774
 5760TIP3   OH238694   2.052   4.936  11.252  0.3029 -0.4170 -0.5564
 5760TIP3    H138695   1.962   4.956  11.229 -0.0105 -1.9678 -0.7308
 5760TIP3    H238696   2.104   4.983  11.187 -0.4426 -1.0200 -1.6067
 5761TIP3   OH238697   5.282   4.794   6.148 -0.1548  0.1470  0.5698
 5761TIP3    H138698   5.372   4.809   6.119  0.2611  0.9929  2.1525
 5761TIP3    H238699   5.290   4.727   6.216 -0.5423  1.0288  1.5198
 5762TIP3   OH238700   4.807   5.888   1.272 -0.3952  0.8687  0.4546
 5762TIP3    H138701   4.889   5.841   1.253 -1.4946 -0.6296 -0.8418
 5762TIP3    H238702   4.802   5.888   1.368  0.7997  0.3951  0.5395
 5763TIP3   OH238703   5.368   3.187  10.909  0.3041 -0.0677  0.0689
 5763TIP3    H138704   5.457   3.187  10.874  0.7770  1.3965  1.1819
 5763TIP3    H238705   5.319   3.244  10.851 -0.1224 -1.4339 -0.9646
 5764TIP3   OH238706   6.160   0.707  13.670  0.2437 -0.2764 -0.1455
 5764TIP3    H138707   6.248   0.736  13.697  0.4973  0.5264 -1.6978
 5764TIP3    H238708   6.102   0.778  13.699 -0.0552 -1.1556  1.5681
 5765TIP3   OH238709   0.947   0.658   4.199 -0.2808 -0.1297  1.0787
 5765TIP3    H138710   0.889   0.644   4.275 -1.4309 -0.1565  0.2251
 5765TIP3    H238711   0.970   0.570   4.170 -0.3003 -0.1287  1.0599
 5766TIP3   OH238712   4.776   0.156  14.975 -0.2001 -0.6914  0.4640
 5766TIP3    H138713   4.853   0.198  14.935 -0.1859 -1.7452 -0.6723
 5766TIP3    H238714   4.808   0.126  15.060 -0.1062  1.1931  1.1517
 5767TIP3   OH238715   2.734   5.838  14.266 -0.0586  0.0168  0.1217
 5767TIP3    H138716   2.683   5.907  14.224  0.3571  0.6173  0.5763
 5767TIP3    H238717   2.803   5.817  14.203  0.7221  1.1010  0.5803
 5768TIP3   OH238718   5.517   3.506  15.616 -0.4899 -0.2852 -0.0569
 5768TIP3    H138719   5.587   3.509  15.682  0.8514  0.0218 -1.4383
 5768TIP3    H238720   5.484   3.416  15.621 -1.1518  0.0138  1.7332
 5769TIP3   OH238721   3.398   1.925  10.588  0.2001  0.0626  0.2239
 5769TIP3    H138722   3.339   1.944  10.515  0.6953 -1.2692 -0.5627
 5769TIP3    H238723   3.397   2.005  10.641  0.9324  1.6472 -1.9871
 5770TIP3   OH238724   1.800   4.459   1.192 -0.2059 -0.0323  0.0736
 5770TIP3    H138725   1.822   4.550   1.214  0.2403 -0.0954 -0.0924
 5770TIP3    H238726   1.708   4.450   1.216 -0.4367  0.6534 -0.5188
 5771TIP3   OH238727   2.148   4.248   5.380  0.7681  0.0667  0.1421
 5771TIP3    H138728   2.219   4.284   5.433  1.4187  1.2898 -1.4765
 5771TIP3    H238729   2.192   4.197   5.312  0.1749  1.1209 -1.0836
 5772TIP3   OH238730   1.871   1.155   4.517  0.1108 -0.1781  0.1145
 5772TIP3    H138731   1.937   1.192   4.576 -0.1342  0.2951  0.0937
 5772TIP3    H238732   1.886   1.060   4.522  0.8754 -0.0715  0.0154
 5773TIP3   OH238733   2.221   0.726  16.594 -0.1175  0.2612 -0.5792
 5773TIP3    H138734   2.268   0.643  16.604  0.4325  0.6340 -0.0175
 5773TIP3    H238735   2.221   0.764  16.682  1.2186  1.6895 -1.1424
 5774TIP3   OH238736   0.449   3.438  16.853  0.3574 -0.3044  0.0800
 5774TIP3    H138737   0.465   3.512  16.795  0.4897  0.1016  0.6303
 5774TIP3    H238738   0.511   3.450  16.925  0.4236 -0.9807  0.1490
 5775TIP3   OH238739   4.824   1.110   5.243 -0.1693 -0.0659  0.6085
 5775TIP3    H138740   4.900   1.158   5.209  0.3521  0.6118  2.6191
 5775TIP3    H238741   4.764   1.107   5.168  1.1869  0.7294 -0.5827
 5776TIP3   OH238742   5.888   2.005   4.187  0.0965  0.2970  0.4641
 5776TIP3    H138743   5.829   1.987   4.113  0.8413  0.0893 -0.0895
 5776TIP3    H238744   5.964   1.949   4.171  0.0813 -0.0665  1.6252
 5777TIP3   OH238745   2.863   1.463  15.887  0.1492 -0.4063 -0.8263
 5777TIP3    H138746   2.945   1.473  15.938 -1.4338  2.9904  1.5081
 5777TIP3    H238747   2.891   1.473  15.796  2.5502 -1.2577 -0.2728
 5778TIP3   OH238748   0.666   1.642  10.161 -0.0828 -0.4479 -0.0520
 5778TIP3    H138749   0.581   1.601  10.175 -0.0644 -0.4951 -0.0802
 5778TIP3    H238750   0.721   1.608  10.231 -1.2735  2.9940  2.8602
 5779TIP3   OH238751   4.653   0.965  12.763 -0.9604  0.1309  0.5470
 5779TIP3    H138752   4.599   1.037  12.729 -1.0276  0.2200  0.8396
 5779TIP3    H238753   4.644   0.971  12.858 -0.6383 -0.0152  0.5868
 5780TIP3   OH238754   4.492   3.662  16.502  0.0051  0.1087 -0.3633
 5780TIP3    H138755   4.412   3.704  16.470  0.2083  0.1303 -0.8490
 5780TIP3    H238756   4.533   3.625  16.424  0.5258  0.1927 -0.1350
 5781TIP3   OH238757   5.868   4.428   2.215 -0.0629  0.1177 -0.2844
 5781TIP3    H138758   5.877   4.412   2.121  3.5846 -0.3823 -0.0061
 5781TIP3    H238759   5.855   4.341   2.253  1.0481 -0.0083 -0.1675
 5782TIP3   OH238760   2.214   4.885  15.218  0.0164  0.3776  0.1103
 5782TIP3    H138761   2.198   4.798  15.254 -1.0875  0.9860  1.1517
 5782TIP3    H238762   2.218   4.943  15.294 -1.8166  1.6209 -0.6601
 5783TIP3   OH238763   1.375   5.196  16.165  0.1624  0.3211  0.0237
 5783TIP3    H138764   1.471   5.199  16.168  0.2305 -0.8302 -0.4060
 5783TIP3    H238765   1.350   5.146  16.243 -0.0416  0.0249 -0.2292
 5784TIP3   OH238766   4.862   6.624   1.877  0.3691 -0.4291 -0.2222
 5784TIP3    H138767   4.843   6.539   1.916  1.9046 -1.3038 -1.2497
 5784TIP3    H238768   4.951   6.645   1.908 -0.0056  0.8348  0.0582
 5785TIP3   OH238769   0.587   5.092  12.776 -0.1370 -0.1738  0.1096
 5785TIP3    H138770   0.521   5.155  12.747  1.4494  1.6293  0.1768
 5785TIP3    H238771   0.588   5.025  12.708  0.2660  1.5259 -1.6418
 5786TIP3   OH238772   1.102   1.333  14.871 -0.6927  0.4216  0.5985
 5786TIP3    H138773   1.067   1.296  14.952 -0.5215 -1.2444 -0.0398
 5786TIP3    H238774   1.041   1.305  14.803 -0.3050  0.9598  0.0154
 5787TIP3   OH238775   5.322   1.677  13.871  0.2378  0.5156  0.0126
 5787TIP3    H138776   5.346   1.589  13.842  1.7054  0.4568  1.2785
 5787TIP3    H238777   5.267   1.712  13.800 -1.6145 -1.9263  0.1127
 5788TIP3   OH238778   3.185   2.259   2.000  0.0911  0.0220  0.4170
 5788TIP3    H138779   3.218   2.274   2.089 -0.4815  1.3293  0.4249
 5788TIP3    H238780   3.250   2.201   1.960 -0.1474 -1.4120  1.9895
 5789TIP3   OH238781   3.953   2.910  12.608  0.3683  0.2435  0.5843
 5789TIP3    H138782   3.912   2.872  12.531 -1.8409 -1.7153  2.5631
 5789TIP3    H238783   4.026   2.851  12.628  0.6572  0.4943  0.2914
 5790TIP3   OH238784   6.623   4.385   0.236 -0.0039  0.0629  0.0623
 5790TIP3    H138785   6.583   4.315   0.185  0.1801  0.2647 -0.3684
 5790TIP3    H238786   6.555   4.413   0.297 -0.4293  0.2284 -0.4876
 5791TIP3   OH238787   2.246   4.917   6.903 -0.3863 -0.5029  0.2585
 5791TIP3    H138788   2.264   5.009   6.924 -3.0607  0.5175 -1.4001
 5791TIP3    H238789   2.302   4.899   6.827 -0.0038 -0.1825  0.4571
 5792TIP3   OH238790   4.242   1.070   3.709  0.1443 -0.0295  0.1939
 5792TIP3    H138791   4.208   1.055   3.620 -0.1790 -0.9925  0.4687
 5792TIP3    H238792   4.210   0.995   3.760  3.2084 -1.3750  0.3381
 5793TIP3   OH238793   3.131   4.377   3.428  0.5578 -0.2530 -0.2895
 5793TIP3    H138794   3.053   4.354   3.479  1.5926 -3.6079  0.0303
 5793TIP3    H238795   3.122   4.471   3.412 -1.7318  0.2336  2.7863
 5794TIP3   OH238796   6.097   5.181   3.893  0.0769 -0.0265  1.1354
 5794TIP3    H138797   6.147   5.262   3.878  0.2119  0.1808  2.5576
 5794TIP3    H238798   6.085   5.178   3.988 -1.1530 -0.9620  0.9693
 5795TIP3   OH238799   5.888   1.281  11.410  0.2502  0.1887 -0.2569
 5795TIP3    H138800   5.929   1.270  11.324 -0.8866  3.1145 -1.2874
 5795TIP3    H238801   5.814   1.220  11.409  1.2430 -1.0405 -0.6416
 5796TIP3   OH238802   0.924   5.140  14.502  0.1013 -0.0530 -0.5899
 5796TIP3    H138803   0.890   5.055  14.475 -0.6333 -0.2114  0.7603
 5796TIP3    H238804   0.975   5.122  14.581  2.7693  0.2916 -2.1016
 5797TIP3   OH238805   1.043   1.215   0.300 -0.5885  0.1236  0.0109
 5797TIP3    H138806   1.080   1.301   0.281  0.1256 -0.2178 -0.1807
 5797TIP3    H238807   1.050   1.206   0.395  0.2686 -0.1324 -0.0726
 5798TIP3   OH238808   1.556   1.254  10.857  0.1415 -0.2990 -0.8000
 5798TIP3    H138809   1.518   1.275  10.772  1.3544  0.7217 -1.1158
 5798TIP3    H238810   1.646   1.288  10.853  1.1069 -2.5495 -0.0626
 5799TIP3   OH238811   5.483   5.972   2.311 -0.1918  0.4058  0.1756
 5799TIP3    H138812   5.447   5.900   2.363  2.7620 -2.8980 -1.8698
 5799TIP3    H238813   5.434   5.969   2.229 -1.3826  2.1604  0.7764
 5800TIP3   OH238814   5.452   0.371  15.392 -0.2136 -0.2960 -0.2257
 5800TIP3    H138815   5.485   0.439  15.451  0.4100  0.5319 -1.4836
 5800TIP3    H238816   5.528   0.314  15.377 -0.6677 -1.1683  0.6274
 5801TIP3   OH238817   4.741   3.456   1.143 -0.1740 -1.2740 -0.3561
 5801TIP3    H138818   4.803   3.405   1.196 -0.0263 -1.3374 -0.5902
 5801TIP3    H238819   4.795   3.500   1.078  0.1665  1.7718  1.7745
 5802TIP3   OH238820   3.565   3.849   1.145 -0.1600 -0.2528  0.1376
 5802TIP3    H138821   3.641   3.806   1.184  1.3691 -0.3183 -2.6153
 5802TIP3    H238822   3.490   3.800   1.178  1.0871 -1.1341  1.8204
 5803TIP3   OH238823   0.369   0.040   6.056 -0.0541  0.1191  0.7775
 5803TIP3    H138824   0.347  -0.053   6.050 -0.2638  0.2122 -0.1378
 5803TIP3    H238825   0.444   0.044   6.115  0.2697 -0.6851  0.4277
 5804TIP3   OH238826   2.407   3.206  14.143 -0.2113 -0.1667  0.1205
 5804TIP3    H138827   2.362   3.141  14.197 -0.9361 -0.0965 -0.3833
 5804TIP3    H238828   2.341   3.272  14.124  1.0965  2.0777  2.6781
 5805TIP3   OH238829   1.466   1.762   0.435  0.2309  0.5370 -0.0755
 5805TIP3    H138830   1.511   1.784   0.516  1.9277  0.9041 -1.0567
 5805TIP3    H238831   1.520   1.693   0.396 -0.3634  0.5966 -1.0431
 5806TIP3   OH238832   5.039   5.512   0.346  0.1866  0.4957 -0.0345
 5806TIP3    H138833   4.965   5.469   0.389  0.6229 -1.6804 -1.2647
 5806TIP3    H238834   5.096   5.541   0.417  1.4833 -4.0254  1.0943
 5807TIP3   OH238835   1.629   5.880  13.855 -0.6191  0.0386 -0.2926
 5807TIP3    H138836   1.588   5.934  13.788  1.5622  0.0101 -1.7558
 5807TIP3    H238837   1.710   5.849  13.815  2.1584  2.0317  3.0889
 5808TIP3   OH238838   3.796   2.215   5.668 -0.0061  0.6670  0.3861
 5808TIP3    H138839   3.838   2.301   5.661 -0.0256  0.5996 -0.8557
 5808TIP3    H238840   3.766   2.197   5.579 -1.1241 -0.0691  0.8972
 5809TIP3   OH238841   6.609   5.829   3.173  0.6817  0.3356  0.8984
 5809TIP3    H138842   6.594   5.905   3.230  0.7436  0.3924  0.8393
 5809TIP3    H238843   6.681   5.782   3.214 -0.9231 -1.0056  2.2617
 5810TIP3   OH238844   3.638   3.135  15.923  0.2635  0.7346 -0.4634
 5810TIP3    H138845   3.572   3.086  15.972  0.4846  0.6851 -0.2121
 5810TIP3    H238846   3.719   3.123  15.973  0.2932  1.4640 -0.3229
 5811TIP3   OH238847   2.627   5.477   3.934 -0.4607  0.3115  0.6044
 5811TIP3    H138848   2.628   5.391   3.976 -0.4852 -1.4151 -2.6005
 5811TIP3    H238849   2.718   5.507   3.940 -0.2861 -0.2826  1.0675
 5812TIP3   OH238850   4.478   6.068   1.867 -0.3678  0.0846 -0.0905
 5812TIP3    H138851   4.492   6.060   1.772  1.9504 -1.0359  0.2821
 5812TIP3    H238852   4.512   6.154   1.890 -1.1794  0.4696 -0.2824
 5813TIP3   OH238853   2.002   3.462  13.830 -0.0326 -0.4129 -0.4569
 5813TIP3    H138854   1.989   3.386  13.774  1.4319 -1.0526  0.0268
 5813TIP3    H238855   2.073   3.437  13.890 -0.4163  0.8506  0.5830
 5814TIP3   OH238856   4.307   0.681   4.957 -0.3394 -0.1515  0.1258
 5814TIP3    H138857   4.384   0.625   4.947 -0.4468 -0.0937 -1.1778
 5814TIP3    H238858   4.254   0.637   5.024  0.1851 -0.9076  0.0537
 5815TIP3   OH238859   0.977   5.721   2.623 -0.3845 -0.1044  0.7118
 5815TIP3    H138860   1.044   5.667   2.666 -0.4626 -0.5118  0.3288
 5815TIP3    H238861   0.977   5.691   2.532 -1.0514 -0.0699  0.6976
 5816TIP3   OH238862   3.226   0.826   0.140  0.6765 -0.1695  0.3767
 5816TIP3    H138863   3.312   0.836   0.181  1.2982  0.7571 -1.0634
 5816TIP3    H238864   3.232   0.878   0.060 -0.7574 -1.2591 -0.4755
 5817TIP3   OH238865   5.672   6.471   0.862 -0.0547 -0.6976  0.2495
 5817TIP3    H138866   5.675   6.502   0.953 -2.1998  1.5314 -0.3425
 5817TIP3    H238867   5.607   6.400   0.863 -0.3998 -0.3810  0.3879
 5818TIP3   OH238868   0.256   2.613   4.209  0.4983  0.4937  0.1998
 5818TIP3    H138869   0.294   2.607   4.121  0.5105  0.6565  0.1937
 5818TIP3    H238870   0.332   2.628   4.267  0.6500 -0.8644  0.3960
 5819TIP3   OH238871   2.002   1.638  11.548  0.5767 -0.0961  0.1560
 5819TIP3    H138872   2.027   1.553  11.512  0.8963  0.7968 -1.8637
 5819TIP3    H238873   2.068   1.656  11.615  1.8416 -0.4732 -0.9395
 5820TIP3   OH238874   1.538   0.157   6.113  0.0954  0.2042  0.7448
 5820TIP3    H138875   1.610   0.216   6.132  2.1614 -2.4082  1.6855
 5820TIP3    H238876   1.555   0.080   6.167 -1.6051 -1.8952 -1.4574
 5821TIP3   OH238877   6.187   2.397   5.852  0.0643  0.2344  0.1416
 5821TIP3    H138878   6.211   2.432   5.938  0.8626 -0.5151  0.2307
 5821TIP3    H238879   6.212   2.305   5.855  1.8107  0.5934 -1.5305
 5822TIP3   OH238880   4.590   6.346   1.985  0.1606 -0.0068 -0.1474
 5822TIP3    H138881   4.517   6.391   1.943  0.1107  0.1773  0.1358
 5822TIP3    H238882   4.555   6.316   2.068  0.1048 -0.8394 -0.4645
 5823TIP3   OH238883   4.853   5.404   4.057 -0.0971  0.2061  0.1262
 5823TIP3    H138884   4.910   5.473   4.025 -1.1771  1.0443 -0.0472
 5823TIP3    H238885   4.788   5.392   3.987 -1.4057  0.7871  1.2104
 5824TIP3   OH238886   4.288   6.442  14.415  0.1798  0.4846  0.6121
 5824TIP3    H138887   4.353   6.383  14.377 -1.3613 -1.4250  0.7830
 5824TIP3    H238888   4.320   6.459  14.504 -0.9075 -2.9406  1.8438
 5825TIP3   OH238889   5.023   5.488  13.435  0.5953  0.6807 -0.5592
 5825TIP3    H138890   5.045   5.556  13.499 -0.0577 -1.0180  1.6121
 5825TIP3    H238891   5.107   5.447  13.414  0.5750 -0.3355  1.1785
 5826TIP3   OH238892   6.203   4.267  11.849  0.5012  0.4305  0.4980
 5826TIP3    H138893   6.182   4.287  11.940 -0.5998  0.1714  0.3138
 5826TIP3    H238894   6.199   4.171  11.843 -0.3078  0.4818 -0.0087
 5827TIP3   OH238895   5.329   1.561  12.930 -0.6011  0.3743 -0.0092
 5827TIP3    H138896   5.346   1.508  13.008 -1.0629 -0.7099 -0.6230
 5827TIP3    H238897   5.270   1.630  12.960 -2.1119 -0.9883  0.2959
 5828TIP3   OH238898   1.021   5.343  14.722  0.0795 -0.8558 -0.1520
 5828TIP3    H138899   1.104   5.389  14.736 -0.1448 -0.7531  0.9091
 5828TIP3    H238900   1.047   5.258  14.687  0.6605 -0.8971  0.3514
 5829TIP3   OH238901   2.690   6.062   4.842 -0.1609 -0.2550 -0.4042
 5829TIP3    H138902   2.609   6.112   4.831  0.3148  0.7246  0.4221
 5829TIP3    H238903   2.759   6.128   4.851  0.1862 -0.9090  3.2877
 5830TIP3   OH238904   5.411   0.756   0.111 -0.2415  0.1802 -0.3973
 5830TIP3    H138905   5.380   0.803   0.188 -1.0140 -0.7289 -0.1334
 5830TIP3    H238906   5.369   0.801   0.037 -1.1525 -0.2071 -0.1337
 5831TIP3   OH238907   1.837   0.073  13.394  0.2829 -0.2009 -0.7702
 5831TIP3    H138908   1.901   0.086  13.464 -1.2573 -0.5164  0.7773
 5831TIP3    H238909   1.802   0.160  13.376 -1.1941 -0.4036  0.8021
 5832TIP3   OH238910   3.302   0.974   1.262 -0.3604  0.1241  0.3641
 5832TIP3    H138911   3.222   1.024   1.278 -0.2976 -0.2009  1.8019
 5832TIP3    H238912   3.362   1.038   1.222 -0.5928  0.9698  1.3240
 5833TIP3   OH238913   4.964   2.814  11.778 -0.2234 -0.3279 -0.2158
 5833TIP3    H138914   5.012   2.773  11.706 -0.0811 -0.1732 -0.2087
 5833TIP3    H238915   4.916   2.886  11.738 -1.8750 -1.5605 -0.5476
 5834TIP3   OH238916   5.633   1.838  14.849 -0.0721  0.3364  0.3999
 5834TIP3    H138917   5.624   1.745  14.871 -0.6068 -1.4446 -5.7216
 5834TIP3    H238918   5.544   1.866  14.828 -0.0281  2.6450  2.7692
 5835TIP3   OH238919   0.161   2.775   1.758 -0.5747  0.5895  0.6068
 5835TIP3    H138920   0.208   2.757   1.839 -0.5749  0.0391  0.4845
 5835TIP3    H238921   0.210   2.727   1.691  0.1659  2.0330  0.0666
 5836TIP3   OH238922   5.650   5.744  12.568 -0.6447  0.0374  0.2051
 5836TIP3    H138923   5.655   5.826  12.617 -0.1147  0.0012  0.2080
 5836TIP3    H238924   5.561   5.745  12.531 -1.5891 -0.5831  2.2779
 5837TIP3   OH238925   5.616   4.631   5.997  0.7285 -0.4476  0.1101
 5837TIP3    H138926   5.711   4.625   6.000  0.6386 -2.1284  0.4895
 5837TIP3    H238927   5.597   4.723   6.018  2.2614  0.0176 -0.4226
 5838TIP3   OH238928   1.893   0.869   0.913 -0.0794  0.2410  0.2656
 5838TIP3    H138929   1.944   0.834   0.840 -1.4108 -0.3769 -0.4111
 5838TIP3    H238930   1.804   0.877   0.878 -0.5623  0.7938  1.5575
 5839TIP3   OH238931   1.236   1.906  13.931 -0.1707 -0.2492 -0.3833
 5839TIP3    H138932   1.316   1.907  13.878 -0.3967 -1.9578 -0.8080
 5839TIP3    H238933   1.206   1.815  13.927 -2.3051  0.4174 -0.4810
 5840TIP3   OH238934   1.847   5.112   1.678 -0.1720 -0.5051  0.4592
 5840TIP3    H138935   1.847   5.120   1.582  1.2166  0.9405  0.5249
 5840TIP3    H238936   1.903   5.184   1.707  0.1515 -1.4543  2.3173
 5841TIP3   OH238937   2.894   6.698  14.586  0.2939 -0.3816  0.3485
 5841TIP3    H138938   2.842   6.699  14.506 -1.8678 -1.2108  1.6401
 5841TIP3    H238939   2.865   6.776  14.634  2.2436  0.6305 -0.0002
 5842TIP3   OH238940   0.899   6.458  11.956 -0.5896  0.2612  0.1673
 5842TIP3    H138941   0.949   6.402  11.897 -1.2342  1.0081 -1.1210
 5842TIP3    H238942   0.900   6.411  12.040 -0.6013 -1.3553 -0.7058
 5843TIP3   OH238943   6.410   1.149   6.374 -0.2517 -0.5126 -0.4839
 5843TIP3    H138944   6.476   1.082   6.396 -1.2649 -1.4203 -0.0859
 5843TIP3    H238945   6.327   1.102   6.379 -0.9584  0.6961 -0.6327
 5844TIP3   OH238946   0.976   4.636  16.057  0.5490  0.1520  0.3002
 5844TIP3    H138947   0.987   4.729  16.039  2.1633  0.1601  1.1118
 5844TIP3    H238948   0.887   4.628  16.090  1.0228  1.7783  2.1799
 5845TIP3   OH238949   4.568   3.396  12.419 -0.1600  0.1904  0.5125
 5845TIP3    H138950   4.544   3.485  12.445  1.1047  0.4491  0.8938
 5845TIP3    H238951   4.533   3.340  12.488 -0.6496  0.4177  0.4551
 5846TIP3   OH238952   4.927   3.364   5.940  0.4343  0.7452  0.4075
 5846TIP3    H138953   4.928   3.286   5.995 -0.0720  1.4077  1.3952
 5846TIP3    H238954   5.019   3.387   5.927  0.6167 -0.4232 -0.5193
 5847TIP3   OH238955   4.615   3.856   0.544  0.0347  0.9469  0.0579
 5847TIP3    H138956   4.558   3.927   0.516 -0.7523  0.7826  1.1867
 5847TIP3    H238957   4.555   3.782   0.560  0.8662 -0.1347 -1.5065
 5848TIP3   OH238958   2.628   2.324   0.394  0.1323  0.4138  0.3946
 5848TIP3    H138959   2.603   2.272   0.470 -2.1348  0.7582 -0.0198
 5848TIP3    H238960   2.721   2.305   0.381  0.5627  0.2190  3.1066
 5849TIP3   OH238961   3.757   0.361  12.171  0.4641  0.1068 -0.0333
 5849TIP3    H138962   3.785   0.353  12.263 -1.0074 -0.2907  0.4231
 5849TIP3    H238963   3.740   0.271  12.144  0.6484  0.2478 -0.6104
 5850TIP3   OH238964   3.140   3.870  14.822  0.0620  0.5005  0.3421
 5850TIP3    H138965   3.060   3.858  14.874 -1.0541  2.0227 -0.9484
 5850TIP3    H238966   3.191   3.791  14.840 -2.0093 -0.8553  0.7027
 5851TIP3   OH238967   6.001   1.338   5.919  0.1170 -0.4936  0.6758
 5851TIP3    H138968   6.053   1.335   5.999 -0.4886  1.3211  1.1765
 5851TIP3    H238969   5.910   1.342   5.948 -0.1182  0.0731 -0.0925
 5852TIP3   OH238970   2.939   5.498   1.877 -0.2069 -0.8907  0.3031
 5852TIP3    H138971   2.955   5.467   1.787 -0.4327  0.4898 -0.2318
 5852TIP3    H238972   2.969   5.588   1.877 -3.2505  0.2513  0.6428
 5853TIP3   OH238973   6.649   4.486  15.052  0.3656  0.4620  0.5080
 5853TIP3    H138974   6.677   4.477  15.143 -2.0026  1.5947  1.4289
 5853TIP3    H238975   6.612   4.401  15.030  0.2097  0.4315  0.8813
 5854TIP3   OH238976   0.938   3.931  12.229 -0.4751  0.1380  0.0446
 5854TIP3    H138977   1.015   3.898  12.182 -0.2393  0.5746  0.1181
 5854TIP3    H238978   0.931   4.023  12.203 -1.4467 -0.1019 -0.5731
 5855TIP3   OH238979   2.624   3.707  11.663  0.1210  0.7638 -0.4140
 5855TIP3    H138980   2.694   3.668  11.715 -0.3090 -0.3426 -0.6412
 5855TIP3    H238981   2.608   3.644  11.593 -2.3620  0.0401  0.6754
 5856TIP3   OH238982   3.861   2.605   1.321 -0.4700  0.0728 -0.2112
 5856TIP3    H138983   3.950   2.631   1.297  0.0213 -1.4265 -0.0762
 5856TIP3    H238984   3.867   2.579   1.413 -1.3524  1.2459  0.2011
 5857TIP3   OH238985   6.603   2.315  12.500  0.0022 -1.0820  0.6720
 5857TIP3    H138986   6.650   2.397  12.486  0.7976 -1.6356 -0.0141
 5857TIP3    H238987   6.529   2.320  12.440  1.3370 -1.8274 -1.1554
 5858TIP3   OH238988   5.867   2.892   3.810 -0.0162 -0.6968 -0.0162
 5858TIP3    H138989   5.773   2.877   3.798 -0.1659 -0.0200  0.2745
 5858TIP3    H238990   5.909   2.820   3.764 -0.6975 -1.7234  0.9287
 5859TIP3   OH238991   5.767   1.742  16.036  0.4820  0.6266 -0.0464
 5859TIP3    H138992   5.830   1.698  15.980 -0.2223  0.4287 -0.7135
 5859TIP3    H238993   5.805   1.740  16.124  1.5634  0.8510 -0.4957
 5860TIP3   OH238994   0.655   1.039  13.595  0.3036 -0.9011  0.3435
 5860TIP3    H138995   0.602   0.987  13.535 -0.4017 -0.0131  0.1607
 5860TIP3    H238996   0.714   0.977  13.637  1.0076 -1.5130 -1.4703
 5861TIP3   OH238997   3.230   5.397   3.734  0.2565  0.0037 -0.0047
 5861TIP3    H138998   3.162   5.401   3.667  3.2421  0.5615 -3.3269
 5861TIP3    H238999   3.287   5.326   3.705  1.6461  0.2091  2.0527
 5862TIP3   OH239000   1.186   6.450   1.709 -0.3884 -0.0608  0.1990
 5862TIP3    H139001   1.279   6.466   1.693 -0.0817 -2.3388 -0.5728
 5862TIP3    H239002   1.184   6.372   1.765 -1.8357 -0.8578 -0.9078
 5863TIP3   OH239003   3.851   4.514  13.681  0.3389  0.5945  0.2996
 5863TIP3    H139004   3.934   4.476  13.651 -0.3509 -0.8483  0.1272
 5863TIP3    H239005   3.861   4.608  13.666  1.5274  0.3357 -0.7186
 5864TIP3   OH239006   6.010   0.915  14.909  0.2015  0.8187  0.2161
 5864TIP3    H139007   5.968   0.838  14.948 -4.2882  1.3661 -2.7124
 5864TIP3    H239008   6.062   0.879  14.836  0.2861  0.4271  0.4629
 5865TIP3   OH239009   0.358   2.785   4.517 -0.3242 -0.0472 -0.1018
 5865TIP3    H139010   0.411   2.853   4.559 -1.4027  1.9328 -1.7588
 5865TIP3    H239011   0.419   2.738   4.461 -0.0289  1.3408 -0.9762
 5866TIP3   OH239012   3.206   4.948  11.300 -0.5431  0.1003 -0.4158
 5866TIP3    H139013   3.276   4.883  11.305  1.3228  1.5809 -3.7131
 5866TIP3    H239014   3.249   5.031  11.319 -1.6663  0.9321 -1.3277
 5867TIP3   OH239015   4.091   4.628   0.804  0.1324  0.3271 -0.3592
 5867TIP3    H139016   4.166   4.607   0.859 -1.2190  0.4842  1.6706
 5867TIP3    H239017   4.119   4.609   0.715  2.4239  0.0334  0.3805
 5868TIP3   OH239018   5.154   5.143  16.097  0.5539 -0.4183  0.0499
 5868TIP3    H139019   5.151   5.058  16.139  0.4223 -0.3244  0.2305
 5868TIP3    H239020   5.131   5.125  16.005 -0.1037 -0.4862  0.2260
 5869TIP3   OH239021   3.481   2.198  16.165 -0.1682 -0.1652  0.4135
 5869TIP3    H139022   3.484   2.293  16.160  1.4194 -0.2100 -0.0040
 5869TIP3    H239023   3.481   2.169  16.074  1.3598 -0.5700  0.5136
 5870TIP3   OH239024   3.200   2.225  11.359  0.2362 -0.4785 -0.1286
 5870TIP3    H139025   3.166   2.144  11.398 -0.1736 -0.1586  0.1888
 5870TIP3    H239026   3.200   2.208  11.265 -0.6997 -0.5362 -0.1320
 5871TIP3   OH239027   6.359   2.572  12.471 -0.3555  0.1298 -0.4600
 5871TIP3    H139028   6.415   2.610  12.538 -1.5257  1.1482 -0.0200
 5871TIP3    H239029   6.370   2.629  12.394 -1.3899  0.8532 -0.1012
 5872TIP3   OH239030   0.409   4.134   0.338  0.0974 -0.1722 -0.9605
 5872TIP3    H139031   0.479   4.192   0.311  0.4146 -0.6525 -1.1879
 5872TIP3    H239032   0.438   4.047   0.311  0.3491 -0.6597  0.7887
 5873TIP3   OH239033   5.586   4.146   4.353 -0.0558 -0.0425  0.0463
 5873TIP3    H139034   5.672   4.184   4.370  0.6844 -0.3936 -2.4918
 5873TIP3    H239035   5.599   4.052   4.366  0.3200 -0.2317 -1.5113
 5874TIP3   OH239036   0.644   0.499  17.220 -0.3567 -0.6827 -0.8540
 5874TIP3    H139037   0.636   0.548  17.302  0.4517 -0.0879 -1.1154
 5874TIP3    H239038   0.724   0.534  17.179 -0.3376 -1.4982 -1.5381
 5875TIP3   OH239039   2.699   1.382  11.589 -1.1045  0.0113 -0.8682
 5875TIP3    H139040   2.707   1.307  11.648  0.4702  0.0770 -0.9701
 5875TIP3    H239041   2.613   1.370  11.547 -1.9206 -0.4466  0.8389
 5876TIP3   OH239042   2.812   4.665   4.712 -0.3067 -0.1699  0.2311
 5876TIP3    H139043   2.807   4.571   4.730  0.7497 -0.2095  0.3883
 5876TIP3    H239044   2.745   4.704   4.769 -2.3143 -0.9976 -1.4521
 5877TIP3   OH239045   5.519   1.734   4.257  0.1800 -0.4335  0.0498
 5877TIP3    H139046   5.506   1.719   4.351 -0.7446 -0.2745 -0.0471
 5877TIP3    H239047   5.498   1.826   4.244  1.5577 -0.1171 -0.1137
 5878TIP3   OH239048   1.402   3.703   1.992 -0.0752  0.1055 -0.2862
 5878TIP3    H139049   1.314   3.665   1.989  0.1530 -0.6587  1.6779
 5878TIP3    H239050   1.461   3.629   1.981  0.3394  0.3402  0.3083
 5879TIP3   OH239051   0.786   1.176   5.846 -0.0453 -0.6192  0.1102
 5879TIP3    H139052   0.715   1.112   5.838 -1.2715  0.5752  0.9577
 5879TIP3    H239053   0.856   1.142   5.790 -2.1228 -0.6924 -2.6177
 5880TIP3   OH239054   4.141   0.710  12.919 -0.6874  0.4802  0.8914
 5880TIP3    H139055   4.113   0.675  12.835  0.4014 -1.1109  1.1231
 5880TIP3    H239056   4.078   0.674  12.982 -1.0728  1.0672  0.8449
 5881TIP3   OH239057   5.890   1.975  14.820  0.4545 -0.2359  0.1766
 5881TIP3    H139058   5.801   1.942  14.833  0.4319  0.3371  1.7557
 5881TIP3    H239059   5.878   2.065  14.789  0.4760 -0.2340  0.1744
 5882TIP3   OH239060   6.772   5.319  13.593 -0.3369 -0.5459 -0.3160
 5882TIP3    H139061   6.732   5.262  13.658 -1.7510 -0.6473 -1.2239
 5882TIP3    H239062   6.796   5.260  13.521  0.9326 -0.3963 -0.0325
 5883TIP3   OH239063   3.613   2.655  12.123  0.0376  0.1242  0.4768
 5883TIP3    H139064   3.561   2.624  12.197 -1.4246 -0.2612 -0.6686
 5883TIP3    H239065   3.616   2.580  12.063 -0.2304  0.9506 -0.5945
 5884TIP3   OH239066   6.526   5.740   4.823 -0.6456  0.3378  0.1308
 5884TIP3    H139067   6.601   5.699   4.780  0.1639  0.6504  1.2108
 5884TIP3    H239068   6.556   5.828   4.845 -0.8422  0.0182  1.7905
 5885TIP3   OH239069   1.619   3.996   4.616 -0.5039 -0.1347 -0.3057
 5885TIP3    H139070   1.614   3.973   4.523  1.1501  2.3278 -1.1416
 5885TIP3    H239071   1.588   4.087   4.619 -0.9512 -0.3248  1.6439
 5886TIP3   OH239072   6.437   1.784   1.293  0.0330 -0.6011 -0.7039
 5886TIP3    H139073   6.443   1.694   1.260  0.0740 -1.5682  1.7284
 5886TIP3    H239074   6.424   1.774   1.388 -1.1674  1.9545 -0.5209
 5887TIP3   OH239075   4.334   4.465   5.713  0.4986 -0.0751  0.1691
 5887TIP3    H139076   4.256   4.493   5.761  1.5755 -0.3701  2.1806
 5887TIP3    H239077   4.404   4.523   5.744  1.5754 -1.3180  0.1733
 5888TIP3   OH239078   2.493   0.317  16.975  0.0566  0.6547  0.2307
 5888TIP3    H139079   2.576   0.314  16.927  0.5757 -0.4396  1.1497
 5888TIP3    H239080   2.428   0.285  16.912  0.7346 -0.8377  0.2438
 5889TIP3   OH239081   0.480   2.943   4.721  0.6388 -0.9455 -0.2689
 5889TIP3    H139082   0.557   2.998   4.708  0.9990 -1.4583 -0.3451
 5889TIP3    H239083   0.487   2.913   4.812 -0.1371  0.0055  0.1169
 5890TIP3   OH239084   2.831   3.656   4.631  0.4109  0.4320 -0.3230
 5890TIP3    H139085   2.762   3.626   4.690 -0.1281  1.9536 -0.1314
 5890TIP3    H239086   2.902   3.594   4.643 -1.1535 -1.5867 -1.0175
 5891TIP3   OH239087   2.135   1.184  11.843  0.8428 -0.1336  0.2992
 5891TIP3    H139088   2.136   1.091  11.821 -0.1932 -0.0333 -0.2320
 5891TIP3    H239089   2.080   1.191  11.921  1.6467 -0.0619  0.8729
 5892TIP3   OH239090   6.182   6.288   5.675 -0.3702  0.1715 -0.3673
 5892TIP3    H139091   6.228   6.300   5.758  0.2557  1.2384 -0.8505
 5892TIP3    H239092   6.205   6.365   5.623  0.0441 -0.9379 -1.8962
 5893TIP3   OH239093   6.434   0.866  16.567  0.3809  0.1601 -0.1379
 5893TIP3    H139094   6.375   0.855  16.492 -1.0678  1.3837  0.7561
 5893TIP3    H239095   6.493   0.936  16.541  1.6241 -1.1820 -1.1047
 5894TIP3   OH239096   3.915   2.069   0.718  0.2667  0.4643  0.3794
 5894TIP3    H139097   3.905   2.124   0.640 -0.8153  0.7333  0.6996
 5894TIP3    H239098   3.853   2.105   0.781 -1.2060 -1.6714  0.2705
 5895TIP3   OH239099   1.295   1.980   0.315 -0.0584 -0.2687  0.2386
 5895TIP3    H139100   1.378   1.975   0.268 -0.1347 -0.2983  0.1066
 5895TIP3    H239101   1.307   1.923   0.390  0.0442 -0.2671  0.2239
 5896TIP3   OH239102   1.515   2.741  16.351 -0.2300 -0.2661 -0.3912
 5896TIP3    H139103   1.539   2.683  16.279  2.2943  1.5579 -1.1957
 5896TIP3    H239104   1.422   2.759  16.337 -1.3738 -4.5079  0.3521
 5897TIP3   OH239105   4.267   5.303   4.960  0.3546 -0.0360 -0.6287
 5897TIP3    H139106   4.187   5.337   5.000  0.8328 -0.4936  0.8075
 5897TIP3    H239107   4.252   5.309   4.866 -0.9503  0.8417 -0.3890
 5898TIP3   OH239108   0.789   2.559   6.114 -0.5805 -0.7681 -0.0969
 5898TIP3    H139109   0.825   2.642   6.146 -1.3526 -0.3058 -0.4027
 5898TIP3    H239110   0.758   2.514   6.192  1.0558 -1.3872  0.2322
 5899TIP3   OH239111   5.787   3.752  16.145  0.2961 -0.7979 -0.3240
 5899TIP3    H139112   5.851   3.802  16.094 -1.2054  3.2068  1.3469
 5899TIP3    H239113   5.837   3.716  16.218  0.9999  0.8371  0.0390
 5900TIP3   OH239114   3.479   2.746   0.673  0.5350 -0.1903 -0.2986
 5900TIP3    H139115   3.447   2.670   0.722  1.2346 -0.5896 -0.4538
 5900TIP3    H239116   3.466   2.723   0.581 -0.6760  0.5134 -0.3280
 5901TIP3   OH239117   0.670   0.033   5.605  0.5561 -0.2454  0.0921
 5901TIP3    H139118   0.613  -0.039   5.580 -0.6788  0.4746  0.7255
 5901TIP3    H239119   0.749  -0.009   5.638 -0.1313 -1.3105  0.4281
 5902TIP3   OH239120   0.482   3.365   5.515 -0.0772 -0.1535  0.2824
 5902TIP3    H139121   0.451   3.378   5.425  2.5157 -3.2488 -1.2504
 5902TIP3    H239122   0.458   3.275   5.536  3.1931 -0.9795  0.9048
 5903TIP3   OH239123   4.197   6.643  13.288  0.4401 -0.2733 -0.1146
 5903TIP3    H139124   4.201   6.703  13.362 -0.1215  0.5100 -0.7085
 5903TIP3    H239125   4.150   6.691  13.220 -0.1530 -1.4235 -0.5558
 5904TIP3   OH239126   4.718   4.578   2.359  0.2655 -0.3993 -0.0332
 5904TIP3    H139127   4.783   4.593   2.291 -0.7913 -1.1348 -1.2451
 5904TIP3    H239128   4.745   4.496   2.400 -0.2895 -1.1051 -1.0418
 5905TIP3   OH239129   3.852   5.578  16.195 -0.2328 -0.1782 -0.5826
 5905TIP3    H139130   3.859   5.609  16.105  0.6984  0.0685 -0.4389
 5905TIP3    H239131   3.881   5.652  16.249 -0.9867 -0.2468 -0.0616
 5906TIP3   OH239132   6.733   6.047   3.788  0.8026  0.1271  0.1966
 5906TIP3    H139133   6.804   6.019   3.847 -1.2586 -0.5865  2.4744
 5906TIP3    H239134   6.671   5.974   3.789  0.5981  0.1126 -2.9045
 5907TIP3   OH239135   5.325   0.727  15.329  0.5226 -0.0493  0.4576
 5907TIP3    H139136   5.345   0.657  15.266  0.7097 -1.4435  1.9877
 5907TIP3    H239137   5.410   0.765  15.351  0.4512  0.4793 -0.1506
 5908TIP3   OH239138   6.480   1.597  17.079 -0.0421 -0.3086 -0.4035
 5908TIP3    H139139   6.433   1.677  17.101 -0.1977  0.2349 -2.4526
 5908TIP3    H239140   6.520   1.568  17.161  1.1160  2.6039  0.1799
 5909TIP3   OH239141   6.478   4.786  17.104 -0.3336 -0.0144 -0.1791
 5909TIP3    H139142   6.496   4.736  17.183 -0.2590 -2.0205 -1.3988
 5909TIP3    H239143   6.482   4.878  17.132  0.0872 -0.6506  2.0248
 5910TIP3   OH239144   0.174   3.459   3.153  0.7204 -0.2654  0.0403
 5910TIP3    H139145   0.181   3.366   3.131  1.5383 -0.3527  0.6295
 5910TIP3    H239146   0.088   3.484   3.122  1.3209 -0.6768 -2.1668
 5911TIP3   OH239147   3.396   5.574  10.946  0.1779  0.1437  0.2877
 5911TIP3    H139148   3.431   5.488  10.924  1.3874  0.8548 -0.6722
 5911TIP3    H239149   3.335   5.557  11.018  1.7316 -1.2826  1.3380
 5912TIP3   OH239150   0.957   0.882  11.314  0.3699  0.4727  0.3673
 5912TIP3    H139151   0.897   0.899  11.387 -0.0296 -1.7844  0.6210
 5912TIP3    H239152   0.944   0.790  11.292  0.6128  1.0336 -2.4743
 5913TIP3   OH239153   5.881   5.402  11.875 -0.3114  0.2490 -0.3424
 5913TIP3    H139154   5.802   5.393  11.821 -0.3620  3.0523 -0.9009
 5913TIP3    H239155   5.860   5.472  11.937  0.4771 -1.5158  2.0556
 5914TIP3   OH239156   3.312   2.551   0.251  0.1251  0.4180 -0.0525
 5914TIP3    H139157   3.307   2.514   0.163  1.9849 -0.8548  0.3236
 5914TIP3    H239158   3.304   2.475   0.309 -0.2542  1.1430  0.8608
 5915TIP3   OH239159   0.595   5.171   1.718 -0.1333 -0.4620  0.5478
 5915TIP3    H139160   0.654   5.175   1.793 -1.2485  2.9696  1.4206
 5915TIP3    H239161   0.527   5.109   1.745  0.5523 -0.8209  1.5024
 5916TIP3   OH239162   5.699   1.510  15.807 -0.2138  0.1185 -0.4029
 5916TIP3    H139163   5.647   1.498  15.887 -0.1905  1.7637 -0.1063
 5916TIP3    H239164   5.637   1.547  15.744  0.4771  1.8839 -0.1196
 5917TIP3   OH239165   5.725   2.625  11.376 -0.2811 -0.0028  0.2923
 5917TIP3    H139166   5.689   2.653  11.292 -0.6539  3.4078  1.4182
 5917TIP3    H239167   5.651   2.585  11.422 -1.0695  1.3364  0.2537
 5918TIP3   OH239168   4.508   0.739   6.440  0.2085 -0.3865  0.2462
 5918TIP3    H139169   4.516   0.668   6.376  3.3416  0.0634 -0.0155
 5918TIP3    H239170   4.487   0.816   6.388  0.0754 -0.5230  0.0979
 5919TIP3   OH239171   1.539   6.441  14.468  0.0361  0.2384 -0.2061
 5919TIP3    H139172   1.575   6.355  14.491  0.2838 -0.0510 -1.5617
 5919TIP3    H239173   1.591   6.503  14.519 -0.6893 -0.4446  1.4185
 5920TIP3   OH239174   0.888   3.989  11.719 -0.2010 -0.6225 -0.1165
 5920TIP3    H139175   0.912   4.060  11.660  1.6168 -0.4620  0.7482
 5920TIP3    H239176   0.927   4.014  11.803  1.5593 -3.2035 -0.0719
 5921TIP3   OH239177   1.103   6.127  14.197  0.2825 -0.0854  0.1840
 5921TIP3    H139178   1.064   6.214  14.205  2.0431  0.7144  0.6647
 5921TIP3    H239179   1.033   6.072  14.161 -1.0303  1.3974  0.3652
 5922TIP3   OH239180   2.260   2.597   5.238  0.0917  0.8760  0.1045
 5922TIP3    H139181   2.328   2.540   5.202 -0.8748 -0.3524  0.1639
 5922TIP3    H239182   2.266   2.677   5.185  2.1946  1.2140  0.7364
 5923TIP3   OH239183   4.547   3.239  12.624  0.6999 -1.1871 -0.2362
 5923TIP3    H139184   4.615   3.243  12.691  0.5455 -0.2221 -0.1174
 5923TIP3    H239185   4.468   3.214  12.671 -0.3845  3.3384  0.8520
 5924TIP3   OH239186   6.475   4.379  11.763 -0.3720  0.3580  0.3282
 5924TIP3    H139187   6.398   4.325  11.743  1.3600 -1.7095 -1.1762
 5924TIP3    H239188   6.536   4.361  11.692  1.1943  2.6747  0.9687
 5925TIP3   OH239189   1.237   6.090  12.412  0.3183 -0.4830  0.1235
 5925TIP3    H139190   1.317   6.073  12.463  0.4958 -0.9111 -0.2932
 5925TIP3    H239191   1.264   6.082  12.321  0.0476  0.5138 -0.0526
 5926TIP3   OH239192   6.278   0.432   0.633  0.0938 -0.0130  0.8547
 5926TIP3    H139193   6.242   0.447   0.721 -0.3578  0.1586  0.6394
 5926TIP3    H239194   6.366   0.470   0.637  0.4912 -0.9758  1.5693
 5927TIP3   OH239195   6.080   2.758   0.370  0.0872 -0.4470  0.4276
 5927TIP3    H139196   6.090   2.820   0.298 -2.5962  0.6802  0.9223
 5927TIP3    H239197   6.003   2.707   0.348 -0.7881 -0.0955  2.4211
 5928TIP3   OH239198   0.796   6.754   3.025  0.1206  0.3890  0.4008
 5928TIP3    H139199   0.731   6.822   3.047 -1.3220 -0.2346 -1.6631
 5928TIP3    H239200   0.746   6.673   3.021  1.3153 -0.3612  0.1082
 5929TIP3   OH239201   3.257   2.854   4.724  0.2213  0.1241  0.2363
 5929TIP3    H139202   3.318   2.817   4.787  0.4358  0.0195 -0.0318
 5929TIP3    H239203   3.310   2.912   4.669  0.2328 -0.5567 -0.4857
 5930TIP3   OH239204   3.565   0.078  14.776 -0.0293  0.3676 -0.3120
 5930TIP3    H139205   3.601  -0.003  14.739 -1.9284 -1.4501  1.5637
 5930TIP3    H239206   3.491   0.099  14.720 -1.5598 -1.1550  1.0056
 5931TIP3   OH239207   2.070   1.938  13.020 -0.1293  0.0666  0.4586
 5931TIP3    H139208   2.089   1.918  12.928  0.3964  0.8945  0.3771
 5931TIP3    H239209   2.096   2.030  13.031 -0.6788  0.1343  1.3026
 5932TIP3   OH239210   5.784   4.199   4.081  0.2888 -0.0317 -0.0677
 5932TIP3    H139211   5.705   4.191   4.134  0.6526  1.6603  0.7908
 5932TIP3    H239212   5.827   4.278   4.113  1.1255  0.4147 -2.1359
 5933TIP3   OH239213   5.336   3.248   2.365 -0.4388 -0.2979  0.4527
 5933TIP3    H139214   5.305   3.334   2.392  0.1802  0.2808 -0.5867
 5933TIP3    H239215   5.330   3.194   2.443 -1.3718  0.5381  0.9786
 5934TIP3   OH239216   1.978   1.826   2.887  0.2419 -0.2345 -0.0567
 5934TIP3    H139217   1.893   1.860   2.915  0.3748 -0.4481  0.6390
 5934TIP3    H239218   1.977   1.734   2.914  0.5303 -0.3468 -0.4214
 5935TIP3   OH239219   2.853   5.675  11.015 -0.1725  0.2063 -0.2565
 5935TIP3    H139220   2.890   5.588  11.000 -0.8552 -0.1965  0.3308
 5935TIP3    H239221   2.839   5.710  10.926 -1.0317 -0.7894 -0.5372
 5936TIP3   OH239222   5.772   1.744  14.162  0.7330  0.0970  0.1843
 5936TIP3    H139223   5.798   1.676  14.224 -0.2771 -1.5571 -1.1252
 5936TIP3    H239224   5.699   1.789  14.206  0.7858 -0.2867  0.6784
 5937TIP3   OH239225   6.631   5.712   1.805 -0.0413  0.8510  0.0203
 5937TIP3    H139226   6.576   5.685   1.879 -0.1258  1.6109  0.2398
 5937TIP3    H239227   6.634   5.808   1.810  1.2986  0.8304  0.0070
 5938TIP3   OH239228   0.960   1.443   1.698  0.3769 -0.2416 -0.5423
 5938TIP3    H139229   0.994   1.396   1.621 -1.2516 -0.0832 -1.4005
 5938TIP3    H239230   0.925   1.374   1.755 -1.3923 -0.1829 -1.4890
 5939TIP3   OH239231   4.989   1.927  15.317  0.0929 -0.6443  0.1382
 5939TIP3    H139232   4.895   1.942  15.306 -0.0868 -0.8489  1.2812
 5939TIP3    H239233   5.005   1.843  15.275  0.0657  0.0924 -1.4034
 5940TIP3   OH239234   0.575   6.332  15.794  0.4389 -0.4644 -0.8764
 5940TIP3    H139235   0.489   6.373  15.794  0.3096 -0.6756  0.5017
 5940TIP3    H239236   0.623   6.379  15.863  0.7146 -1.7252 -0.1770
 5941TIP3   OH239237   2.076   0.165   5.412 -0.2415  0.1761 -0.2211
 5941TIP3    H139238   2.038   0.101   5.352  1.5953 -0.2654 -0.9543
 5941TIP3    H239239   2.002   0.192   5.466 -1.1325 -2.5387  0.1118
 5942TIP3   OH239240   4.667   2.694  14.385  0.0762 -0.0695 -0.3632
 5942TIP3    H139241   4.631   2.639  14.314 -1.4391  0.2599  0.1051
 5942TIP3    H239242   4.756   2.713  14.357 -0.5650  0.3003 -2.3587
 5943TIP3   OH239243   0.327   5.588   0.820  0.4490  0.5622  0.3684
 5943TIP3    H139244   0.347   5.551   0.905  0.3047 -0.4139 -0.0081
 5943TIP3    H239245   0.287   5.673   0.839 -1.2339 -0.4165  1.3337
 5944TIP3   OH239246   0.533   2.704  11.878  0.2739  0.0553 -0.4059
 5944TIP3    H139247   0.514   2.617  11.841  0.3728  0.7927 -2.2651
 5944TIP3    H239248   0.628   2.709  11.880  0.2682  0.1012 -0.2156
 5945TIP3   OH239249   0.650   4.075   3.617 -0.0117  0.3579  0.0669
 5945TIP3    H139250   0.610   4.161   3.616  1.1830  0.9380 -0.0275
 5945TIP3    H239251   0.600   4.025   3.682 -0.6012  1.1761  0.2500
 5946TIP3   OH239252   4.446   0.710  11.594 -0.1191 -0.0706 -0.1463
 5946TIP3    H139253   4.462   0.805  11.597  0.1051 -0.0887 -0.6653
 5946TIP3    H239254   4.377   0.699  11.530 -0.7750 -0.1889  0.5598
 5947TIP3   OH239255   4.450   5.958   2.479 -0.0348  0.1264  0.0962
 5947TIP3    H139256   4.420   5.868   2.466 -1.4601  0.6608 -0.5997
 5947TIP3    H239257   4.373   6.012   2.459  0.9300  1.5240 -0.0148
 5948TIP3   OH239258   4.014   6.593   5.056 -0.6602  0.1359  0.0415
 5948TIP3    H139259   4.066   6.536   5.000  0.6893  1.9427 -0.6797
 5948TIP3    H239260   4.049   6.578   5.144 -1.2154 -1.0533  0.0706
 5949TIP3   OH239261   5.158   5.386   5.206 -0.1013 -0.7212  0.1406
 5949TIP3    H139262   5.063   5.376   5.216 -0.4438  0.8208 -1.0608
 5949TIP3    H239263   5.172   5.481   5.211  0.8192 -0.5040 -3.4823
 5950TIP3   OH239264   3.521   1.490   0.418  0.1840  0.5299  0.3971
 5950TIP3    H139265   3.599   1.470   0.469 -0.1290 -0.2126  0.6012
 5950TIP3    H239266   3.461   1.531   0.481  0.2800  0.7859  0.3220
 5951TIP3   OH239267   4.345   1.868   2.376 -0.6271  0.0638  0.3195
 5951TIP3    H139268   4.415   1.930   2.398  0.2605  0.1587 -2.4812
 5951TIP3    H239269   4.366   1.838   2.288 -2.4763 -2.2762  0.5910
 5952TIP3   OH239270   6.082   3.477   2.666  0.1767  0.0631 -0.0279
 5952TIP3    H139271   6.112   3.424   2.739  1.4510  2.2759  1.1621
 5952TIP3    H239272   6.129   3.443   2.590  0.3877 -0.9491  0.5424
 5953TIP3   OH239273   3.227   6.360   2.513  0.1986  0.0552 -0.2673
 5953TIP3    H139274   3.156   6.378   2.574 -0.3918  0.3320 -1.0151
 5953TIP3    H239275   3.303   6.403   2.551  0.2770 -1.2703  1.1676
 5954TIP3   OH239276   0.589   3.110  12.875 -0.1783 -0.3822  0.3501
 5954TIP3    H139277   0.501   3.098  12.911  0.3430 -0.3647  1.6886
 5954TIP3    H239278   0.602   3.035  12.817 -1.3567  0.0251 -0.4612
 5955TIP3   OH239279   3.783   0.342   3.312 -0.3083  0.2481  0.1654
 5955TIP3    H139280   3.708   0.349   3.252 -0.5216  0.1010  0.4117
 5955TIP3    H239281   3.830   0.264   3.282  0.6317  1.2247 -0.9736
 5956TIP3   OH239282   3.201   2.605  15.899 -0.2621 -0.0255 -0.2061
 5956TIP3    H139283   3.237   2.694  15.905 -1.4505  0.3568  2.4969
 5956TIP3    H239284   3.133   2.612  15.831  0.4260  0.8136 -0.8404
 5957TIP3   OH239285   1.217   4.719  13.647 -0.3216  0.0998  0.0496
 5957TIP3    H139286   1.136   4.761  13.618  0.1735  0.4828 -0.8034
 5957TIP3    H239287   1.214   4.725  13.743 -0.5722  1.4884 -0.0281
 5958TIP3   OH239288   1.606   6.251   4.752  0.1301  0.1061  0.2474
 5958TIP3    H139289   1.691   6.286   4.779  0.1804  0.1481  0.0406
 5958TIP3    H239290   1.573   6.316   4.690  0.0869 -0.0629  0.0925
 5959TIP3   OH239291   2.762   1.610  13.103 -0.9278 -0.1025 -0.4205
 5959TIP3    H139292   2.854   1.629  13.125 -1.2940  2.8217 -0.9932
 5959TIP3    H239293   2.756   1.627  13.009 -1.4436 -3.4282 -1.1321
 5960TIP3   OH239294   2.430   2.931  17.195 -0.3218  0.0925 -0.4015
 5960TIP3    H139295   2.432   2.964  17.105 -1.8255  1.1449 -0.0940
 5960TIP3    H239296   2.362   2.864  17.195 -0.4134  0.1810 -0.0293
 5961TIP3   OH239297   0.093   2.922   0.326  0.4080 -0.0205 -0.4668
 5961TIP3    H139298   0.048   2.849   0.370 -0.9528  1.4953  0.7870
 5961TIP3    H239299   0.153   2.956   0.392  0.0586  0.8010 -0.5609
 5962TIP3   OH239300   0.627   1.646   5.318 -0.5084  0.0794  0.2559
 5962TIP3    H139301   0.717   1.614   5.314 -0.9206 -1.0062 -1.7502
 5962TIP3    H239302   0.573   1.567   5.318 -1.5093  0.6026 -3.1257
 5963TIP3   OH239303   1.185   6.142   4.910  0.5095  0.1641 -0.3392
 5963TIP3    H139304   1.123   6.187   4.967 -0.3305  1.4811 -2.1742
 5963TIP3    H239305   1.160   6.050   4.915  0.4346  0.2423  1.3188
 5964TIP3   OH239306   4.478   1.889  16.335  0.0367  0.0890  0.3599
 5964TIP3    H139307   4.518   1.832  16.401  2.7773  2.1286  0.6626
 5964TIP3    H239308   4.494   1.844  16.252 -0.4842 -0.9341  0.8006
 5965TIP3   OH239309   3.560   1.814  15.588  0.0611  0.4444  0.1322
 5965TIP3    H139310   3.588   1.906  15.582  0.7774  0.1830 -0.8921
 5965TIP3    H239311   3.594   1.774  15.508  2.3672 -1.3935  1.8918
 5966TIP3   OH239312   5.471   4.613   3.791 -0.2829  0.1819  0.1387
 5966TIP3    H139313   5.387   4.584   3.827 -0.8625  0.3829 -0.9732
 5966TIP3    H239314   5.536   4.590   3.857 -1.1601 -0.3981  0.8179
 5967TIP3   OH239315   4.815   6.102   5.584 -0.2444 -0.5003  0.0084
 5967TIP3    H139316   4.898   6.059   5.565 -0.0636  0.2548 -0.9978
 5967TIP3    H239317   4.807   6.170   5.517 -2.3477 -1.4927 -0.8456
 5968TIP3   OH239318   3.128   3.860  12.186 -0.6621 -0.2828  0.0414
 5968TIP3    H139319   3.069   3.785  12.198 -0.0223 -0.5868  1.5076
 5968TIP3    H239320   3.206   3.838  12.238 -0.2803  1.2020  0.1447
 5969TIP3   OH239321   0.379   3.806   5.815  0.2481 -0.3369 -0.1173
 5969TIP3    H139322   0.416   3.776   5.732 -1.1917  0.5363 -1.1219
 5969TIP3    H239323   0.434   3.765   5.882  2.4662  0.2097 -1.4845
 5970TIP3   OH239324   0.492   6.173   3.774 -0.1431 -0.3712  0.0883
 5970TIP3    H139325   0.534   6.213   3.698 -0.5365  1.3382  0.7260
 5970TIP3    H239326   0.428   6.113   3.737  1.7690 -1.9126 -0.8947
 5971TIP3   OH239327   2.831   3.111  14.412  0.0939 -0.0524  0.6541
 5971TIP3    H139328   2.738   3.130  14.399  0.4773  0.7766 -1.1743
 5971TIP3    H239329   2.832   3.023  14.451 -1.4419 -0.2683  0.2845
 5972TIP3   OH239330   0.232   6.476   0.928 -0.6615 -0.1122 -0.4630
 5972TIP3    H139331   0.270   6.391   0.952 -1.4576 -0.3023  0.1893
 5972TIP3    H239332   0.190   6.506   1.008 -1.1712  0.4734 -0.9437
 5973TIP3   OH239333   0.394   4.448  13.992  0.1562 -0.0275 -0.3431
 5973TIP3    H139334   0.461   4.500  13.949 -0.4765  1.3880  0.3084
 5973TIP3    H239335   0.312   4.471  13.947 -0.1930 -0.1452  0.2127
 5974TIP3   OH239336   2.366   4.203   2.500 -0.8553 -0.1892  0.5983
 5974TIP3    H139337   2.389   4.196   2.408 -2.8676  1.5124 -0.0961
 5974TIP3    H239338   2.338   4.294   2.511 -0.0096 -0.1384  3.0747
 5975TIP3   OH239339   0.283   4.185   4.805 -0.2643  0.0767  0.2869
 5975TIP3    H139340   0.245   4.264   4.844  0.0558  0.3249  0.1071
 5975TIP3    H239341   0.290   4.205   4.712  1.2585  0.4518  0.4552
 5976TIP3   OH239342   2.071   6.161  14.578  0.4971  0.1448 -0.2083
 5976TIP3    H139343   2.058   6.240  14.526 -0.3347  0.2038  0.0826
 5976TIP3    H239344   2.034   6.091  14.524  1.7449 -0.1451 -0.7213
 5977TIP3   OH239345   4.497   5.561  12.845 -0.0553  0.3608  0.1950
 5977TIP3    H139346   4.514   5.571  12.939 -3.0366  1.8764  0.7010
 5977TIP3    H239347   4.502   5.650  12.810  3.0558 -0.3737 -1.6280
 5978TIP3   OH239348   2.835   3.665   3.029  0.3843  0.0379  0.5424
 5978TIP3    H139349   2.817   3.605   2.957 -0.3000 -0.8712  1.4430
 5978TIP3    H239350   2.755   3.717   3.037  0.1197 -0.4520  1.1838
 5979TIP3   OH239351   1.440   1.697   3.502  0.5380 -0.1421  0.5995
 5979TIP3    H139352   1.384   1.713   3.427  0.3825  0.1639  0.7806
 5979TIP3    H239353   1.529   1.699   3.466  0.4699  0.1272  0.4474
 5980TIP3   OH239354   3.654   5.524  13.180 -0.3801  0.1428  0.5560
 5980TIP3    H139355   3.564   5.538  13.150  0.0488 -1.3392 -1.7625
 5980TIP3    H239356   3.709   5.568  13.114  0.6055  0.0856  1.3112
 5981TIP3   OH239357   0.258   5.101   0.057 -0.2831 -0.1834  0.2749
 5981TIP3    H139358   0.300   5.168   0.003  0.7302 -1.6114 -0.8121
 5981TIP3    H239359   0.232   5.146   0.137  0.4597  1.4660 -0.3758
 5982TIP3   OH239360   0.680   4.300  12.815  0.0109  0.4142  0.4909
 5982TIP3    H139361   0.655   4.371  12.873  0.9192 -0.0643  1.5010
 5982TIP3    H239362   0.620   4.229  12.835 -0.7315  0.7828 -0.3397
 5983TIP3   OH239363   4.276   4.402   3.048 -0.1255 -0.9098  0.3282
 5983TIP3    H139364   4.345   4.412   3.114 -1.1531  0.9089  1.1862
 5983TIP3    H239365   4.323   4.404   2.965  0.8533  0.5692  0.8814
 5984TIP3   OH239366   0.316   6.449   3.648 -0.0037  0.1741 -0.2146
 5984TIP3    H139367   0.359   6.365   3.635 -0.6147  0.0625 -1.7300
 5984TIP3    H239368   0.363   6.509   3.590 -0.6264  0.4887 -0.4041
 5985TIP3   OH239369   1.903   5.176  11.156  0.3077  0.5091  0.1231
 5985TIP3    H139370   1.992   5.187  11.124  0.9833 -0.9201  1.3965
 5985TIP3    H239371   1.852   5.150  11.079  1.5539 -1.3308 -0.1326
 5986TIP3   OH239372   1.726   2.066  14.088  0.0684  0.8020 -0.2845
 5986TIP3    H139373   1.691   2.044  14.174  3.2601 -1.8261  0.5287
 5986TIP3    H239374   1.771   2.150  14.102  0.9903  0.1551  0.7928
 5987TIP3   OH239375   4.789   5.174  13.067 -0.3887  0.1340  0.4101
 5987TIP3    H139376   4.830   5.240  13.122 -1.6455 -0.2914  1.9380
 5987TIP3    H239377   4.860   5.115  13.043  0.2654  0.5583  1.2585
 5988TIP3   OH239378   0.509   2.319   4.978  0.2195  0.2157 -0.8086
 5988TIP3    H139379   0.553   2.326   5.062  0.9700  0.5107 -1.2175
 5988TIP3    H239380   0.576   2.344   4.913 -0.2965 -0.1528 -1.4992
 5989TIP3   OH239381   4.788   6.653  14.914  0.5388 -0.5102  0.1340
 5989TIP3    H139382   4.782   6.747  14.899 -2.0073 -0.4344  1.2644
 5989TIP3    H239383   4.786   6.615  14.826 -0.5234  0.4282 -0.2698
 5990TIP3   OH239384   4.157   0.759   5.771  0.2341 -0.1641 -0.3323
 5990TIP3    H139385   4.112   0.816   5.832 -0.8078 -0.7522 -0.5288
 5990TIP3    H239386   4.232   0.725   5.821 -0.0556  0.1075  0.3005
 5991TIP3   OH239387   5.331   2.938   4.137 -0.5816  0.4356 -0.2348
 5991TIP3    H139388   5.252   2.938   4.190 -0.2255 -1.7864  0.4080
 5991TIP3    H239389   5.309   2.881   4.062  0.0474  0.6850 -0.6149
 5992TIP3   OH239390   5.768   5.343  11.181  0.4870 -0.1841  0.2520
 5992TIP3    H139391   5.840   5.327  11.242  0.3989  0.4179  0.5306
 5992TIP3    H239392   5.695   5.369  11.237 -0.1590 -1.4482  0.0272
 5993TIP3   OH239393   5.444   0.894  15.841 -0.3917  0.1801 -0.1299
 5993TIP3    H139394   5.491   0.846  15.772 -1.4469  0.4026 -1.0349
 5993TIP3    H239395   5.453   0.838  15.918 -0.4425 -0.8195 -0.8228
 5994TIP3   OH239396   0.804   1.355  14.250 -0.0396  0.4066  0.2833
 5994TIP3    H139397   0.750   1.277  14.234 -0.0579  0.3249  0.7486
 5994TIP3    H239398   0.846   1.338  14.334 -0.1140  0.9392  0.4281
 5995TIP3   OH239399   5.755   2.760  14.442 -0.2162 -0.8644  0.1918
 5995TIP3    H139400   5.831   2.722  14.486 -0.0523  1.0106  1.6668
 5995TIP3    H239401   5.692   2.688  14.436 -0.3947 -1.2047  3.9299
 5996TIP3   OH239402   3.803   2.978   2.055 -0.0555  0.2167  0.3803
 5996TIP3    H139403   3.798   2.910   2.122  0.2469 -0.9498 -0.7362
 5996TIP3    H239404   3.750   3.049   2.089 -0.6038 -0.6793  1.4711
 5997TIP3   OH239405   0.651   5.495   5.786  0.3563  0.9526 -0.2398
 5997TIP3    H139406   0.633   5.424   5.848  1.5201  1.2094  0.4239
 5997TIP3    H239407   0.740   5.478   5.756  1.4738  3.2203  1.4914
 5998TIP3   OH239408   0.222   1.738  11.552 -0.2831  0.2396  0.0409
 5998TIP3    H139409   0.202   1.644  11.557 -0.0421  0.1428 -0.7247
 5998TIP3    H239410   0.179   1.768  11.472 -0.0718  0.7074  0.0998
 5999TIP3   OH239411   0.247   4.396   6.017  0.2375 -0.2237 -0.3814
 5999TIP3    H139412   0.291   4.359   6.093  0.7389 -1.4478 -1.2234
 5999TIP3    H239413   0.188   4.463   6.052  1.8524  0.5777  0.8868
 6000TIP3   OH239414   0.473   3.905   3.801  0.6514  0.3424  0.6577
 6000TIP3    H139415   0.420   3.879   3.876  0.8418  0.9496  1.0127
 6000TIP3    H239416   0.423   3.876   3.725  0.4947 -0.3587  1.0159
 6001TIP3   OH239417   6.152   5.910   2.587 -0.5635 -0.0803  0.2504
 6001TIP3    H139418   6.161   5.837   2.527 -0.0287 -0.4469  0.7619
 6001TIP3    H239419   6.238   5.917   2.629 -0.5819  0.8847  0.1540
 6002TIP3   OH239420   3.057   0.075   5.257 -0.6234 -0.2146  0.5804
 6002TIP3    H139421   3.149   0.048   5.256 -0.7154 -0.6760  2.3785
 6002TIP3    H239422   3.042   0.108   5.168  1.0048 -1.0009 -0.0381
 6003TIP3   OH239423   2.092   6.528   5.091  0.2999  1.0087 -0.0439
 6003TIP3    H139424   2.121   6.559   5.005 -0.7223  1.9654 -0.0669
 6003TIP3    H239425   2.088   6.433   5.082 -1.0099  1.1503 -1.4810
 6004TIP3   OH239426   5.634   5.187  16.750 -0.5385  0.0687  0.0319
 6004TIP3    H139427   5.638   5.268  16.800 -0.7604  0.5734 -0.7524
 6004TIP3    H239428   5.547   5.151  16.770 -0.8228  0.5208 -0.3675
 6005TIP3   OH239429   3.314   0.166   2.307 -1.1043 -0.1762 -0.1349
 6005TIP3    H139430   3.312   0.260   2.327 -2.1541  0.1806 -1.7062
 6005TIP3    H239431   3.282   0.160   2.217 -0.9921 -2.0494 -0.0906
 6006TIP3   OH239432   1.123   4.969   6.335 -0.1402 -0.5025 -0.3047
 6006TIP3    H139433   1.199   5.026   6.349 -1.2233  0.7181  0.9714
 6006TIP3    H239434   1.146   4.916   6.259  1.5291  0.6078 -0.6268
 6007TIP3   OH239435   2.545   5.091  15.242 -0.2266  0.4909 -0.4107
 6007TIP3    H139436   2.532   5.134  15.327  2.1018  2.8355 -1.1481
 6007TIP3    H239437   2.493   5.143  15.181 -0.3737 -0.0445 -0.7463
 6008TIP3   OH239438   2.053   6.374  14.186 -0.1043  0.0273  0.1176
 6008TIP3    H139439   2.115   6.348  14.117  0.1034 -0.5489  0.5124
 6008TIP3    H239440   2.109   6.409  14.256 -0.0881 -1.6618  1.0036
 6009TIP3   OH239441   1.296   4.881  16.123 -0.2424 -0.1287 -0.4675
 6009TIP3    H139442   1.297   4.871  16.028  0.4174  1.4001 -0.6537
 6009TIP3    H239443   1.266   4.971  16.138 -1.5781 -0.7399  0.8391
 6010TIP3   OH239444   5.965   5.467   1.457  0.0013 -0.6623  0.0469
 6010TIP3    H139445   5.872   5.486   1.444  0.0819 -0.0180  0.3975
 6010TIP3    H239446   6.009   5.549   1.437  0.4186 -0.6829  0.8663
 6011TIP3   OH239447   1.562   2.178  15.263 -0.0475  0.3136 -0.5517
 6011TIP3    H139448   1.655   2.158  15.269 -0.1705  0.1535  1.7197
 6011TIP3    H239449   1.537   2.205  15.352 -2.1149  0.5798 -1.1557
 6012TIP3   OH239450   1.938   6.520  12.258 -0.4912  0.2478  0.3859
 6012TIP3    H139451   1.980   6.587  12.205  0.8597  0.2078  1.3737
 6012TIP3    H239452   1.854   6.505  12.215  0.7908 -0.2568 -2.1209
 6013TIP3   OH239453   2.602   5.733  12.272  0.0081  0.0613 -0.0481
 6013TIP3    H139454   2.692   5.720  12.303  0.1313 -1.2269 -0.8574
 6013TIP3    H239455   2.613   5.766  12.182 -0.3138 -0.2670 -0.2109
 6014TIP3   OH239456   4.573   6.609   1.672 -0.1238 -0.4935  0.5837
 6014TIP3    H139457   4.639   6.581   1.736 -0.5722 -0.8384  0.9041
 6014TIP3    H239458   4.538   6.690   1.708 -0.6136 -0.8622  0.9610
 6015TIP3   OH239459   0.105   1.541  14.485  0.0798 -0.3705 -0.4857
 6015TIP3    H139460   0.177   1.554  14.423  0.4508  0.4093  0.0911
 6015TIP3    H239461   0.027   1.533  14.430  0.2467  1.3420 -1.0428
 6016TIP3   OH239462   3.906   3.037  15.980 -0.2077 -0.2401  0.0945
 6016TIP3    H139463   3.931   3.031  15.888  3.2489 -4.0425  0.9687
 6016TIP3    H239464   3.976   3.088  16.020 -0.2745 -0.8104  0.9560
 6017TIP3   OH239465   0.393   0.670  13.635  0.1133  0.3432  0.4396
 6017TIP3    H139466   0.376   0.674  13.729  0.0571 -1.6089  0.5548
 6017TIP3    H239467   0.307   0.659  13.596  0.2839 -0.7366  0.3332
 6018TIP3   OH239468   6.592   1.115  10.968  0.5549 -0.0672  0.7092
 6018TIP3    H139469   6.561   1.195  11.010  0.5597  0.6243 -0.5472
 6018TIP3    H239470   6.516   1.081  10.921  0.4089 -1.1102  1.6563
 6019TIP3   OH239471   1.291   4.495  16.207  0.2833  0.1785 -0.7905
 6019TIP3    H139472   1.331   4.446  16.279 -0.2876 -1.0471 -1.2955
 6019TIP3    H239473   1.261   4.576  16.248 -1.8246 -1.3220  0.8212
 6020TIP3   OH239474   3.454   5.588  15.376 -0.1067  0.2688 -0.3321
 6020TIP3    H139475   3.463   5.570  15.282  2.2494 -1.3910  0.1228
 6020TIP3    H239476   3.513   5.662  15.392 -0.0492  0.1628 -0.0535
 6021TIP3   OH239477   4.704   0.365  12.283 -0.4445  0.2899 -0.0018
 6021TIP3    H139478   4.693   0.433  12.216 -0.5824 -0.4412 -0.7471
 6021TIP3    H239479   4.775   0.397  12.338  1.3319 -0.1308 -1.9000
 6022TIP3   OH239480   0.298   0.112  14.101 -0.1870 -0.0115 -0.4792
 6022TIP3    H139481   0.302   0.205  14.080  2.7692  0.1890  0.6464
 6022TIP3    H239482   0.348   0.102  14.181 -0.9581 -2.5238 -0.2078
 6023TIP3   OH239483   5.948   1.028   3.365  0.2208  0.3460 -0.5283
 6023TIP3    H139484   6.043   1.025   3.377  0.0707 -2.2071  0.6161
 6023TIP3    H239485   5.924   0.938   3.342 -1.7693  1.2727 -2.3868
 6024TIP3   OH239486   0.693   4.694   5.843 -0.5778  0.0670 -0.1944
 6024TIP3    H139487   0.741   4.677   5.925 -1.8608  0.4550  0.6630
 6024TIP3    H239488   0.619   4.634   5.846 -1.8880  1.6290  0.0455
 6025TIP3   OH239489   2.629   6.338   5.460 -1.0277  0.1551 -0.0983
 6025TIP3    H139490   2.669   6.270   5.405 -0.2811 -0.9739  1.7259
 6025TIP3    H239491   2.686   6.414   5.450 -2.9091  1.3198 -3.6693
 6026TIP3   OH239492   0.092   5.856  10.613  0.0779 -0.4062 -0.2725
 6026TIP3    H139493   0.006   5.833  10.577 -0.2205  0.3015 -0.0297
 6026TIP3    H239494   0.130   5.773  10.640  0.5614 -1.0595 -2.7356
 6027TIP3   OH239495   1.380   1.249   2.631  0.7605 -0.1902 -0.2367
 6027TIP3    H139496   1.388   1.326   2.687 -0.5790  0.8460 -1.3906
 6027TIP3    H239497   1.328   1.188   2.683  2.2817 -0.5681  0.8963
 6028TIP3   OH239498   2.001   1.563  16.018 -0.0300 -0.2219  0.2650
 6028TIP3    H139499   1.966   1.536  15.933  0.0246  0.1410  0.1254
 6028TIP3    H239500   2.092   1.533  16.018  0.6070  1.5874 -0.6582
 6029TIP3   OH239501   1.732   4.687   0.633 -0.1761  0.1537  0.5508
 6029TIP3    H139502   1.807   4.669   0.576  0.0929 -0.8258  1.1995
 6029TIP3    H239503   1.765   4.672   0.722 -1.2531 -0.6979  0.8221
 6030TIP3   OH239504   5.406   2.281  13.632 -0.2024 -0.3511 -0.0507
 6030TIP3    H139505   5.469   2.211  13.615 -0.2023 -0.2178 -0.5862
 6030TIP3    H239506   5.452   2.341  13.691 -0.0377 -0.5583  0.0331
 6031TIP3   OH239507   6.502   2.020   6.185 -0.4114  0.3511  0.8537
 6031TIP3    H139508   6.555   2.081   6.237 -0.7121 -0.3268  1.9827
 6031TIP3    H239509   6.415   2.025   6.223 -0.4393 -0.7803  0.9784
 6032TIP3   OH239510   6.716   4.270  16.881 -0.0781  0.0887 -0.2503
 6032TIP3    H139511   6.707   4.364  16.893  1.1906  0.1681  0.2919
 6032TIP3    H239512   6.712   4.234  16.970  2.6116 -0.0162 -0.0838
 6033TIP3   OH239513   0.763   1.179   0.195  0.5477 -0.1821 -0.7820
 6033TIP3    H139514   0.734   1.120   0.264  1.7390 -0.3806 -0.4374
 6033TIP3    H239515   0.847   1.213   0.225 -0.9678  3.3169  0.0417
 6034TIP3   OH239516   2.197   2.369  16.709  0.0160  0.7066 -0.0984
 6034TIP3    H139517   2.102   2.382  16.715 -0.2443 -1.2696  1.1056
 6034TIP3    H239518   2.213   2.291  16.763  1.9484 -0.6534 -2.4651
 6035TIP3   OH239519   0.588   4.894  16.889 -0.1048 -0.0187 -0.0223
 6035TIP3    H139520   0.501   4.870  16.920  0.6527 -0.1875  2.1397
 6035TIP3    H239521   0.604   4.981  16.925  0.4048  0.2664 -0.9018
 6036TIP3   OH239522   4.975   0.187   6.301  0.2241 -0.2199 -0.8294
 6036TIP3    H139523   4.926   0.164   6.380 -0.0635 -1.1895 -1.2770
 6036TIP3    H239524   5.023   0.267   6.325 -1.8575  1.0022 -0.5239
 6037TIP3   OH239525   3.746   4.595  12.291 -0.4142  0.2013 -0.0196
 6037TIP3    H139526   3.768   4.526  12.354  1.4742  0.2763 -0.5424
 6037TIP3    H239527   3.650   4.598  12.292 -0.5680 -2.2197  0.2461
 6038TIP3   OH239528   0.253   6.732  10.967 -0.1780 -0.1422 -0.4199
 6038TIP3    H139529   0.203   6.697  11.040  1.6821 -1.0619  0.4696
 6038TIP3    H239530   0.329   6.775  11.007 -0.5719  1.9003 -1.6760
 6039TIP3   OH239531   4.188   6.714  11.903 -0.3556 -0.0570  0.2076
 6039TIP3    H139532   4.272   6.672  11.882 -0.4959  0.0115 -0.4863
 6039TIP3    H239533   4.142   6.648  11.955 -0.6209 -0.8242 -0.9810
 6040TIP3   OH239534   6.428   2.730  14.266  0.0878 -0.0926  0.2795
 6040TIP3    H139535   6.420   2.645  14.223  0.0903  0.0938 -0.0933
 6040TIP3    H239536   6.484   2.713  14.342  0.0595 -0.4295  0.2277
 6041TIP3   OH239537   6.215   2.121   5.620  0.0157 -0.6994 -0.1114
 6041TIP3    H139538   6.160   2.043   5.623 -0.4200 -0.3638  1.4249
 6041TIP3    H239539   6.285   2.103   5.682 -0.0636  0.1141  0.2238
 6042TIP3   OH239540   1.538   0.088   0.351  0.7715  0.4655 -0.5246
 6042TIP3    H139541   1.543   0.163   0.410 -1.2193 -0.1775  0.5441
 6042TIP3    H239542   1.581   0.017   0.398 -1.0539 -0.1198  0.3692
 6043TIP3   OH239543   1.715   1.158  16.901 -0.5218  0.3885 -0.3720
 6043TIP3    H139544   1.697   1.214  16.976  0.0946  1.3030 -0.8913
 6043TIP3    H239545   1.634   1.159  16.849 -0.1426  1.7772 -0.9847
 6044TIP3   OH239546   0.165   4.323  11.792 -0.1186  0.1135  0.4605
 6044TIP3    H139547   0.251   4.305  11.831  0.7808 -1.7618 -2.0777
 6044TIP3    H239548   0.123   4.237  11.789 -1.5163  0.7897  0.3797
 6045TIP3   OH239549   4.916   3.516   0.938 -0.6700  0.3973 -0.8485
 6045TIP3    H139550   4.911   3.456   0.864  0.1029  2.3166 -2.5671
 6045TIP3    H239551   5.002   3.499   0.977 -2.0892 -2.4375  1.3815
 6046TIP3   OH239552   0.025   5.705   3.319  0.2927  0.0349  0.4870
 6046TIP3    H139553   0.040   5.790   3.359  1.3273  0.1625 -0.1600
 6046TIP3    H239554   0.108   5.682   3.278 -0.7085 -0.1224 -1.5464
 6047TIP3   OH239555   3.297   0.725   2.017  0.3645  0.2606  0.6553
 6047TIP3    H139556   3.251   0.809   2.011  1.1938  0.6645 -0.5251
 6047TIP3    H239557   3.311   0.699   1.926 -0.3229 -1.4238  0.9994
 6048TIP3   OH239558   2.106   5.442  10.938  0.7267  0.2181  0.4876
 6048TIP3    H139559   2.100   5.371  11.002  1.3981 -1.4110 -1.1589
 6048TIP3    H239560   2.199   5.466  10.937  0.3009  2.2813  2.1282
 6049TIP3   OH239561   6.644   2.169   6.342  0.0064  0.3444  0.2410
 6049TIP3    H139562   6.614   2.099   6.400  1.5065  0.2866  1.0196
 6049TIP3    H239563   6.671   2.239   6.402 -1.1166  1.4655 -0.5123
 6050TIP3   OH239564   3.172   5.563   4.248 -0.3270  0.0906  0.8412
 6050TIP3    H139565   3.162   5.470   4.227  0.2494  0.4543 -1.2740
 6050TIP3    H239566   3.242   5.565   4.313  0.9197 -0.8735 -0.4065
 6051TIP3   OH239567   3.365   2.305  12.278  0.5636 -0.0797 -0.3144
 6051TIP3    H139568   3.299   2.343  12.336  0.1160 -0.0503 -0.8269
 6051TIP3    H239569   3.328   2.220  12.252  1.3526 -0.6744  0.4650
 6052TIP3   OH239570   2.180   5.000   2.241  0.0880  0.2359  0.2635
 6052TIP3    H139571   2.211   4.917   2.275 -1.0708 -0.8505 -1.1673
 6052TIP3    H239572   2.095   5.014   2.284  0.1944  0.5847  0.3648
 6053TIP3   OH239573   2.326   3.259  16.576  0.2058 -0.5980 -0.2474
 6053TIP3    H139574   2.375   3.293  16.651 -0.4817 -0.5424  0.1854
 6053TIP3    H239575   2.246   3.222  16.615  0.4209 -1.7113 -0.8147
 6054TIP3   OH239576   0.035   4.571   6.601  0.2262  0.0019  0.1105
 6054TIP3    H139577   0.113   4.536   6.644  0.6540  0.8516  0.0532
 6054TIP3    H239578   0.008   4.503   6.539  0.2826 -0.7506  0.8883
 6055TIP3   OH239579   1.929   6.757   0.701  0.1540 -0.2362 -0.5002
 6055TIP3    H139580   1.999   6.695   0.684 -0.4517 -1.2001  0.3706
 6055TIP3    H239581   1.967   6.821   0.761  0.0314 -1.3397  0.8004
 6056TIP3   OH239582   0.532   2.689  13.926 -0.1073  0.0976  0.1066
 6056TIP3    H139583   0.614   2.647  13.903 -0.0926  0.9248 -1.4526
 6056TIP3    H239584   0.487   2.625  13.982  0.2156 -1.6938 -1.5871
 6057TIP3   OH239585   0.896   6.627  11.270  0.1607  0.2812 -0.5906
 6057TIP3    H139586   0.828   6.588  11.326  0.8346 -0.8928 -0.5411
 6057TIP3    H239587   0.866   6.610  11.181  0.4156 -0.3072 -0.5689
 6058TIP3   OH239588   4.106   1.970  16.227 -0.1949 -0.6773 -0.0644
 6058TIP3    H139589   4.044   1.932  16.289 -1.3989  0.4524 -0.5367
 6058TIP3    H239590   4.134   1.896  16.173  0.9662 -1.7191  1.8213
 6059TIP3   OH239591   3.818   2.473  17.194  0.1826 -0.2437 -0.2009
 6059TIP3    H139592   3.755   2.481  17.266  1.7801  1.7530  1.0542
 6059TIP3    H239593   3.770   2.503  17.117 -1.1927 -1.2977  0.2009
 6060TIP3   OH239594   6.333   1.580  14.142  0.1156 -0.1320  0.2815
 6060TIP3    H139595   6.297   1.625  14.219 -0.5036  1.7865 -1.0602
 6060TIP3    H239596   6.257   1.563  14.086  0.8301  0.7389 -1.0000
 6061TIP3   OH239597   4.364   6.772  13.795  0.3337 -0.2783  0.6592
 6061TIP3    H139598   4.404   6.689  13.822  0.6713  0.3948  2.3371
 6061TIP3    H239599   4.417   6.839  13.838 -0.1388  0.8060 -0.4081
 6062TIP3   OH239600   0.881   2.993   4.137  0.2651  0.2437  0.0857
 6062TIP3    H139601   0.919   3.076   4.106  0.4818  0.4245  0.8218
 6062TIP3    H239602   0.791   2.994   4.104  0.8163 -0.1077 -1.5338
 6063TIP3   OH239603   4.295   5.320  10.147 -0.2791  0.1419 -0.1129
 6063TIP3    H139604   4.347   5.372  10.086  1.3748 -0.3692  0.7959
 6063TIP3    H239605   4.205   5.331  10.117  0.1098  2.6380 -0.5978
 6064TIP3   OH239606   0.975   1.570   1.354 -0.2315  0.0313 -0.3679
 6064TIP3    H139607   0.880   1.578   1.370 -0.2401  1.4144 -0.9105
 6064TIP3    H239608   0.999   1.655   1.316  0.9161 -0.9231 -1.8423
 6065TIP3   OH239609   4.438   2.541   2.041  0.0913 -0.1575  0.4617
 6065TIP3    H139610   4.450   2.475   2.109  1.1010  1.5021  1.9962
 6065TIP3    H239611   4.456   2.624   2.085 -3.0448  1.3718 -0.8702
 6066TIP3   OH239612   1.608   0.799   1.802 -0.9917  0.1190  0.2532
 6066TIP3    H139613   1.691   0.830   1.767 -0.8125 -0.2220  0.3714
 6066TIP3    H239614   1.628   0.776   1.893 -0.5941 -2.3473 -0.3735
 6067TIP3   OH239615   0.162   5.117   0.992 -0.3204  0.1722 -0.1358
 6067TIP3    H139616   0.181   5.061   0.917 -0.5854 -0.8777  0.5642
 6067TIP3    H239617   0.125   5.197   0.954  0.9991  0.3064 -1.2104
 6068TIP3   OH239618   3.828   2.153  14.284  0.8859  0.3977  0.8740
 6068TIP3    H139619   3.780   2.216  14.337  0.6956  0.2299  0.9004
 6068TIP3    H239620   3.766   2.125  14.217  1.0407  0.4050  0.7273
 6069TIP3   OH239621   1.388   0.303  12.664 -0.4603  0.3265  0.1560
 6069TIP3    H139622   1.294   0.292  12.678 -0.4100 -0.6947 -0.2975
 6069TIP3    H239623   1.425   0.216  12.678  0.4979  0.8463  0.9343
 6070TIP3   OH239624   6.111   0.917   1.523 -0.1619  0.4666  0.4395
 6070TIP3    H139625   6.122   0.883   1.612 -2.0070  2.2857  1.4627
 6070TIP3    H239626   6.160   0.999   1.522 -1.5486  1.3404  0.4093
 6071TIP3   OH239627   6.354   1.677   1.542  0.1560 -0.0627  0.0284
 6071TIP3    H139628   6.421   1.625   1.586  1.8312  1.4542 -0.6130
 6071TIP3    H239629   6.282   1.682   1.605  0.9382 -1.1141  1.0350
 6072TIP3   OH239630   5.006   3.624   4.469  0.1501 -0.1593  0.6746
 6072TIP3    H139631   5.045   3.547   4.511 -0.2918 -0.2634  0.9008
 6072TIP3    H239632   4.957   3.588   4.395 -0.0907 -0.0989  0.8053
 6073TIP3   OH239633   0.742   2.866  13.138 -0.0714 -0.3173 -0.2620
 6073TIP3    H139634   0.682   2.917  13.193  0.6215 -0.4722  0.6401
 6073TIP3    H239635   0.707   2.777  13.139  0.6635 -0.6090  1.0084
 6074TIP3   OH239636   0.454   0.231  11.438  0.1507 -0.5810 -0.2965
 6074TIP3    H139637   0.437   0.196  11.526  0.3055 -1.0952 -0.4677
 6074TIP3    H239638   0.400   0.310  11.433  0.1955 -0.5069  0.2871
 6075TIP3   OH239639   6.545   3.980   1.627 -0.3657 -0.2716  0.0136
 6075TIP3    H139640   6.546   3.956   1.719 -0.2841  1.0406  0.3789
 6075TIP3    H239641   6.457   4.017   1.613  0.3683  1.6941  0.1976
 6076TIP3   OH239642   1.050   6.127  16.342 -0.4532  0.0911  0.0201
 6076TIP3    H139643   1.048   6.217  16.310 -0.0513  0.3438  0.6906
 6076TIP3    H239644   1.073   6.075  16.265 -1.4701  0.4702 -0.5543
 6077TIP3   OH239645   6.504   2.968   1.873 -0.1862 -0.1199  0.1303
 6077TIP3    H139646   6.459   2.954   1.957  0.2178  1.2118  0.5986
 6077TIP3    H239647   6.546   2.884   1.855 -2.7805 -1.4274 -0.3207
 6078TIP3   OH239648   4.126   4.780  11.420 -0.0738 -0.4711  0.4447
 6078TIP3    H139649   4.090   4.696  11.391 -0.8795  0.2500 -0.7077
 6078TIP3    H239650   4.050   4.832  11.444  0.4157 -0.0138  1.0504
 6079TIP3   OH239651   6.748   3.475   1.573  0.1501  0.0223 -0.5947
 6079TIP3    H139652   6.800   3.402   1.606  0.0553 -0.3930 -1.3510
 6079TIP3    H239653   6.770   3.480   1.480  0.9195  1.6028 -0.3614
 6080TIP3   OH239654   5.330   2.398  16.899  0.3576 -0.3417 -0.5622
 6080TIP3    H139655   5.357   2.313  16.935 -1.6342 -0.4408  0.9058
 6080TIP3    H239656   5.388   2.461  16.940  0.6180 -0.8385 -0.1537
 6081TIP3   OH239657   6.050   5.716   1.421  0.0889 -0.1120  0.9718
 6081TIP3    H139658   6.017   5.725   1.332  1.9914 -0.2913  0.1959
 6081TIP3    H239659   6.013   5.790   1.469 -0.0422  0.6426 -0.2664
 6082TIP3   OH239660   5.739   5.072  16.223  0.4101 -0.1888 -0.0289
 6082TIP3    H139661   5.823   5.073  16.178 -0.1418  1.2053 -1.0928
 6082TIP3    H239662   5.744   5.144  16.286 -0.9792  1.9538 -2.1632
 6083TIP3   OH239663   5.433   0.573   5.776  0.0867 -0.4753 -0.2810
 6083TIP3    H139664   5.341   0.569   5.803  0.1773 -0.6179  0.0073
 6083TIP3    H239665   5.456   0.483   5.755  0.4164 -0.5856  0.5101
 6084TIP3   OH239666   2.275   3.660   2.906 -0.4560  0.5304  0.4935
 6084TIP3    H139667   2.270   3.584   2.848 -0.0565  1.0364 -0.2172
 6084TIP3    H239668   2.210   3.643   2.974 -0.4169 -0.4115  0.3007
 6085TIP3   OH239669   1.566   4.431  11.819 -0.2059  0.4763 -0.2888
 6085TIP3    H139670   1.628   4.463  11.884 -0.3760 -0.1749  0.2034
 6085TIP3    H239671   1.580   4.488  11.743  0.3180  0.9477  0.1482
 6086TIP3   OH239672   6.487   0.886   3.212 -0.2031 -0.3970  0.3140
 6086TIP3    H139673   6.484   0.935   3.129 -0.6826 -1.4377 -0.2943
 6086TIP3    H239674   6.484   0.794   3.186  0.6019 -0.7673  1.4476
 6087TIP3   OH239675   5.630   4.839   2.366 -0.2034 -0.2084  0.4667
 6087TIP3    H139676   5.597   4.799   2.286 -0.7703 -0.8504  1.0098
 6087TIP3    H239677   5.613   4.774   2.435  0.5773  0.1893  1.0532
 6088TIP3   OH239678   4.425   0.768   2.576 -0.2845  0.1712 -0.1827
 6088TIP3    H139679   4.350   0.789   2.631  0.5165 -1.6603  1.7198
 6088TIP3    H239680   4.489   0.836   2.596 -0.4034  0.1336  0.3359
 6089TIP3   OH239681   3.450   0.553   0.378  0.4012  0.0148 -0.6687
 6089TIP3    H139682   3.539   0.587   0.386  0.2387  0.3622 -0.2954
 6089TIP3    H239683   3.454   0.465   0.416  0.4995  0.1769 -0.3071
 6090TIP3   OH239684   1.870   5.100   3.885 -0.7976  0.0139 -0.5479
 6090TIP3    H139685   1.900   5.115   3.795 -2.2728 -1.5302 -1.3721
 6090TIP3    H239686   1.778   5.076   3.875 -0.5456 -1.9663  1.1932
 6091TIP3   OH239687   5.285   4.701  12.495 -0.0209 -0.4465  0.9204
 6091TIP3    H139688   5.212   4.733  12.442  1.4460 -1.5558 -1.9970
 6091TIP3    H239689   5.332   4.781  12.522  0.3170  0.1440 -1.2591
 6092TIP3   OH239690   3.786   4.570  11.583 -0.1982 -0.0318 -0.0123
 6092TIP3    H139691   3.728   4.496  11.602 -1.7782  1.1055 -0.2336
 6092TIP3    H239692   3.746   4.612  11.506  2.8195 -1.1778 -2.4272
 6093TIP3   OH239693   4.275   6.692   4.378  0.4722 -0.3308  0.6950
 6093TIP3    H139694   4.274   6.614   4.322  2.3436  0.8561 -1.1671
 6093TIP3    H239695   4.355   6.682   4.430  0.8875  0.4395  0.2298
 6094TIP3   OH239696   4.809   5.648  15.791 -0.0430 -0.3048 -0.6425
 6094TIP3    H139697   4.878   5.706  15.824 -0.6806 -0.8703  1.9383
 6094TIP3    H239698   4.731   5.703  15.788  0.4112  0.3761 -3.7064
 6095TIP3   OH239699   1.154   2.485  15.392  0.4261  0.2531  0.1815
 6095TIP3    H139700   1.116   2.570  15.370 -0.0007 -0.0724 -0.3568
 6095TIP3    H239701   1.079   2.431  15.417  0.8110  0.3635  1.6833
 6096TIP3   OH239702   0.568   2.796   1.938  0.1201  0.2565  0.4282
 6096TIP3    H139703   0.624   2.752   1.874 -1.1193 -0.7725  0.0258
 6096TIP3    H239704   0.600   2.764   2.023 -0.2429 -0.8246  0.1742
 6097TIP3   OH239705   3.911   1.093  15.930  0.4745 -0.2132  0.1291
 6097TIP3    H139706   3.919   1.081  15.835  1.7512  0.6929  0.0956
 6097TIP3    H239707   3.994   1.134  15.956 -0.7627  1.7103  1.2807
 6098TIP3   OH239708   6.301   5.713   6.245 -0.2492  0.7031 -0.8637
 6098TIP3    H139709   6.340   5.674   6.323  1.9929  2.3526 -1.0747
 6098TIP3    H239710   6.297   5.641   6.181 -1.5282 -0.5057  0.5014
 6099TIP3   OH239711   4.227   6.488   5.966  0.2185 -0.4891  0.2701
 6099TIP3    H139712   4.253   6.563   6.020  0.5695 -0.1113 -0.4126
 6099TIP3    H239713   4.250   6.411   6.019 -0.6905 -0.1268  1.2339
 6100TIP3   OH239714   4.574   2.009   6.070  0.0466  0.0021 -0.3417
 6100TIP3    H139715   4.513   2.020   6.143 -0.9099  0.1306 -1.1381
 6100TIP3    H239716   4.630   1.937   6.096 -0.9106 -0.5966  0.1141
 6101TIP3   OH239717   5.449   5.489   4.034  0.2083 -0.3649 -0.8291
 6101TIP3    H139718   5.522   5.431   4.016  1.4942  0.7209  0.5959
 6101TIP3    H239719   5.377   5.431   4.058  0.9718 -1.4154 -1.0156
 6102TIP3   OH239720   0.630   6.420   3.677  0.0378  0.4156 -0.6420
 6102TIP3    H139721   0.683   6.429   3.598  0.1621  2.0432 -0.3945
 6102TIP3    H239722   0.591   6.506   3.690 -1.5535 -0.3618 -0.0129
 6103TIP3   OH239723   4.258   1.260  10.917  0.1157 -0.3182  0.6173
 6103TIP3    H139724   4.346   1.223  10.906  1.9846  3.9489 -1.2450
 6103TIP3    H239725   4.208   1.225  10.843  0.6390 -1.7861  0.9311
 6104TIP3   OH239726   0.934   0.091  13.577 -0.2041 -0.1415 -0.4128
 6104TIP3    H139727   1.003   0.077  13.512  0.1402 -0.9144  0.0961
 6104TIP3    H239728   0.854   0.058  13.536 -0.4625  1.4897 -1.3201
 6105TIP3   OH239729   6.686   3.720   4.311  0.5515  0.2045  0.5194
 6105TIP3    H139730   6.638   3.644   4.277 -3.0946  0.2969  4.5948
 6105TIP3    H239731   6.636   3.795   4.278 -1.2147  0.3572  3.1762
 6106TIP3   OH239732   1.708   6.048   5.779  0.3210  0.2699 -0.3271
 6106TIP3    H139733   1.788   6.052   5.830  0.7149  0.7766 -0.9667
 6106TIP3    H239734   1.648   6.108   5.823 -0.2188 -1.1847  0.9873
 6107TIP3   OH239735   4.053   6.540  15.395  0.4534 -0.1861  0.3469
 6107TIP3    H139736   3.965   6.572  15.417 -0.6729 -1.2111 -2.2510
 6107TIP3    H239737   4.045   6.507  15.305  3.3869 -0.8263  0.2131
 6108TIP3   OH239738   0.968   1.605  16.366  0.5851  0.2486 -0.9590
 6108TIP3    H139739   1.056   1.592  16.331  0.5266 -0.7417 -0.7512
 6108TIP3    H239740   0.920   1.526  16.342 -0.4089  0.9974 -1.5210
 6109TIP3   OH239741   1.490   1.977   3.160 -0.6691  0.9355 -0.4711
 6109TIP3    H139742   1.531   2.008   3.079  1.5620  0.9257  0.5849
 6109TIP3    H239743   1.515   1.885   3.166 -1.2425  0.8039 -0.0119
 6110TIP3   OH239744   5.174   3.114   5.872 -0.4370 -0.2889 -0.1195
 6110TIP3    H139745   5.092   3.079   5.908 -0.7759  0.7681  0.1623
 6110TIP3    H239746   5.242   3.067   5.919 -0.8614 -1.6052 -0.7671
 6111TIP3   OH239747   2.489   2.754   3.844  0.3014  0.1391  0.2095
 6111TIP3    H139748   2.397   2.753   3.869  0.0455 -0.5820 -0.6873
 6111TIP3    H239749   2.532   2.697   3.907 -0.1011 -0.5728 -0.1422
 6112TIP3   OH239750   2.644   6.223   4.148  0.0949  0.0842  0.1158
 6112TIP3    H139751   2.593   6.236   4.069  0.0487 -1.3264 -0.0996
 6112TIP3    H239752   2.628   6.132   4.173  1.9183 -0.1780  0.4460
 6113TIP3   OH239753   3.698   4.406  14.630 -0.5106 -0.2100  0.3326
 6113TIP3    H139754   3.657   4.398  14.716  1.6679 -0.2674  1.4419
 6113TIP3    H239755   3.686   4.321  14.589  1.4452 -1.4003  2.0697
 6114TIP3   OH239756   3.907   1.728   2.380  0.0806  0.1111  0.0058
 6114TIP3    H139757   3.968   1.795   2.350  2.7245 -2.7257 -1.5036
 6114TIP3    H239758   3.946   1.694   2.461 -1.3043  0.4140  0.8389
 6115TIP3   OH239759   5.226   6.538   0.362 -0.2621 -0.2474 -0.0667
 6115TIP3    H139760   5.173   6.598   0.310 -0.2722  0.2038  0.4532
 6115TIP3    H239761   5.288   6.500   0.299  0.0549  0.6585 -0.3263
 6116TIP3   OH239762   0.927   6.117   0.795 -0.0152 -0.6015  0.6724
 6116TIP3    H139763   0.897   6.173   0.723  2.7809 -0.2816 -0.4003
 6116TIP3    H239764   0.980   6.050   0.752  0.7176 -1.1522  2.3464
 6117TIP3   OH239765   3.416   0.871   4.613  0.3342 -0.2705 -0.6199
 6117TIP3    H139766   3.341   0.861   4.671  0.7906 -0.4398 -0.0421
 6117TIP3    H239767   3.456   0.784   4.610  0.6091 -0.1393 -0.7743
 6118TIP3   OH239768   6.786   1.834   5.074  0.1094 -0.2837  0.4270
 6118TIP3    H139769   6.843   1.810   5.147 -0.2061  0.5891  0.9802
 6118TIP3    H239770   6.788   1.930   5.074  0.8015 -0.2724 -1.2643
 6119TIP3   OH239771   2.477   3.166  11.585  0.1883 -0.3723 -0.3360
 6119TIP3    H139772   2.553   3.216  11.616  1.2642 -1.9465 -0.3316
 6119TIP3    H239773   2.509   3.118  11.509 -1.3012  0.2547 -1.4004
 6120TIP3   OH239774   2.045   2.423  14.618 -0.1763  0.3780 -0.0107
 6120TIP3    H139775   2.077   2.391  14.534 -0.4667 -0.3810  0.1596
 6120TIP3    H239776   2.110   2.395  14.681 -1.2287 -1.3369  0.3623
 6121TIP3   OH239777   6.675   4.666   0.438 -0.3233 -0.7884 -0.7813
 6121TIP3    H139778   6.642   4.618   0.514  0.1754 -0.5620 -0.4183
 6121TIP3    H239779   6.604   4.660   0.373 -0.9810 -0.5136 -0.1024
 6122TIP3   OH239780   3.677   1.384  16.380 -0.0130 -0.0574 -0.3406
 6122TIP3    H139781   3.725   1.325  16.438 -1.1390  0.4945  1.2371
 6122TIP3    H239782   3.667   1.335  16.298  1.5654 -0.8918 -0.0740
 6123TIP3   OH239783   5.863   2.065   0.799 -0.2340  0.1028  0.5252
 6123TIP3    H139784   5.876   2.079   0.705 -0.4182 -0.3342  0.4301
 6123TIP3    H239785   5.938   2.011   0.825 -0.7693 -0.7159  0.3960
 6124TIP3   OH239786   4.643   4.107  16.774  0.3479 -0.4806 -0.3482
 6124TIP3    H139787   4.566   4.120  16.830  0.0753  0.9529 -0.9986
 6124TIP3    H239788   4.667   4.016  16.787 -1.1726 -0.8323  0.2528
 6125TIP3   OH239789   3.782   2.537   0.852 -0.0869  0.0018  0.4359
 6125TIP3    H139790   3.748   2.563   0.937  0.8660 -2.3026  1.5974
 6125TIP3    H239791   3.744   2.450   0.836 -1.5234  0.9886 -2.2850
 6126TIP3   OH239792   6.591   6.321  14.578 -0.3968  0.2143  0.4432
 6126TIP3    H139793   6.513   6.276  14.545  1.2270 -1.1489 -1.8459
 6126TIP3    H239794   6.648   6.251  14.609  0.1323  1.1584  1.6784
 6127TIP3   OH239795   4.144   3.609   2.137 -0.0646  0.0913 -0.2845
 6127TIP3    H139796   4.193   3.688   2.117 -0.7113 -0.0771 -2.9628
 6127TIP3    H239797   4.197   3.538   2.102 -0.2968 -0.5257  0.5692
 6128TIP3   OH239798   1.195   5.986   5.575  0.6168  0.2310 -0.1134
 6128TIP3    H139799   1.261   5.943   5.519  0.2905  0.1380 -0.4307
 6128TIP3    H239800   1.199   5.938   5.657  1.4390  0.6703  0.1176
 6129TIP3   OH239801   4.778   4.808   5.204 -0.6727 -0.8882 -0.5379
 6129TIP3    H139802   4.727   4.867   5.259 -0.6451  0.0889 -1.5304
 6129TIP3    H239803   4.864   4.849   5.197  0.1408 -2.2568  0.6856
 6130TIP3   OH239804   1.084   2.319  15.745 -0.2521  0.0477  0.1583
 6130TIP3    H139805   1.024   2.266  15.797 -1.2653  0.4877 -0.5331
 6130TIP3    H239806   1.164   2.324  15.798 -0.6703 -0.8888  0.9032
 6131TIP3   OH239807   3.918   1.797   1.790 -0.2396 -0.2734  0.1688
 6131TIP3    H139808   3.981   1.851   1.743  1.6928 -3.0812 -0.7054
 6131TIP3    H239809   3.940   1.809   1.882  1.8059 -1.3807 -0.1315
 6132TIP3   OH239810   5.521   2.217  11.072  0.1808 -0.5333  0.3793
 6132TIP3    H139811   5.470   2.245  11.147 -0.3716  0.8752 -0.4950
 6132TIP3    H239812   5.522   2.121  11.079 -0.5999 -0.4731  1.6794
 6133TIP3   OH239813   5.686   0.492  11.926 -0.3147 -0.1992  0.7227
 6133TIP3    H139814   5.714   0.496  12.018 -0.1345  0.1955  0.6534
 6133TIP3    H239815   5.654   0.403  11.915  0.1955 -0.4276  1.0180
 6134TIP3   OH239816   5.131   5.922  10.933 -0.0567  0.0613  0.2815
 6134TIP3    H139817   5.143   5.830  10.957  0.5633  0.3077  0.9553
 6134TIP3    H239818   5.069   5.956  10.998  2.7812  1.1245  2.6811
 6135TIP3   OH239819   6.280   5.102  16.441  0.2230  0.2441  0.0018
 6135TIP3    H139820   6.358   5.124  16.390  0.5532  0.8564  0.7447
 6135TIP3    H239821   6.311   5.040  16.507  0.0874  0.4847  0.2957
 6136TIP3   OH239822   1.091   2.947   6.424 -0.1565  0.3993  0.1580
 6136TIP3    H139823   1.041   2.944   6.342  1.9552  1.4274 -1.2531
 6136TIP3    H239824   1.069   3.032   6.463  0.1683  0.6665 -0.2410
 6137TIP3   OH239825   3.827   6.597   5.539 -0.2969  0.1976  0.4592
 6137TIP3    H139826   3.778   6.567   5.615  0.3435 -2.3434 -0.0360
 6137TIP3    H239827   3.780   6.560   5.464  0.7320  0.1723 -0.1930
 6138TIP3   OH239828   3.581   2.916   2.828  0.3872  0.8932 -0.1642
 6138TIP3    H139829   3.551   2.967   2.753 -0.3670  1.0277  0.2163
 6138TIP3    H239830   3.504   2.910   2.885  1.5406  2.8445  1.7573
 6139TIP3   OH239831   3.183   0.436  11.451 -0.8234  0.6133 -0.2721
 6139TIP3    H139832   3.153   0.394  11.371 -1.3745 -0.8913  0.6802
 6139TIP3    H239833   3.244   0.374  11.490 -1.7572  0.6011  1.2382
 6140TIP3   OH239834   0.244   3.089  14.021  0.3589 -0.3943  0.1293
 6140TIP3    H139835   0.212   3.173  14.054  0.8100 -0.5481  0.9837
 6140TIP3    H239836   0.318   3.111  13.964 -1.3205 -0.0171 -2.0363
 6141TIP3   OH239837   1.358   1.287  16.597 -0.0790  0.4089  0.5146
 6141TIP3    H139838   1.425   1.329  16.543  0.0186 -0.5839 -0.1730
 6141TIP3    H239839   1.283   1.277  16.538  0.1732 -1.0702  0.4022
 6142TIP3   OH239840   1.594   6.720   5.737  0.1117  0.8641  0.4887
 6142TIP3    H139841   1.570   6.789   5.675 -0.6385  0.1546 -0.0294
 6142TIP3    H239842   1.679   6.748   5.773  0.0058  1.8476 -0.0049
 6143TIP3   OH239843   0.128   6.669  16.954  0.0031  0.0656 -0.6831
 6143TIP3    H139844   0.096   6.634  16.870 -2.2236 -1.9274  0.8477
 6143TIP3    H239845   0.050   6.672  17.010  1.6657 -0.2824  1.8155
 6144TIP3   OH239846   4.048   6.118  13.428  0.4594  0.3306 -0.7001
 6144TIP3    H139847   3.994   6.168  13.489  0.2306  0.3264 -0.9003
 6144TIP3    H239848   4.094   6.185  13.377  0.5025  0.3350 -0.6554
 6145TIP3   OH239849   4.514   1.682   2.975 -0.3045  0.5542 -0.4391
 6145TIP3    H139850   4.448   1.617   3.000  0.4575 -0.0397  0.0454
 6145TIP3    H239851   4.582   1.631   2.931  0.2188  1.0541 -0.2102
 6146TIP3   OH239852   0.602   2.113   5.873 -0.2945 -0.1611  0.0673
 6146TIP3    H139853   0.540   2.049   5.837 -0.0347 -0.6317  0.4515
 6146TIP3    H239854   0.556   2.153   5.946 -0.0528 -0.6937  0.5136
 6147TIP3   OH239855   6.437   0.782  15.557 -0.7767  0.0609  0.6023
 6147TIP3    H139856   6.524   0.785  15.517 -0.6870  0.0597  0.7982
 6147TIP3    H239857   6.430   0.694  15.593 -0.9899 -0.0494  0.2944
 6148TIP3   OH239858   0.818   6.670   0.761 -0.5148  0.8344  0.1038
 6148TIP3    H139859   0.724   6.661   0.776 -0.3578  1.6583  1.8072
 6148TIP3    H239860   0.825   6.687   0.667 -1.9296 -0.6876 -0.3346
 6149TIP3   OH239861   2.932   5.712  13.145  0.2178 -0.1269  0.1577
 6149TIP3    H139862   2.943   5.800  13.181 -1.5957 -0.0182  0.5440
 6149TIP3    H239863   2.848   5.716  13.099  0.0932 -1.6779  0.2184
 6150TIP3   OH239864   1.683   3.688   3.596  0.3654  0.0918 -0.4042
 6150TIP3    H139865   1.604   3.652   3.636  0.0419  1.2780  0.0697
 6150TIP3    H239866   1.652   3.748   3.529  0.8366  1.3019  0.4402
 6151TIP3   OH239867   1.264   4.303   1.097 -0.0204  0.4768 -0.5249
 6151TIP3    H139868   1.194   4.259   1.145  2.3414 -1.6374  1.2950
 6151TIP3    H239869   1.273   4.253   1.016  0.0475  0.0874 -0.2800
 6152TIP3   OH239870   1.644   4.355   0.871 -0.5201  0.1089 -0.1151
 6152TIP3    H139871   1.630   4.312   0.787  1.2268  0.5597 -0.6617
 6152TIP3    H239872   1.696   4.293   0.921 -0.0590  0.5683 -0.0171
 6153TIP3   OH239873   2.691   0.238  12.646  0.0489 -0.5095 -0.6014
 6153TIP3    H139874   2.772   0.190  12.663  0.4279  0.1630 -0.4881
 6153TIP3    H239875   2.623   0.170  12.642  0.7141 -1.1511 -1.4202
 6154TIP3   OH239876   4.815   0.447  13.251  0.0317  0.1482  0.0555
 6154TIP3    H139877   4.791   0.391  13.178  0.5478  1.0473 -0.8263
 6154TIP3    H239878   4.737   0.448  13.307 -1.5447  1.8096 -1.9855
 6155TIP3   OH239879   3.634   3.976  15.267 -0.7949 -0.1471  0.2144
 6155TIP3    H139880   3.563   4.002  15.326 -0.6219  2.0906 -0.4952
 6155TIP3    H239881   3.713   4.012  15.307 -0.6771  1.4733 -1.3334
 6156TIP3   OH239882   1.364   4.636  11.352 -0.5355 -0.7035 -0.4912
 6156TIP3    H139883   1.339   4.727  11.368  0.8276 -0.2750 -0.6167
 6156TIP3    H239884   1.396   4.635  11.262  0.7222 -0.9933 -0.0659
 6157TIP3   OH239885   0.821   3.586  12.851 -0.2246  0.3861  0.0086
 6157TIP3    H139886   0.837   3.668  12.804 -0.4629  0.4676  0.0667
 6157TIP3    H239887   0.746   3.547  12.806  1.9081 -1.4770 -2.2129
 6158TIP3   OH239888   1.664   5.011  13.106 -0.0330  0.4752  0.1312
 6158TIP3    H139889   1.575   4.980  13.090  1.0392 -2.7428 -0.2912
 6158TIP3    H239890   1.661   5.049  13.194 -2.1839  2.2616 -0.6288
 6159TIP3   OH239891   2.942   2.535   3.887  0.1293  0.1138  0.1274
 6159TIP3    H139892   2.876   2.481   3.844  1.7002 -1.8012 -0.0626
 6159TIP3    H239893   2.962   2.604   3.824 -0.2058 -0.5211 -0.6883
 6160TIP3   OH239894   2.951   6.323   2.590 -0.5263  0.5447  0.3386
 6160TIP3    H139895   2.917   6.412   2.586 -0.9908  0.4192  1.1920
 6160TIP3    H239896   2.959   6.304   2.683 -0.7227 -0.4121  0.1799
 6161TIP3   OH239897   5.840   6.117   6.573 -0.2273  0.2232 -0.1960
 6161TIP3    H139898   5.817   6.060   6.499  0.6875 -0.3834 -0.0176
 6161TIP3    H239899   5.763   6.173   6.584  0.1894  1.4452 -2.6555
 6162TIP3   OH239900   2.846   3.939  10.621 -0.3613  0.0258 -0.6172
 6162TIP3    H139901   2.817   3.874  10.685  0.7293  0.2896  0.1634
 6162TIP3    H239902   2.773   4.000  10.613  0.1720  1.0790  1.8362
 6163TIP3   OH239903   2.539   4.727  12.604  0.6377 -0.3775  0.4897
 6163TIP3    H139904   2.554   4.649  12.658  1.1655 -2.8599 -2.8916
 6163TIP3    H239905   2.529   4.693  12.515  1.9234  3.5146 -1.3792
 6164TIP3   OH239906   6.717   5.492  12.718 -0.3305  0.3169  0.4554
 6164TIP3    H139907   6.714   5.532  12.631 -1.7126 -1.2008 -0.2549
 6164TIP3    H239908   6.679   5.558  12.776 -1.5290  0.5015 -0.4983
 6165TIP3   OH239909   5.467   6.543  12.228  0.5784 -0.1007  0.6529
 6165TIP3    H139910   5.401   6.534  12.297  0.8109  0.3270  0.9309
 6165TIP3    H239911   5.551   6.532  12.272  0.7439  0.5425  0.5038
 6166TIP3   OH239912   0.364   1.778  13.490 -0.6790  0.9324 -0.0569
 6166TIP3    H139913   0.310   1.711  13.534  0.0249  2.3608  3.2410
 6166TIP3    H239914   0.304   1.852  13.478 -0.4783  1.0704 -0.1982
 6167TIP3   OH239915   1.904   2.875  11.830 -0.4468  0.2876  0.3230
 6167TIP3    H139916   1.863   2.820  11.896  0.5350 -0.6030  0.1987
 6167TIP3    H239917   1.949   2.814  11.772  1.7712  1.2719  0.9258
 6168TIP3   OH239918   2.160   4.424  13.513 -0.4995 -0.5065 -0.6041
 6168TIP3    H139919   2.120   4.407  13.428  1.1034 -2.2742 -1.0836
 6168TIP3    H239920   2.113   4.366  13.573 -0.2172 -0.8674 -0.7247
 6169TIP3   OH239921   0.293   5.445  16.820 -0.5268 -0.8151  0.0497
 6169TIP3    H139922   0.231   5.398  16.764 -1.7684  0.7028  0.0893
 6169TIP3    H239923   0.341   5.502  16.759  1.2022 -2.3017 -0.0481
 6170TIP3   OH239924   0.930   3.119   4.844  0.4132 -0.6948 -0.1912
 6170TIP3    H139925   0.873   3.092   4.772  1.7413 -2.4694 -0.6479
 6170TIP3    H239926   0.973   3.199   4.813 -0.4531 -0.3735 -0.5774
 6171TIP3   OH239927   1.138   5.320   2.549 -0.6618 -0.8831 -0.3296
 6171TIP3    H139928   1.169   5.311   2.639 -0.1156  2.5007 -0.0406
 6171TIP3    H239929   1.213   5.296   2.495  0.5096  1.1340  0.2764
 6172TIP3   OH239930   2.000   3.837  13.098 -0.1663  0.2721  0.7013
 6172TIP3    H139931   2.023   3.927  13.073 -0.3267  1.4202  4.1413
 6172TIP3    H239932   2.082   3.788  13.089  0.2922  1.0992  0.2100
 6173TIP3   OH239933   0.344   0.314  12.709 -0.0130  0.0329  0.2788
 6173TIP3    H139934   0.295   0.334  12.629  1.2824 -1.5702 -0.9899
 6173TIP3    H239935   0.411   0.383  12.713  0.4501 -0.3498 -0.5236
 6174TIP3   OH239936   3.669   1.253   3.693  0.5163  0.2413  0.4807
 6174TIP3    H139937   3.599   1.188   3.682 -0.2012  1.1026 -0.2141
 6174TIP3    H239938   3.740   1.204   3.735 -0.5870 -0.5943  1.4674
 6175TIP3   OH239939   2.531   3.130   2.489 -0.5011 -0.1549  0.1924
 6175TIP3    H139940   2.511   3.120   2.582 -0.9557 -1.8406 -0.0404
 6175TIP3    H239941   2.447   3.151   2.448 -0.7200 -1.4251 -0.0604
 6176TIP3   OH239942   1.177   3.252   2.018 -0.0614 -0.1575 -0.0380
 6176TIP3    H139943   1.153   3.278   1.929  0.0575  1.9903  0.5188
 6176TIP3    H239944   1.104   3.199   2.048 -1.0933  0.8626 -0.6796
 6177TIP3   OH239945   6.379   0.246  12.781  0.0443  0.4536  0.0927
 6177TIP3    H139946   6.296   0.265  12.825 -0.3053 -0.0421 -0.3442
 6177TIP3    H239947   6.433   0.205  12.849  0.0036  0.9384  0.4260
 6178TIP3   OH239948   2.510   3.523  14.107 -0.2996  0.7503 -0.3303
 6178TIP3    H139949   2.447   3.594  14.093  1.0158  1.6621 -2.1136
 6178TIP3    H239950   2.495   3.463  14.034  1.1659  1.2268 -1.0559
 6179TIP3   OH239951   4.205   5.809   5.263 -0.4776 -0.5668 -0.2031
 6179TIP3    H139952   4.197   5.856   5.181  0.4496 -0.0147  0.0009
 6179TIP3    H239953   4.131   5.749   5.265 -1.7847  0.9868 -0.4002
 6180TIP3   OH239954   2.877   0.747  15.287  0.3327 -0.7067 -0.5091
 6180TIP3    H139955   2.784   0.731  15.302  0.4412 -0.3980  0.5869
 6180TIP3    H239956   2.919   0.663  15.303  0.2954 -0.7208 -0.4841
 6181TIP3   OH239957   2.027   1.337  11.592 -0.3902  0.2513 -0.3111
 6181TIP3    H139958   1.956   1.284  11.628 -0.3967  0.4882  0.0350
 6181TIP3    H239959   2.103   1.314  11.645 -0.7053  1.6310  0.8133
 6182TIP3   OH239960   0.966   4.901  16.863 -0.5466 -0.6768 -0.8963
 6182TIP3    H139961   1.015   4.906  16.945 -0.4959  4.0087 -0.9592
 6182TIP3    H239962   1.030   4.871  16.798  1.0013  0.9019 -0.1674
 6183TIP3   OH239963   3.337   1.824   2.281 -0.5743 -0.2400  0.0520
 6183TIP3    H139964   3.287   1.899   2.249 -2.8851 -1.9390 -0.5334
 6183TIP3    H239965   3.405   1.811   2.215 -0.8067  0.6912 -0.3882
 6184TIP3   OH239966   2.760   6.679   4.816  0.3085 -0.0836 -0.2433
 6184TIP3    H139967   2.760   6.651   4.907 -0.1963 -1.6356 -0.6918
 6184TIP3    H239968   2.668   6.679   4.791  0.2969  1.8815 -0.3306
 6185TIP3   OH239969   4.649   5.030   4.374 -0.5514 -0.2428 -0.3537
 6185TIP3    H139970   4.689   5.066   4.295  1.4927  0.1890  0.8063
 6185TIP3    H239971   4.614   5.107   4.420 -1.1243 -0.4131 -0.4979
 6186TIP3   OH239972   1.743   0.049  12.103 -0.6840  0.1523  0.1790
 6186TIP3    H139973   1.832   0.019  12.085  0.0464  0.7568  2.3603
 6186TIP3    H239974   1.695  -0.030  12.128  0.8651  0.2998  4.5569
 6187TIP3   OH239975   1.009   5.927   2.427  0.1775 -0.1010 -0.2875
 6187TIP3    H139976   1.057   5.873   2.490 -0.6032  0.9779  1.3282
 6187TIP3    H239977   1.072   5.946   2.358  1.1436 -1.1737  0.2592
 6188TIP3   OH239978   3.803   1.728  13.028 -0.1724 -0.2080  0.7344
 6188TIP3    H139979   3.730   1.690  13.078 -0.3917  0.2492  0.7642
 6188TIP3    H239980   3.880   1.709  13.081 -0.3095 -0.3950  0.8710
 6189TIP3   OH239981   4.161   0.415  15.748 -0.0800  0.0841  0.3155
 6189TIP3    H139982   4.197   0.439  15.833  0.6118  0.1605  0.0089
 6189TIP3    H239983   4.219   0.458  15.684 -1.4143  1.1891 -0.1896
 6190TIP3   OH239984   5.125   0.836   4.675  0.7271 -0.6715  0.3840
 6190TIP3    H139985   5.034   0.821   4.703  1.0715 -1.5230  1.0736
 6190TIP3    H239986   5.155   0.910   4.729 -0.1174  0.8710 -1.1447
 6191TIP3   OH239987   1.217   0.470  13.897 -0.3145 -0.2785  0.5402
 6191TIP3    H139988   1.300   0.427  13.919 -0.0542 -0.2368 -0.3278
 6191TIP3    H239989   1.241   0.559  13.873 -0.7854  0.1799  1.6797
 6192TIP3   OH239990   6.510   6.670   4.868  0.2461 -0.0130  0.5276
 6192TIP3    H139991   6.521   6.728   4.943  0.1237  0.2647  0.3315
 6192TIP3    H239992   6.570   6.597   4.886  0.5920  0.2960  0.6555
 6193TIP3   OH239993   4.441   3.887  12.318 -0.4538 -0.3360 -0.5064
 6193TIP3    H139994   4.514   3.930  12.273 -0.8211  0.4872 -0.3196
 6193TIP3    H239995   4.464   3.892  12.411 -0.8943  0.1926 -0.4265
 6194TIP3   OH239996   5.302   0.961   1.205 -0.3940  0.0177 -0.2215
 6194TIP3    H139997   5.345   0.898   1.147 -0.6127 -0.5054  0.1825
 6194TIP3    H239998   5.371   1.023   1.228 -0.6797  1.3168 -2.4766
 6195TIP3   OH239999   2.559   3.231   4.642 -0.3796  0.3261 -1.0331
 6195TIP3    H140000   2.464   3.226   4.655 -0.0776 -0.5886  1.2198
 6195TIP3    H240001   2.591   3.279   4.718  0.7634  3.2081 -3.1526
 6196TIP3   OH240002   5.249   6.192   4.902 -0.1764 -0.1393  0.7850
 6196TIP3    H140003   5.301   6.116   4.928 -0.0525 -0.6352 -0.7583
 6196TIP3    H240004   5.276   6.209   4.812 -0.5730  1.4386  0.9445
 6197TIP3   OH240005   5.632   1.650   1.054  0.2431  0.1835 -0.1325
 6197TIP3    H140006   5.576   1.596   0.998 -1.5584  0.0155  1.6789
 6197TIP3    H240007   5.719   1.646   1.014 -0.5727 -1.3496 -1.8703
 6198TIP3   OH240008   5.050   1.337  13.317 -0.0268  0.0168  0.1454
 6198TIP3    H140009   5.101   1.293  13.385 -2.7256 -0.9714  1.7231
 6198TIP3    H240010   5.050   1.429  13.342  1.9020  0.2495 -0.5818
 6199TIP3   OH240011   2.373   2.787   2.770  0.0595  0.1532  1.0734
 6199TIP3    H140012   2.431   2.775   2.695 -1.6812  2.9858 -0.9296
 6199TIP3    H240013   2.420   2.848   2.827 -0.3906  1.5718 -0.0087
 6200TIP3   OH240014   1.192   2.118   6.295 -0.5187 -0.1983  0.6475
 6200TIP3    H140015   1.163   2.192   6.348 -0.4395  1.2403 -1.2555
 6200TIP3    H240016   1.117   2.096   6.240  0.1351 -0.1804 -0.2641
 6201TIP3   OH240017   1.606   5.275  13.787  0.0193  0.4271 -0.8783
 6201TIP3    H140018   1.595   5.369  13.805 -0.5545  0.6067 -2.0850
 6201TIP3    H240019   1.663   5.272  13.710  0.0992 -0.2262 -0.7994
 6202TIP3   OH240020   2.124   4.577  12.364 -0.3214  0.3393  0.4989
 6202TIP3    H140021   2.142   4.538  12.279  0.5714 -1.1744  1.3518
 6202TIP3    H240022   2.029   4.581  12.369 -0.3912  1.4014 -0.9655
 6203TIP3   OH240023   4.574   4.456  12.627 -0.4565  0.3718  0.0788
 6203TIP3    H140024   4.638   4.395  12.664  0.8258  0.0358 -2.4469
 6203TIP3    H240025   4.505   4.461  12.692  0.6453 -1.7427  1.5324
 6204TIP3   OH240026   0.162   0.199  12.901  0.6604  0.2353  0.4355
 6204TIP3    H140027   0.124   0.282  12.930  0.6091  0.2194  0.4134
 6204TIP3    H240028   0.234   0.224  12.843  0.2308  0.2566 -0.0997
 6205TIP3   OH240029   3.378   2.954  15.353 -0.0572 -0.0539 -0.4262
 6205TIP3    H140030   3.338   3.039  15.333  0.4884  0.1622 -0.6158
 6205TIP3    H240031   3.417   2.966  15.439 -2.0476 -0.8570  0.6568
 6206TIP3   OH240032   2.753   0.816   3.524 -0.4316  0.0033 -0.2606
 6206TIP3    H140033   2.666   0.840   3.492 -0.2384  0.5779 -0.3682
 6206TIP3    H240034   2.755   0.720   3.519 -0.9041  0.0101 -0.6604
 6207TIP3   OH240035   2.613   4.748   0.791  0.2097  0.6481 -0.7033
 6207TIP3    H140036   2.654   4.671   0.750 -1.6799 -0.6322 -0.2749
 6207TIP3    H240037   2.549   4.778   0.726 -0.3769  0.7138 -0.0931
 6208TIP3   OH240038   5.873   4.981  12.016 -0.2520  0.2641  0.3037
 6208TIP3    H140039   5.876   4.939  12.102  3.8314  3.3918  2.0395
 6208TIP3    H240040   5.964   4.981  11.986 -1.0358  2.1051 -2.5413
 6209TIP3   OH240041   0.174   0.537  13.554 -0.4322 -0.2758  0.0914
 6209TIP3    H140042   0.252   0.483  13.566 -0.9479 -1.0753 -0.0734
 6209TIP3    H240043   0.101   0.475  13.558 -1.1316  0.5924  1.2099
 6210TIP3   OH240044   2.805   4.146   2.885  0.8942  0.1252  0.4062
 6210TIP3    H140045   2.837   4.068   2.839  2.6978 -0.3507  2.2716
 6210TIP3    H240046   2.879   4.173   2.939 -0.7945  1.1017  2.3818
 6211TIP3   OH240047   5.999   2.181  15.555 -0.1958  0.0819 -0.3193
 6211TIP3    H140048   6.055   2.215  15.624  1.0939  0.7273 -1.6434
 6211TIP3    H240049   5.966   2.260  15.510 -2.7925 -0.2302  0.8492
 6212TIP3   OH240050   1.899   4.728  16.022 -0.1393 -0.1712 -0.7782
 6212TIP3    H140051   1.877   4.716  16.115  0.5375 -1.4208 -0.7545
 6212TIP3    H240052   1.940   4.814  16.018  0.0541 -0.2089  0.1363
 6213TIP3   OH240053   5.754   3.740   0.808 -0.3670 -0.2788  0.2883
 6213TIP3    H140054   5.722   3.824   0.774  0.1893  0.7840  2.2042
 6213TIP3    H240055   5.675   3.695   0.838 -0.5955 -0.0772 -0.0010
 6214TIP3   OH240056   6.165   5.127   1.271  0.3626 -0.0320  0.4643
 6214TIP3    H140057   6.155   5.106   1.178 -0.0332  3.2431 -0.3828
 6214TIP3    H240058   6.256   5.155   1.280  0.0434  0.9871  0.7005
 6215TIP3   OH240059   2.006   3.171  13.753 -0.1129  0.2430  0.2862
 6215TIP3    H140060   2.055   3.106  13.702 -0.3651 -0.4169  0.8777
 6215TIP3    H240061   2.062   3.189  13.828  0.1506  1.0400 -0.0952
 6216TIP3   OH240062   0.737   0.729  13.223  0.5200 -0.2090 -0.1040
 6216TIP3    H140063   0.663   0.789  13.206  1.3020  0.5165 -1.1254
 6216TIP3    H240064   0.716   0.688  13.306 -1.1455 -0.1796 -0.4690
 6217TIP3   OH240065   5.853   5.694   3.009  0.0390  0.1924 -0.3921
 6217TIP3    H140066   5.892   5.780   2.996  0.9068 -0.1559 -0.1875
 6217TIP3    H240067   5.759   5.710   3.011  0.2169  1.3005  0.7249
 6218TIP3   OH240068   6.331   5.395  14.207  0.3432  0.4083 -0.2466
 6218TIP3    H140069   6.252   5.436  14.241  0.9268  1.9000 -0.6083
 6218TIP3    H240070   6.299   5.323  14.152 -0.7047  0.2398  0.5530
 6219TIP3   OH240071   4.918   3.823  13.661  0.4545 -0.2274 -0.2492
 6219TIP3    H140072   4.973   3.764  13.712  0.1256  0.3979  0.8719
 6219TIP3    H240073   4.829   3.805  13.692  0.4334  1.5197  0.8832
 6220TIP3   OH240074   5.327   2.522  14.208  0.2417 -0.1826  0.2091
 6220TIP3    H140075   5.420   2.537  14.190 -0.0420 -0.1436 -1.3555
 6220TIP3    H240076   5.314   2.428  14.193  0.4918 -0.7064  2.8179
 6221TIP3   OH240077   2.804   2.986   5.089 -0.0698  0.1712 -0.2048
 6221TIP3    H140078   2.825   2.921   5.022  2.3105 -0.2703  0.8470
 6221TIP3    H240079   2.742   2.942   5.147  0.0060 -0.4406 -0.5809
 6222TIP3   OH240080   2.552   5.112  15.896  0.5676 -0.7583  0.4162
 6222TIP3    H140081   2.602   5.190  15.874 -1.6348  0.5519 -0.1850
 6222TIP3    H240082   2.601   5.040  15.855 -0.1959  0.8891 -3.8656
 6223TIP3   OH240083   4.984   2.916   4.045  0.0189  0.3227 -0.2967
 6223TIP3    H140084   4.963   3.009   4.033 -1.6436  0.0408  0.1451
 6223TIP3    H240085   5.032   2.893   3.966  1.1450  1.7321 -0.0646
 6224TIP3   OH240086   2.796   3.690  12.755  0.3519 -0.2806  0.2772
 6224TIP3    H140087   2.725   3.664  12.814 -0.7817 -0.7509 -1.2430
 6224TIP3    H240088   2.754   3.747  12.691  1.7088  0.7956  0.2968
 6225TIP3   OH240089   4.765   6.401   5.703  0.0763  0.0041 -0.2666
 6225TIP3    H140090   4.696   6.440   5.649 -1.1916  0.2361  1.4558
 6225TIP3    H240091   4.729   6.316   5.729  0.5279  0.0315  0.4675
 6226TIP3   OH240092   0.976   4.888  10.685 -0.2655 -0.6841  0.5569
 6226TIP3    H140093   1.040   4.919  10.621 -1.6114 -1.0143 -1.0104
 6226TIP3    H240094   0.970   4.794  10.669  0.8304 -1.1700  2.5757
 6227TIP3   OH240095   2.764   5.331   2.747  0.3548 -0.1513 -0.0702
 6227TIP3    H140096   2.836   5.271   2.727 -0.3549 -0.7891 -0.7948
 6227TIP3    H240097   2.779   5.406   2.689  0.5789 -0.1606 -0.0264
 6228TIP3   OH240098   6.124   6.070   2.848  0.5659  0.0979  0.6020
 6228TIP3    H140099   6.131   5.982   2.884 -0.0382  0.0609  0.6337
 6228TIP3    H240100   6.145   6.061   2.755 -1.0028 -0.3519  0.2589
 6229TIP3   OH240101   1.066   2.089  15.310  0.1733 -1.0515  0.4485
 6229TIP3    H140102   1.154   2.067  15.279  0.2826 -0.6593  0.4732
 6229TIP3    H240103   1.013   2.094  15.230  0.3436 -0.5388  0.3642
 6230TIP3   OH240104   1.246   4.710   1.046  0.2105  0.0982  0.2450
 6230TIP3    H140105   1.267   4.801   1.026 -1.1221  0.5732  0.8962
 6230TIP3    H240106   1.311   4.684   1.112  1.7335 -0.0382 -1.2266
 6231TIP3   OH240107   1.504   0.328   3.019  0.0719 -0.2183  0.4849
 6231TIP3    H140108   1.433   0.266   3.030  0.2517 -0.5372 -0.0712
 6231TIP3    H240109   1.582   0.281   3.050  0.0382  0.1400  1.1224
 6232TIP3   OH240110   1.414   2.956   2.989 -0.3630  0.1677 -0.1264
 6232TIP3    H140111   1.320   2.973   2.998 -0.3983 -0.0367 -0.1037
 6232TIP3    H240112   1.456   3.037   3.018 -0.5281  0.1981  0.0298
 6233TIP3   OH240113   5.132   3.402   4.178  0.1823 -0.1035 -0.0510
 6233TIP3    H140114   5.213   3.384   4.225  0.5431 -1.1877 -1.0362
 6233TIP3    H240115   5.150   3.480   4.126  0.5171 -0.1815 -0.0525
 6234TIP3   OH240116   3.580   2.495  10.638 -0.5040  0.4488  0.5842
 6234TIP3    H140117   3.601   2.423  10.579  0.2449  0.0862  1.2893
 6234TIP3    H240118   3.510   2.461  10.693  0.2505  0.0455  1.3074
 6235TIP3   OH240119   0.189   1.438   0.746  0.1470 -0.0846  0.1100
 6235TIP3    H140120   0.277   1.468   0.767 -0.8706  3.5840 -0.1000
 6235TIP3    H240121   0.200   1.385   0.666  2.0695  0.9690 -0.3842
 6236TIP3   OH240122   2.770   4.950  15.855 -0.1267 -0.4956  0.1473
 6236TIP3    H140123   2.794   4.963  15.947  2.2500 -2.1361 -0.1750
 6236TIP3    H240124   2.838   4.995  15.805 -0.6535 -0.7462 -0.8188
 6237TIP3   OH240125   3.355   4.884   4.636 -0.1435  0.1309  0.8613
 6237TIP3    H140126   3.271   4.837   4.633 -0.2345  0.1685  2.1813
 6237TIP3    H240127   3.421   4.815   4.631 -0.1284  0.2147 -2.6705
 6238TIP3   OH240128   6.398   1.301  14.214 -0.4098 -0.2878  0.4909
 6238TIP3    H140129   6.421   1.264  14.129  1.2811  0.7292  0.4433
 6238TIP3    H240130   6.369   1.390  14.194 -1.7188 -0.6170  0.8445
 6239TIP3   OH240131   6.542   0.369   0.183 -0.4967  0.0932 -0.2054
 6239TIP3    H140132   6.497   0.285   0.174 -0.4281  0.1246 -0.9063
 6239TIP3    H240133   6.631   0.353   0.151  0.3434 -0.2280  2.1132
 6240TIP3   OH240134   3.176   1.239  13.393 -0.3737  0.1201  0.1531
 6240TIP3    H140135   3.099   1.202  13.436  0.0786 -0.3606  0.5692
 6240TIP3    H240136   3.166   1.333  13.403 -1.4647  0.1211 -0.7764
 6241TIP3   OH240137   1.458   0.117   5.283  0.0724  0.0240 -0.1898
 6241TIP3    H140138   1.419   0.039   5.244  1.4284 -0.0288 -1.5738
 6241TIP3    H240139   1.452   0.184   5.214  0.1381  0.7405  0.4773
 6242TIP3   OH240140   5.126   2.168  13.626 -0.1205 -0.1762  0.6448
 6242TIP3    H140141   5.129   2.136  13.536  1.6550  0.1048  0.5567
 6242TIP3    H240142   5.218   2.167  13.654 -0.7368 -1.2169  2.8070
 6243TIP3   OH240143   5.121   3.401   4.564 -0.1181 -0.0021  0.3240
 6243TIP3    H140144   5.057   3.353   4.618 -1.4593 -0.1787 -1.3397
 6243TIP3    H240145   5.205   3.362   4.587 -0.3607  0.9675  3.4008
 6244TIP3   OH240146   6.451   4.741  12.342 -0.4111  1.0622  0.3326
 6244TIP3    H140147   6.436   4.822  12.392  2.6739  1.9585  0.0066
 6244TIP3    H240148   6.545   4.727  12.347 -0.1932  0.0636 -3.5511
 6245TIP3   OH240149   6.572   3.765  16.840  0.3492 -0.2656 -0.5860
 6245TIP3    H140150   6.587   3.674  16.866 -1.4338 -0.6433 -0.7208
 6245TIP3    H240151   6.531   3.805  16.916 -1.1736 -0.2844 -1.3573
 6246TIP3   OH240152   5.989   5.412   2.605 -0.3070  0.5130 -0.2271
 6246TIP3    H140153   5.997   5.319   2.587 -0.6946  0.6074 -0.9097
 6246TIP3    H240154   6.078   5.439   2.630 -0.4213 -0.2538  1.1279
 6247TIP3   OH240155   0.138   4.984   1.910  0.0752 -0.2994 -0.0910
 6247TIP3    H140156   0.067   4.971   1.847  0.6827  0.6709 -1.0024
 6247TIP3    H240157   0.109   5.059   1.963  0.1349 -0.3164 -0.0338
 6248TIP3   OH240158   2.741   2.626   2.352 -0.1900 -0.4221 -0.3506
 6248TIP3    H140159   2.696   2.618   2.268 -0.7698  0.2052 -0.1051
 6248TIP3    H240160   2.744   2.536   2.386 -0.6877 -0.5588 -0.6605
 6249TIP3   OH240161   3.139   0.760   3.434  0.1792 -0.1376 -0.0310
 6249TIP3    H140162   3.230   0.751   3.406 -0.0384  1.3096 -1.3098
 6249TIP3    H240163   3.141   0.829   3.500 -0.3597  2.2837 -2.4014
 6250TIP3   OH240164   2.724   3.521   1.447  0.2406 -0.1560  0.3828
 6250TIP3    H140165   2.819   3.534   1.451  0.5328 -0.3852 -2.9235
 6250TIP3    H240166   2.688   3.609   1.436  0.4490 -0.2908 -1.8169
 6251TIP3   OH240167   6.158   0.013   4.276  0.1156 -0.3550  0.1790
 6251TIP3    H140168   6.170  -0.037   4.195 -0.7834  2.0615 -1.5709
 6251TIP3    H240169   6.246   0.041   4.300  0.1775  1.2333 -1.6311
 6252TIP3   OH240170   5.999   6.511   2.073  0.3512  0.0754  0.0724
 6252TIP3    H140171   6.077   6.456   2.081 -0.9060 -1.7865  0.2378
 6252TIP3    H240172   5.965   6.492   1.986 -1.2460 -1.0877  0.8888
 6253TIP3   OH240173   2.252   1.587   6.588  0.1720  0.4290 -0.0611
 6253TIP3    H140174   2.276   1.560   6.676 -1.2858  0.8458  0.4945
 6253TIP3    H240175   2.277   1.680   6.584  3.0794 -0.2911 -1.1930
 6254TIP3   OH240176   4.853   2.201   0.559 -0.2562  0.1908 -0.5668
 6254TIP3    H140177   4.895   2.206   0.474  1.1645  1.4290  0.1482
 6254TIP3    H240178   4.908   2.140   0.610 -0.1256  0.7180 -0.0613
 6255TIP3   OH240179   3.304   3.347  13.498  0.4835 -0.2734 -0.4444
 6255TIP3    H140180   3.276   3.256  13.502 -0.1739 -0.0672 -0.2830
 6255TIP3    H240181   3.318   3.372  13.590 -1.3414  0.3838 -0.2914
 6256TIP3   OH240182   1.139   3.754  16.992 -0.0896 -0.1015 -0.3720
 6256TIP3    H140183   1.061   3.699  16.981 -1.0604  1.2690 -0.5955
 6256TIP3    H240184   1.116   3.837  16.949  1.2803  0.5230  0.0585
 6257TIP3   OH240185   5.470   0.434  12.230  0.4645 -0.2884 -0.1599
 6257TIP3    H140186   5.390   0.433  12.284 -0.2184 -0.0867 -1.1475
 6257TIP3    H240187   5.506   0.522  12.242  1.1859 -0.7216  1.1698
 6258TIP3   OH240188   3.651   4.016  14.159  0.2016 -0.3056 -0.2250
 6258TIP3    H140189   3.661   4.069  14.080  0.0089  0.7229  0.4222
 6258TIP3    H240190   3.677   4.074  14.230  0.2767 -1.1860  0.4822
 6259TIP3   OH240191   5.274   1.966   3.142  0.0398 -0.2597  0.3700
 6259TIP3    H140192   5.194   2.008   3.173  0.3858  0.1505  0.7161
 6259TIP3    H240193   5.343   2.029   3.160  0.7936 -1.5155  2.2703
 6260TIP3   OH240194   4.639   6.768   4.871  0.1511 -0.1508  0.4743
 6260TIP3    H140195   4.722   6.753   4.826 -1.1083  1.1485 -2.5438
 6260TIP3    H240196   4.627   6.691   4.927  2.7290 -0.9772 -0.0168
 6261TIP3   OH240197   0.706   4.927  11.794 -0.2250  0.1873 -0.2388
 6261TIP3    H140198   0.761   4.853  11.818  0.5123  0.7950 -0.0038
 6261TIP3    H240199   0.679   4.966  11.877 -1.3581 -0.3421 -0.3433
 6262TIP3   OH240200   2.081   4.823  12.882 -0.8013 -0.8932 -0.3561
 6262TIP3    H140201   2.027   4.888  12.927 -0.9556 -0.9790 -0.4124
 6262TIP3    H240202   2.169   4.860  12.881 -0.6261 -1.2536  0.7265
 6263TIP3   OH240203   3.893   4.424   5.820 -0.0652 -0.6460 -0.5127
 6263TIP3    H140204   3.879   4.433   5.915 -2.6294  1.8804 -0.9835
 6263TIP3    H240205   3.977   4.468   5.805  0.8239 -1.8677  0.6518
 6264TIP3   OH240206   3.922   6.309  13.169 -0.1112  0.0597  0.4691
 6264TIP3    H140207   3.921   6.367  13.245 -0.0302  2.0874 -0.9810
 6264TIP3    H240208   3.836   6.268  13.169 -0.5327  0.9058  1.0392
 6265TIP3   OH240209   5.740   2.929   1.767  1.1034  0.1515 -0.0422
 6265TIP3    H140210   5.729   2.985   1.844 -2.8008  2.7073 -2.1439
 6265TIP3    H240211   5.727   2.840   1.800  1.9720  0.9047  2.5532
 6266TIP3   OH240212   0.792   1.185   1.352  0.3714 -0.0846  0.0325
 6266TIP3    H140213   0.779   1.256   1.289  0.9856  0.7703  0.8359
 6266TIP3    H240214   0.881   1.199   1.386  1.1010 -2.1546 -0.9078
 6267TIP3   OH240215   1.841   6.669  12.579 -0.5667  0.7662  0.6337
 6267TIP3    H140216   1.792   6.587  12.571 -0.1970  0.3944  1.9746
 6267TIP3    H240217   1.920   6.655  12.527 -0.8687  0.5685  0.2251
 6268TIP3   OH240218   3.008   3.988   6.013 -0.0252  0.1746  0.0237
 6268TIP3    H140219   2.930   4.039   5.988  0.2681  0.9130  0.5794
 6268TIP3    H240220   3.041   3.954   5.930 -1.2864 -0.6686 -0.1600
 6269TIP3   OH240221   0.645   1.980   0.062 -0.6356 -0.4237 -0.0133
 6269TIP3    H140222   0.574   1.937   0.109  0.1128 -2.1698 -0.3780
 6269TIP3    H240223   0.723   1.928   0.085 -0.1026 -0.8011 -2.4330
 6270TIP3   OH240224   2.058   4.974  16.052  0.3702  0.0461 -0.4149
 6270TIP3    H140225   1.988   5.032  16.081 -0.9255 -0.9396 -1.4488
 6270TIP3    H240226   2.130   5.032  16.028 -0.4685  1.1403 -0.3110
 6271TIP3   OH240227   0.252   5.451  12.920  0.7809 -0.4870  0.1497
 6271TIP3    H140228   0.317   5.510  12.958 -0.4639  0.0649  1.5234
 6271TIP3    H240229   0.168   5.489  12.946 -0.0656 -2.6135  0.6823
 6272TIP3   OH240230   1.871   3.071   4.326  1.2179 -0.2557 -0.1495
 6272TIP3    H140231   1.832   3.131   4.390  0.9420 -3.7701  3.4012
 6272TIP3    H240232   1.948   3.118   4.293  2.1019  1.4544  3.7493
 6273TIP3   OH240233   5.657   3.230   3.721  0.0038 -0.4957 -0.9286
 6273TIP3    H140234   5.578   3.175   3.713  1.0969 -2.3163  0.2321
 6273TIP3    H240235   5.689   3.213   3.809  0.5669  1.8722 -0.6078
 6274TIP3   OH240236   3.727   1.359   4.656  0.2158  0.2850  0.1798
 6274TIP3    H140237   3.775   1.438   4.681  1.7156 -0.5030 -0.1130
 6274TIP3    H240238   3.773   1.288   4.701  0.3392 -0.6802 -1.4263
 6275TIP3   OH240239   3.793   1.809  13.488  0.3280  0.3286  0.1687
 6275TIP3    H140240   3.749   1.796  13.404  0.6016  1.6208 -0.1916
 6275TIP3    H240241   3.886   1.816  13.466  0.5068 -0.2888  0.6950
 6276TIP3   OH240242   5.345   0.765   1.851 -0.5303  0.5662  0.0881
 6276TIP3    H140243   5.412   0.829   1.875 -0.2189 -0.1098  1.0513
 6276TIP3    H240244   5.280   0.816   1.802 -0.5758  1.7543  1.3174
 6277TIP3   OH240245   4.060   3.747   5.975 -0.6053  0.1860  0.3216
 6277TIP3    H140246   4.012   3.688   6.033  0.5194 -1.8886 -0.7238
 6277TIP3    H240247   4.073   3.826   6.027 -0.2381 -1.3092  2.6733
 6278TIP3   OH240248   3.650   5.212   2.849 -0.1108 -0.3937 -0.1486
 6278TIP3    H140249   3.690   5.141   2.900  0.0204 -1.1236 -1.2282
 6278TIP3    H240250   3.723   5.268   2.824 -0.1351 -0.2031  0.2048
 6279TIP3   OH240251   4.652   3.878  15.348  0.3992  0.5986  0.5359
 6279TIP3    H140252   4.564   3.909  15.368  0.0641 -0.9343  1.5677
 6279TIP3    H240253   4.700   3.886  15.430  0.8711  0.2533  0.2973
 6280TIP3   OH240254   1.943   4.953  17.160 -0.1550 -0.3008 -0.1956
 6280TIP3    H140255   2.000   5.030  17.167  0.9750 -1.2066  1.0946
 6280TIP3    H240256   1.996   4.887  17.117 -0.4178 -0.9749  0.4852
 6281TIP3   OH240257   1.558   0.557  15.616 -0.0545 -0.2963  0.1692
 6281TIP3    H140258   1.477   0.506  15.611 -0.2230  0.0624 -1.6488
 6281TIP3    H240259   1.614   0.508  15.676 -1.6077 -0.5449  1.4767
 6282TIP3   OH240260   5.513   3.234   5.286  0.0424 -0.2196 -0.5461
 6282TIP3    H140261   5.448   3.269   5.347  1.7572  0.7802  0.7901
 6282TIP3    H240262   5.566   3.310   5.262  3.5096 -1.5926  1.9528
 6283TIP3   OH240263   4.762   6.117  14.209  0.8024  0.3068  0.3896
 6283TIP3    H140264   4.694   6.100  14.143 -0.0684 -1.9983  1.7400
 6283TIP3    H240265   4.844   6.109  14.161  0.1807 -0.0461 -0.6667
 6284TIP3   OH240266   3.341   3.387  16.514 -0.1033  0.1031 -0.3395
 6284TIP3    H140267   3.358   3.316  16.453 -0.9907 -0.1411 -0.3091
 6284TIP3    H240268   3.360   3.350  16.600 -1.6084 -0.4696 -0.2177
 6285TIP3   OH240269   1.475   3.903   2.172  0.0622  0.2201  0.2682
 6285TIP3    H140270   1.484   3.859   2.256 -0.9553 -0.0536  0.2395
 6285TIP3    H240271   1.453   3.833   2.110  0.5295  0.4603 -0.1834
 6286TIP3   OH240272   3.030   6.724  11.726  0.0777 -0.0194 -0.4069
 6286TIP3    H140273   2.959   6.752  11.784  0.8707  1.0029  0.1147
 6286TIP3    H240274   3.003   6.752  11.639  0.0468  0.8120 -0.1418
 6287TIP3   OH240275   2.044   2.242   0.706 -0.5087 -0.3375  0.7033
 6287TIP3    H140276   1.960   2.277   0.734 -2.3069 -3.4306 -0.3398
 6287TIP3    H240277   2.061   2.169   0.766 -0.0133 -1.4754 -0.7449
 6288TIP3   OH240278   5.518   0.145   5.444  0.7587  0.1280 -0.2024
 6288TIP3    H140279   5.563   0.081   5.499 -0.0007  0.3537  0.7094
 6288TIP3    H240280   5.457   0.093   5.391  1.1269 -0.0399 -0.4608
 6289TIP3   OH240281   6.723   1.642  13.482  0.4769 -0.1144  0.3581
 6289TIP3    H140282   6.673   1.564  13.460  0.9742 -0.1739 -0.5920
 6289TIP3    H240283   6.665   1.692  13.540 -0.8078 -0.0368 -0.9419
 6290TIP3   OH240284   1.821   0.157   0.241  0.3280 -0.4090  0.1650
 6290TIP3    H140285   1.845   0.210   0.317  2.7748 -0.7082 -0.3108
 6290TIP3    H240286   1.736   0.118   0.265 -0.3388  1.7195  1.5198
 6291TIP3   OH240287   3.485   4.107   2.926  0.2286  0.2074 -0.2501
 6291TIP3    H140288   3.527   4.026   2.899 -0.6736 -0.7916  1.2447
 6291TIP3    H240289   3.556   4.160   2.963  0.6107 -0.4207 -0.0715
 6292TIP3   OH240290   6.635   2.532   3.046  0.1127  0.2468 -0.5093
 6292TIP3    H140291   6.695   2.462   3.020  0.8017  0.6570 -0.0455
 6292TIP3    H240292   6.595   2.501   3.127 -0.0890  0.1042 -0.6608
 6293TIP3   OH240293   0.377   5.072  11.084 -0.0393 -0.0451 -0.3424
 6293TIP3    H140294   0.459   5.031  11.109  1.4644  2.2597 -1.1162
 6293TIP3    H240295   0.342   5.109  11.166 -0.1016 -0.6457 -0.0909
 6294TIP3   OH240296   4.663   2.840   5.344  0.2111  0.7218  0.2862
 6294TIP3    H140297   4.599   2.911   5.350 -0.1087  0.4342  0.2947
 6294TIP3    H240298   4.716   2.861   5.267 -0.6981  0.3005 -0.4759
 6295TIP3   OH240299   1.255   4.120   4.486 -0.0139  0.2311 -0.2403
 6295TIP3    H140300   1.337   4.157   4.518 -0.5192  1.2781 -0.1130
 6295TIP3    H240301   1.278   4.076   4.404  0.3071  2.5487 -1.4908
 6296TIP3   OH240302   5.410   0.439   3.384  0.6985  1.1252  0.9060
 6296TIP3    H140303   5.442   0.529   3.370  0.8162  0.9762  0.1796
 6296TIP3    H240304   5.435   0.419   3.474  3.8250  0.5650  0.0367
 6297TIP3   OH240305   0.056   6.695   3.946 -0.2178  0.2476 -0.7447
 6297TIP3    H140306   0.090   6.643   4.018 -1.4760 -0.8132 -0.8765
 6297TIP3    H240307   0.111   6.773   3.945 -1.3776  1.2771  2.6502
 6298TIP3   OH240308   0.441   5.366  11.023  0.6816 -0.0450 -0.0183
 6298TIP3    H140309   0.482   5.282  11.045  1.2565 -0.1641 -1.4725
 6298TIP3    H240310   0.509   5.415  10.978  0.3641  1.2524  0.8745
 6299TIP3   OH240311   2.057   1.863   0.584 -0.3486  0.2268 -0.3120
 6299TIP3    H140312   2.111   1.935   0.555 -0.8755 -0.1750 -2.4043
 6299TIP3    H240313   2.082   1.789   0.528 -1.0283 -0.7541  0.6212
 6300TIP3   OH240314   3.238   3.221   0.606  0.2326  0.7502 -0.4013
 6300TIP3    H140315   3.170   3.275   0.647  0.9143  1.2361  0.1120
 6300TIP3    H240316   3.286   3.282   0.549 -0.7746  0.0630 -2.0585
 6301TIP3   OH240317   5.912   4.032  16.681  0.0613 -0.1196 -0.3756
 6301TIP3    H140318   5.868   3.956  16.644 -1.2991  0.5042 -0.1215
 6301TIP3    H240319   5.993   3.997  16.719  1.0209 -0.9177 -2.9782
 6302TIP3   OH240320   2.252   1.129  12.754  0.5424 -0.4055 -0.1259
 6302TIP3    H140321   2.285   1.196  12.695  0.0924 -1.5597 -1.7794
 6302TIP3    H240322   2.329   1.079  12.780  0.7833  0.3015  0.5166
 6303TIP3   OH240323   4.232   4.698  11.826 -0.8584 -0.7149 -0.6170
 6303TIP3    H140324   4.196   4.784  11.806 -0.8760 -0.6134 -0.1685
 6303TIP3    H240325   4.201   4.679  11.915  0.6845 -0.3523  0.0432
 6304TIP3   OH240326   1.534   1.114  16.691 -0.6580  0.2428  0.0693
 6304TIP3    H140327   1.596   1.121  16.618  2.4857  2.2488  2.6473
 6304TIP3    H240328   1.475   1.188  16.678  0.2137  0.9174 -0.2109
 6305TIP3   OH240329   2.039   5.890   5.219 -0.4448 -0.2360 -0.3550
 6305TIP3    H140330   1.995   5.974   5.203 -3.0519 -1.7031 -1.5533
 6305TIP3    H240331   2.001   5.858   5.300  0.0210 -0.5986 -0.2762
 6306TIP3   OH240332   1.846   2.490  10.575 -0.4727 -0.0426 -0.4408
 6306TIP3    H140333   1.930   2.511  10.532 -0.0282 -0.0184  0.4222
 6306TIP3    H240334   1.857   2.399  10.602 -0.4917  0.1466  0.2086
 6307TIP3   OH240335   4.929   1.245  14.546 -0.1002  0.5198  0.0044
 6307TIP3    H140336   4.910   1.163  14.591 -0.9800  1.5661  1.6316
 6307TIP3    H240337   4.874   1.243  14.468  0.7801 -0.9279 -0.6304
 6308TIP3   OH240338   3.791   0.026  13.725 -0.1270 -0.4880  0.1652
 6308TIP3    H140339   3.748   0.093  13.779 -1.7749 -2.2012  1.1258
 6308TIP3    H240340   3.884   0.039  13.739 -0.4573  0.7796  1.3534
 6309TIP3   OH240341   1.704   4.827  11.117 -0.4052  0.0830 -0.3276
 6309TIP3    H140342   1.785   4.788  11.150 -0.1480  1.0446  0.1945
 6309TIP3    H240343   1.642   4.754  11.115  0.5333 -0.7252 -0.9763
 6310TIP3   OH240344   5.232   2.086  13.912 -0.1210  0.0943  0.3443
 6310TIP3    H140345   5.159   2.033  13.881  0.1447  0.3167 -0.6871
 6310TIP3    H240346   5.307   2.054  13.862  0.1592  1.0172  0.1601
 6311TIP3   OH240347   2.498   6.058   3.409 -0.0529  0.0863  0.1445
 6311TIP3    H140348   2.589   6.087   3.407 -0.0239  0.2144  1.9856
 6311TIP3    H240349   2.448   6.137   3.428 -0.3173 -0.3591  1.3925
 6312TIP3   OH240350   5.490   3.378  14.804 -0.4257 -0.1819 -0.2017
 6312TIP3    H140351   5.523   3.378  14.714  0.5885  4.1603 -0.0816
 6312TIP3    H240352   5.564   3.407  14.857 -1.6347 -0.3909  1.7079
 6313TIP3   OH240353   1.043   0.934   0.194 -0.0609  1.1818 -0.3642
 6313TIP3    H140354   1.046   1.018   0.239 -0.0377  2.0180 -1.8635
 6313TIP3    H240355   1.073   0.953   0.105 -0.9099 -0.2372 -0.9895
 6314TIP3   OH240356   0.013   6.312  17.081  0.3297 -0.0319 -0.1104
 6314TIP3    H140357   0.015   6.218  17.064  1.1371  0.2718 -1.9909
 6314TIP3    H240358  -0.070   6.341  17.044  1.2347  0.3405 -1.9883
 6315TIP3   OH240359   6.234   5.496   2.617 -0.4232 -0.3419 -0.0156
 6315TIP3    H140360   6.265   5.501   2.708 -0.0911  1.7801 -0.2016
 6315TIP3    H240361   6.288   5.559   2.570 -0.6778 -1.3195 -1.6966
 6316TIP3   OH240362   2.556   6.397  16.257  0.1921 -0.4086 -0.0069
 6316TIP3    H140363   2.636   6.348  16.277  0.2542 -0.6386 -0.8060
 6316TIP3    H240364   2.536   6.376  16.166  1.2954  2.5035 -1.0455
 6317TIP3   OH240365   2.703   6.074   3.801  0.3560 -0.1144 -0.0565
 6317TIP3    H140366   2.700   5.995   3.747 -0.0309 -0.3855  0.3616
 6317TIP3    H240367   2.790   6.071   3.842  0.7473  0.2167 -0.8404
 6318TIP3   OH240368   2.862   2.074   2.346  0.4724  0.0326  0.0101
 6318TIP3    H140369   2.810   2.052   2.424 -1.1699  3.0762 -0.0840
 6318TIP3    H240370   2.833   2.012   2.280 -1.4941  0.2742  0.5856
 6319TIP3   OH240371   3.586   1.757  10.676  0.1393 -0.1658  0.0313
 6319TIP3    H140372   3.660   1.818  10.685 -0.1351  0.2390 -0.4234
 6319TIP3    H240373   3.517   1.810  10.636 -1.8257  0.6451  4.0224
 6320TIP3   OH240374   5.198   2.128  14.715 -0.2482  0.5426  0.6005
 6320TIP3    H140375   5.130   2.159  14.654 -0.3332  1.0031  0.9256
 6320TIP3    H240376   5.258   2.078  14.660 -0.5273  0.6395  0.2008
 6321TIP3   OH240377   6.259   3.549   5.835  0.2407  0.0960  0.3514
 6321TIP3    H140378   6.208   3.562   5.756  2.2471 -1.2816 -1.2922
 6321TIP3    H240379   6.282   3.456   5.834  0.1400 -0.0176  2.6987
 6322TIP3   OH240380   3.791   1.251  14.325  0.3864  0.5511 -0.5062
 6322TIP3    H140381   3.730   1.222  14.393 -0.9283  2.0364 -0.9787
 6322TIP3    H240382   3.878   1.234  14.362 -0.2989  0.1407  1.0137
 6323TIP3   OH240383   5.302   3.463   1.163  0.3151 -0.1236  0.5089
 6323TIP3    H140384   5.303   3.375   1.201 -1.8646  0.3674  1.8329
 6323TIP3    H240385   5.289   3.448   1.069 -0.6269 -1.2386  0.7918
 6324TIP3   OH240386   2.868   6.220  15.160  0.0323  0.0670  0.0972
 6324TIP3    H140387   2.829   6.296  15.202  0.5906  0.9214 -0.8807
 6324TIP3    H240388   2.809   6.200  15.088 -0.0143 -0.3230  0.2420
 6325TIP3   OH240389   3.331   4.771   4.902  0.0443  0.5710  0.9433
 6325TIP3    H140390   3.400   4.712   4.872 -0.0977  1.1120 -0.5112
 6325TIP3    H240391   3.254   4.715   4.911 -0.3443  0.6316 -1.3567
 6326TIP3   OH240392   0.321   0.471  11.403 -0.4704 -0.0571  0.8624
 6326TIP3    H140393   0.367   0.474  11.487  1.0581  2.6655  0.0592
 6326TIP3    H240394   0.250   0.534  11.413 -0.1053  0.5024  0.0598
 6327TIP3   OH240395   5.234   2.750   3.958 -0.4335  0.2669  0.3460
 6327TIP3    H140396   5.157   2.733   4.012 -1.9294 -1.6028 -2.2154
 6327TIP3    H240397   5.252   2.668   3.913  1.9324  1.1846 -0.5853
 6328TIP3   OH240398   5.530   0.956  13.616 -0.8607  0.4813  0.3025
 6328TIP3    H140399   5.579   0.921  13.690  1.2601  2.1799 -0.1904
 6328TIP3    H240400   5.555   0.900  13.542  0.6531  1.5155 -0.0064
 6329TIP3   OH240401   6.077   1.743  16.063  0.3203 -0.5818 -0.2718
 6329TIP3    H140402   6.104   1.760  15.973  0.7083 -0.8700 -0.2122
 6329TIP3    H240403   6.088   1.826  16.108 -1.4450  0.0139 -0.8662
 6330TIP3   OH240404   5.972   4.681  16.248 -0.1875  0.3519 -0.3747
 6330TIP3    H140405   6.030   4.756  16.234 -1.3314  1.2339 -0.5842
 6330TIP3    H240406   6.014   4.609  16.202  0.3630  1.1607 -1.1677
 6331TIP3   OH240407   4.360   0.489   0.267  0.4409  0.2606 -0.2149
 6331TIP3    H140408   4.337   0.543   0.344  2.8052  1.7564 -0.4434
 6331TIP3    H240409   4.396   0.552   0.205  2.0397 -1.4229 -1.0574
 6332TIP3   OH240410   2.848   6.589  12.189  0.2828 -0.2364  0.2512
 6332TIP3    H140411   2.857   6.633  12.273  0.5540 -1.5541  0.9486
 6332TIP3    H240412   2.785   6.519  12.205 -0.1652 -0.1076 -0.8262
 6333TIP3   OH240413   1.384   5.585  16.151  0.7762 -1.0426  0.3207
 6333TIP3    H140414   1.308   5.612  16.100  1.5191 -0.2245 -0.3690
 6333TIP3    H240415   1.347   5.529  16.220 -0.7232  1.0196  1.3061
 6334TIP3   OH240416   2.244   3.416   0.663 -0.5413 -0.8085  0.0947
 6334TIP3    H140417   2.195   3.489   0.702  1.6196 -0.2066  1.9379
 6334TIP3    H240418   2.229   3.342   0.722  0.8451 -0.5454  0.8444
 6335TIP3   OH240419   5.672   3.340  17.211 -0.0455  0.0439  0.3997
 6335TIP3    H140420   5.619   3.419  17.225 -0.7977 -0.4578  0.4055
 6335TIP3    H240421   5.619   3.269  17.247 -0.0386 -0.6721 -0.9471
 6336TIP3   OH240422   3.809   5.029  11.849  0.1951  0.3881  0.2294
 6336TIP3    H140423   3.829   5.029  11.942 -0.3297 -0.3728  0.3633
 6336TIP3    H240424   3.811   4.936  11.825 -1.1537  0.4291 -0.1599
 6337TIP3   OH240425   5.463   5.554  14.723  0.4861 -0.4862 -0.1951
 6337TIP3    H140426   5.513   5.620  14.770 -2.0637  0.1381  1.8986
 6337TIP3    H240427   5.493   5.471  14.758  0.0037 -0.1196  1.1217
 6338TIP3   OH240428   4.354   0.595  11.197 -0.4805 -0.5000  0.1105
 6338TIP3    H140429   4.379   0.668  11.140  0.8011  0.0779  1.3450
 6338TIP3    H240430   4.434   0.543  11.206 -1.2080 -1.7178 -0.2230
 6339TIP3   OH240431   6.261   6.089  12.406 -0.1711  0.6682  0.3755
 6339TIP3    H140432   6.201   6.091  12.481 -0.3357  1.1616  0.2334
 6339TIP3    H240433   6.264   6.179  12.375 -1.8823  0.1275 -1.6092
 6340TIP3   OH240434   6.278   0.793  15.923 -0.3834 -0.9532  0.9723
 6340TIP3    H140435   6.231   0.817  16.003 -2.8766 -0.4812 -0.5194
 6340TIP3    H240436   6.292   0.875  15.877  0.5426 -1.2739  0.6555
 6341TIP3   OH240437   0.632   4.996   2.449  0.1080  0.1117 -0.1389
 6341TIP3    H140438   0.549   5.040   2.432 -0.2233 -0.2010  0.6363
 6341TIP3    H240439   0.682   5.007   2.368 -0.7265  0.2088 -0.6525
 6342TIP3   OH240440   3.934   0.485  16.010 -0.1347 -0.0645  0.1845
 6342TIP3    H140441   4.016   0.481  16.060  0.0454  3.2910  0.4011
 6342TIP3    H240442   3.939   0.412  15.949  1.6634 -1.6752  2.1114
 6343TIP3   OH240443   0.332   5.235  14.950  0.2837  0.2259 -0.2141
 6343TIP3    H140444   0.296   5.200  15.031  0.0711 -0.4856 -0.6021
 6343TIP3    H240445   0.331   5.161  14.889 -0.5133  1.0033 -1.1800
 6344TIP3   OH240446   0.726   0.366  14.607  0.1861 -0.2856 -0.3738
 6344TIP3    H140447   0.644   0.401  14.574 -0.6379 -1.5849  0.2352
 6344TIP3    H240448   0.780   0.355  14.529 -0.1891  0.5945 -0.7761
 6345TIP3   OH240449   5.756   1.241   1.731 -0.9024  0.0688  0.2322
 6345TIP3    H140450   5.740   1.171   1.668  0.7940  0.4228 -0.6267
 6345TIP3    H240451   5.770   1.195   1.814 -0.3268 -0.5868 -0.2197
 6346TIP3   OH240452   0.578   1.773  14.720 -0.3119  0.1315 -0.0773
 6346TIP3    H140453   0.560   1.813  14.805 -1.2600  1.6056 -0.9298
 6346TIP3    H240454   0.493   1.771  14.676 -0.0278 -1.5383 -0.6445
 6347TIP3   OH240455   2.235   6.346   5.405 -0.7407  0.2658  0.0127
 6347TIP3    H140456   2.297   6.358   5.334  1.5498 -0.2541  1.8075
 6347TIP3    H240457   2.207   6.255   5.398 -1.0331  0.3951 -0.5730
 6348TIP3   OH240458   3.898   4.789   1.817 -0.1455  0.6271 -0.4498
 6348TIP3    H140459   3.903   4.800   1.722 -1.7840  2.3940 -0.3957
 6348TIP3    H240460   3.977   4.832   1.851  0.0366  0.7003 -0.9659
 6349TIP3   OH240461   3.704   6.663  17.193  0.4360  0.2294 -0.0359
 6349TIP3    H140462   3.681   6.737  17.137 -0.0000 -0.4923 -0.8396
 6349TIP3    H240463   3.796   6.678  17.217  0.7778  0.3466 -1.3173
 6350TIP3   OH240464   0.177   5.816  11.370 -0.2829  0.3001 -0.1615
 6350TIP3    H140465   0.087   5.790  11.387  0.1653 -0.8656  0.5609
 6350TIP3    H240466   0.220   5.811  11.456  0.9478 -1.1919 -0.8201
 6351TIP3   OH240467   4.169   6.407   1.539  0.8412  0.2960  0.0955
 6351TIP3    H140468   4.261   6.432   1.532  1.1145 -0.5958  0.2724
 6351TIP3    H240469   4.134   6.462   1.609  1.0366  1.1653 -0.4769
 6352TIP3   OH240470   2.030   1.565   0.825 -0.4245  0.0574  0.0022
 6352TIP3    H140471   2.101   1.533   0.881 -3.0915 -3.3645  1.7513
 6352TIP3    H240472   1.981   1.626   0.881 -1.7503 -1.5968  0.7431
 6353TIP3   OH240473   3.208   2.067  12.264 -0.2106 -0.1651  0.1987
 6353TIP3    H140474   3.184   2.020  12.344 -1.5126  1.1419  0.6331
 6353TIP3    H240475   3.124   2.091  12.224  0.3127 -2.7150 -2.8365
 6354TIP3   OH240476   3.779   4.860   4.525 -0.0879  0.4278 -0.1596
 6354TIP3    H140477   3.801   4.951   4.504 -0.5331  0.5092 -0.2855
 6354TIP3    H240478   3.815   4.846   4.612  0.1121  0.6786 -0.2008
 6355TIP3   OH240479   0.555   5.279   4.177 -0.7216  0.0642 -0.2670
 6355TIP3    H140480   0.525   5.369   4.165  0.1934  0.4759  0.4051
 6355TIP3    H240481   0.480   5.225   4.153 -0.4465  0.9043 -3.4374
 6356TIP3   OH240482   6.151   2.106   2.865  0.0515 -0.1484  0.0229
 6356TIP3    H140483   6.151   2.185   2.811  0.6538  0.1274  0.4203
 6356TIP3    H240484   6.225   2.055   2.834 -1.0851 -1.1873 -1.1096
 6357TIP3   OH240485   5.809   0.663  11.075  0.6140  0.0503  0.3657
 6357TIP3    H140486   5.756   0.585  11.088 -0.4749  0.7094  0.1263
 6357TIP3    H240487   5.755   0.718  11.017  0.7439  1.5277  1.5773
 6358TIP3   OH240488   3.746   2.695   2.669  0.2564 -0.2145 -0.1154
 6358TIP3    H140489   3.660   2.731   2.692  0.9187  1.3347  0.0987
 6358TIP3    H240490   3.809   2.750   2.717  1.4872  0.4717 -2.3585
 6359TIP3   OH240491   0.000   2.107   5.028  0.2046  0.0394 -0.0942
 6359TIP3    H140492  -0.081   2.125   4.981 -0.6487 -1.0035  0.9122
 6359TIP3    H240493   0.050   2.189   5.024 -1.2468  0.9506 -0.0492
 6360TIP3   OH240494   3.386   0.973  12.158 -0.2938 -0.1223 -0.7539
 6360TIP3    H140495   3.393   1.066  12.178 -1.8766  0.0309 -0.7581
 6360TIP3    H240496   3.465   0.952  12.109 -0.4677  1.4918 -1.7836
 6361TIP3   OH240497   6.568   3.261  10.703 -0.0981  0.0131 -0.0107
 6361TIP3    H140498   6.519   3.280  10.782  0.7266 -1.3030  0.8585
 6361TIP3    H240499   6.659   3.280  10.725 -0.1150  2.4531 -1.6097
 6362TIP3   OH240500   4.085   0.303  10.267 -0.6376  0.0156 -0.3124
 6362TIP3    H140501   4.145   0.283  10.339 -0.6713 -0.1146 -0.3196
 6362TIP3    H240502   4.102   0.395  10.246 -2.7644  1.0515  1.9362
 6363TIP3   OH240503   4.157   2.228  16.185 -0.1673  0.1633  0.7067
 6363TIP3    H140504   4.168   2.263  16.273  3.5818 -1.3367  0.9948
 6363TIP3    H240505   4.147   2.133  16.197 -0.0959 -0.0127 -0.4411
 6364TIP3   OH240506   2.738   3.991  12.119 -0.5912 -0.6018 -0.3492
 6364TIP3    H140507   2.691   3.953  12.045 -1.4912  0.2838 -0.2488
 6364TIP3    H240508   2.829   3.994  12.091 -1.1495  1.4129 -2.1652
 6365TIP3   OH240509   4.543   6.522   5.028 -0.0451  0.5965 -0.2602
 6365TIP3    H140510   4.523   6.430   5.044  0.7670  0.4797  0.1393
 6365TIP3    H240511   4.474   6.570   5.074 -2.4637  0.2223 -3.1737
 6366TIP3   OH240512   4.984   6.476   3.861 -0.0396 -0.1871  0.1864
 6366TIP3    H140513   4.910   6.490   3.802 -2.0098 -0.7106  2.3983
 6366TIP3    H240514   4.969   6.390   3.898  0.5914  0.5041  2.1584
 6367TIP3   OH240515   3.272   4.247  12.255 -0.0371  0.5840  0.7945
 6367TIP3    H140516   3.362   4.272  12.273 -0.6156  3.2425  0.4351
 6367TIP3    H240517   3.237   4.220  12.340  1.3178 -1.5163  0.7471
 6368TIP3   OH240518   0.905   2.624  13.052 -0.5331  0.2438  0.0930
 6368TIP3    H140519   0.907   2.718  13.032 -0.3864  0.1918 -0.1548
 6368TIP3    H240520   0.842   2.588  12.989 -1.0070  0.2556  0.5562
 6369TIP3   OH240521   5.518   2.628   5.700  0.2546  0.2781  0.5603
 6369TIP3    H140522   5.546   2.541   5.728  1.3706 -0.0900 -1.5012
 6369TIP3    H240523   5.599   2.674   5.678 -0.3694  1.6085  0.8993
 6370TIP3   OH240524   6.310   3.110   4.543  0.8457  0.3062 -0.4168
 6370TIP3    H140525   6.397   3.083   4.575 -0.0475 -1.8202  0.4457
 6370TIP3    H240526   6.294   3.053   4.468 -0.1261  0.0921 -0.0598
 6371TIP3   OH240527   4.336   5.990   4.183 -0.7913 -0.0186  0.0369
 6371TIP3    H140528   4.323   5.912   4.130  3.4983 -0.9138 -0.1141
 6371TIP3    H240529   4.340   5.959   4.273 -2.6079  0.6586  0.3885
 6372TIP3   OH240530   5.386   6.348  16.756  0.2502  0.8339  0.3991
 6372TIP3    H140531   5.392   6.438  16.724 -2.5012  0.6679 -0.8261
 6372TIP3    H240532   5.466   6.336  16.807  1.9022  3.1460 -1.4207
 6373TIP3   OH240533   5.447   1.487  11.943 -0.3588  0.6811 -0.3698
 6373TIP3    H140534   5.517   1.490  11.878 -0.6266  2.0172 -0.6322
 6373TIP3    H240535   5.475   1.550  12.010 -0.1188 -0.6206  0.7896
 6374TIP3   OH240536   2.272   0.927   0.624 -0.9300 -0.4870  0.2948
 6374TIP3    H140537   2.286   0.841   0.663 -2.0831 -1.0315 -0.4344
 6374TIP3    H240538   2.186   0.954   0.657 -1.2672 -0.3174 -0.6860
 6375TIP3   OH240539   4.841   2.167  12.524 -0.1897 -0.1335 -0.3722
 6375TIP3    H140540   4.781   2.117  12.470 -0.4081 -1.8071  1.3310
 6375TIP3    H240541   4.806   2.256  12.523  0.1564  0.0869 -3.3837
 6376TIP3   OH240542   6.302   2.020  16.745 -0.2509  0.2753 -0.0317
 6376TIP3    H140543   6.369   2.038  16.811  0.0532  0.2951 -0.3438
 6376TIP3    H240544   6.294   1.924  16.746  1.2623  0.0900 -1.4182
 6377TIP3   OH240545   2.831   6.070   1.082 -0.3372 -0.0177  0.0916
 6377TIP3    H140546   2.797   5.982   1.102 -1.1494  0.4363  0.7725
 6377TIP3    H240547   2.921   6.054   1.055 -0.0938 -0.9772  1.3182
 6378TIP3   OH240548   5.349   6.311   5.414 -0.4493 -0.1327 -0.2732
 6378TIP3    H140549   5.325   6.220   5.399  1.7139 -0.8649  0.3621
 6378TIP3    H240550   5.323   6.328   5.505  2.3275 -1.3208  0.8425
 6379TIP3   OH240551   1.400   2.834   3.567  0.4062  0.0893  0.0765
 6379TIP3    H140552   1.341   2.863   3.638  2.4090 -0.2488  1.9940
 6379TIP3    H240553   1.365   2.876   3.489 -0.9708  1.8729  1.5338
 6380TIP3   OH240554   6.060   6.018  16.912  0.1503 -0.0464  0.1102
 6380TIP3    H140555   6.015   6.095  16.947 -0.0692  0.0736 -0.4304
 6380TIP3    H240556   6.038   6.017  16.819  0.3350 -0.6379  0.0679
 6381TIP3   OH240557   4.208   3.190   2.655  0.6503  0.1928  0.1505
 6381TIP3    H140558   4.191   3.096   2.662  1.1969  0.0505 -0.3203
 6381TIP3    H240559   4.150   3.230   2.720 -1.3273 -0.2678 -1.2305
 6382TIP3   OH240560   1.360   4.402   4.360 -0.2025 -0.2957  0.0871
 6382TIP3    H140561   1.316   4.408   4.445  0.0465 -0.6827  0.2466
 6382TIP3    H240562   1.289   4.394   4.297 -0.4763  1.7487  0.0658
 6383TIP3   OH240563   3.090   5.478  11.952 -0.5098  0.8846  0.3848
 6383TIP3    H140564   3.036   5.524  11.887 -2.1383 -1.2593  0.1179
 6383TIP3    H240565   3.152   5.428  11.900 -0.4239  0.8082  0.5604
 6384TIP3   OH240566   6.373   1.049  16.055  0.3845  0.3816 -0.5189
 6384TIP3    H140567   6.316   1.102  16.000 -0.2031  0.9116  0.5510
 6384TIP3    H240568   6.426   1.112  16.103  0.6696 -0.0520 -0.2551
 6385TIP3   OH240569   2.055   1.230  14.212 -0.2922 -1.2535 -0.4102
 6385TIP3    H140570   1.965   1.254  14.186 -1.2963 -2.9502  1.2669
 6385TIP3    H240571   2.071   1.280  14.292  0.1238 -1.2930 -0.4664
 6386TIP3   OH240572   2.659   0.688   2.654  0.2098  0.2047 -0.2489
 6386TIP3    H140573   2.745   0.730   2.649  0.3132 -0.0686 -0.8232
 6386TIP3    H240574   2.608   0.730   2.585 -0.4737  1.1428  0.7781
 6387TIP3   OH240575   0.325   4.307  10.687  0.5192  0.0862  0.0072
 6387TIP3    H140576   0.286   4.231  10.644  0.9590 -0.1020 -0.0685
 6387TIP3    H240577   0.285   4.383  10.644  0.3431 -0.1017 -0.1623
 6388TIP3   OH240578   1.029   4.433   4.869  0.1591 -0.1822  0.2817
 6388TIP3    H140579   1.010   4.497   4.800  0.5891 -2.0605 -1.6967
 6388TIP3    H240580   0.959   4.368   4.862 -0.1477 -0.1038  2.0991
 6389TIP3   OH240581   3.833   5.031   1.295 -0.2505  0.4858 -0.0907
 6389TIP3    H140582   3.906   4.973   1.276 -0.6200 -1.0631  2.6397
 6389TIP3    H240583   3.872   5.107   1.338 -0.1447 -0.1548  0.9944
 6390TIP3   OH240584   2.571   6.104   2.514  0.0265  0.1215  0.0595
 6390TIP3    H140585   2.650   6.099   2.461 -0.0554 -3.1824  0.0774
 6390TIP3    H240586   2.602   6.140   2.598  1.2781 -0.0702 -0.2912
 6391TIP3   OH240587   6.000   6.236  15.034  0.3098 -0.6134  0.3105
 6391TIP3    H140588   6.037   6.240  14.946  0.0365 -0.4070  0.2049
 6391TIP3    H240589   6.072   6.263  15.091 -0.1621  1.4758 -0.0214
 6392TIP3   OH240590   5.516   5.741   2.078 -0.0911 -0.1149  0.9392
 6392TIP3    H140591   5.553   5.719   2.163 -2.4666  3.2600  3.0918
 6392TIP3    H240592   5.572   5.811   2.044  0.8849 -1.4870 -0.3925
 6393TIP3   OH240593   4.047   1.463   0.987 -0.0999  0.3227 -0.1767
 6393TIP3    H140594   4.094   1.429   1.063 -0.4674 -2.3346 -1.0698
 6393TIP3    H240595   4.094   1.543   0.964  2.1201 -0.6360  0.7675
 6394TIP3   OH240596   3.788   4.913   2.104  0.5181 -0.7754  0.2901
 6394TIP3    H140597   3.747   4.880   2.184  0.9909 -0.8336  0.5084
 6394TIP3    H240598   3.863   4.856   2.090  1.1816  0.0204  0.5169
 6395TIP3   OH240599   2.451   5.331  13.722  0.6966  0.7846  0.4471
 6395TIP3    H140600   2.427   5.386  13.796  3.1578  1.8275  0.5733
 6395TIP3    H240601   2.539   5.360  13.698  1.3592 -1.8580 -0.6982
 6396TIP3   OH240602   1.381   2.574   2.505 -0.0890 -0.2524  0.1140
 6396TIP3    H140603   1.321   2.645   2.485 -0.4966 -0.8690 -0.8995
 6396TIP3    H240604   1.425   2.555   2.422 -0.6226 -1.7686  0.1559
 6397TIP3   OH240605   5.082   3.760   2.619  0.1220  0.1065 -0.0440
 6397TIP3    H140606   5.177   3.774   2.629  0.7755 -3.3136 -0.2513
 6397TIP3    H240607   5.054   3.723   2.702 -0.3003 -1.8273 -0.9736
 6398TIP3   OH240608   2.148   6.615   0.567  0.0639 -0.2362 -0.1134
 6398TIP3    H140609   2.227   6.594   0.618  0.5873  1.8071 -0.0107
 6398TIP3    H240610   2.136   6.539   0.510  0.5671 -1.7664  1.6917
 6399TIP3   OH240611   0.942   0.252   4.683  0.1445  0.1734  0.1969
 6399TIP3    H140612   1.017   0.308   4.702  1.3844 -1.4852  0.4497
 6399TIP3    H240613   0.963   0.211   4.599  0.1502 -1.2528  0.8610
 6400TIP3   OH240614   5.155   6.779  10.373  0.0686  0.3294  1.1240
 6400TIP3    H140615   5.115   6.842  10.314  0.0899  1.0504  1.8561
 6400TIP3    H240616   5.171   6.828  10.454  0.4481 -0.5087  1.5789
 6401TIP3   OH240617   0.904   2.884  15.482  0.0644 -0.1009  0.2288
 6401TIP3    H140618   0.956   2.842  15.549 -0.2747  1.4687  1.5535
 6401TIP3    H240619   0.952   2.964  15.460 -1.0519  0.6809  0.4893
 6402TIP3   OH240620   5.347   4.620  13.072  0.2317  0.0161  0.3847
 6402TIP3    H140621   5.263   4.612  13.027  0.7451  1.0774 -0.8297
 6402TIP3    H240622   5.356   4.714  13.089  0.8313 -0.1770  1.1962
 6403TIP3   OH240623   4.637   5.420  11.132 -0.2027 -0.4014 -0.1334
 6403TIP3    H140624   4.632   5.455  11.221  0.2309 -1.6405  0.4035
 6403TIP3    H240625   4.555   5.374  11.120 -0.1975 -0.3602 -0.3243
 6404TIP3   OH240626   4.011   1.954  10.591 -0.0518  0.2560  0.4902
 6404TIP3    H140627   4.087   1.919  10.544 -0.2519  1.3596 -0.7104
 6404TIP3    H240628   4.008   2.046  10.566 -2.6420 -0.0705 -0.6854
 6405TIP3   OH240629   4.921   3.168   2.205  0.3403  0.2794 -0.3918
 6405TIP3    H140630   4.988   3.213   2.154  0.4051  0.1460 -0.4241
 6405TIP3    H240631   4.885   3.235   2.262  0.3336  0.4069 -0.5462
 6406TIP3   OH240632   2.360   4.263   3.533  0.3344 -0.7433  0.0001
 6406TIP3    H140633   2.358   4.261   3.437 -1.3480  0.8599 -0.0525
 6406TIP3    H240634   2.313   4.343   3.556  1.5717 -0.5654  2.1650
 6407TIP3   OH240635   1.679   3.597   1.984  0.2855 -0.1954 -0.2585
 6407TIP3    H140636   1.727   3.514   1.992  1.5013  0.4924 -0.2583
 6407TIP3    H240637   1.739   3.656   1.939  1.2499  2.0863  3.6070
 6408TIP3   OH240638   3.363   3.254  16.751 -0.2723 -0.3182  0.1991
 6408TIP3    H140639   3.356   3.239  16.845 -1.4538 -0.1935  0.1485
 6408TIP3    H240640   3.457   3.260  16.734 -0.0537 -0.1551  1.3989
 6409TIP3   OH240641   6.251   6.516  15.635  0.0858  0.6430 -0.7930
 6409TIP3    H140642   6.273   6.606  15.615  0.5074  0.3729 -1.5727
 6409TIP3    H240643   6.260   6.469  15.552  2.3080 -0.5832  0.0440
 6410TIP3   OH240644   3.177   3.196   4.165 -0.3360 -0.2829  0.3012
 6410TIP3    H140645   3.115   3.209   4.237 -0.5885  0.0932  0.0153
 6410TIP3    H240646   3.125   3.157   4.095 -0.6063  1.4132 -0.4885
 6411TIP3   OH240647   5.166   0.020   2.249 -0.2506 -0.1774  0.1211
 6411TIP3    H140648   5.124  -0.009   2.168 -0.5343  2.3716 -0.7196
 6411TIP3    H240649   5.258   0.035   2.225 -0.0120 -0.6952  0.6520
 6412TIP3   OH240650   1.125   1.803   5.482  0.7241  0.2386  0.4584
 6412TIP3    H140651   1.203   1.796   5.537  0.9122 -0.4030  0.1192
 6412TIP3    H240652   1.145   1.873   5.421  0.5008  0.9841  1.2127
 6413TIP3   OH240653   2.594   1.455  13.857  0.3651  0.1082 -0.4057
 6413TIP3    H140654   2.662   1.518  13.882 -1.6039  1.9029  0.8541
 6413TIP3    H240655   2.523   1.510  13.824  0.0697 -1.7983 -3.2480
 6414TIP3   OH240656   0.845   6.325  13.411  0.2706  0.0934 -0.0787
 6414TIP3    H140657   0.843   6.246  13.465  2.5590  0.5818  0.8188
 6414TIP3    H240658   0.834   6.397  13.474  1.4784  0.6144 -0.4446
 6415TIP3   OH240659   6.084   1.071  11.590  0.4112  0.2256  0.6169
 6415TIP3    H140660   6.071   1.028  11.505  1.8772  0.9039  0.0211
 6415TIP3    H240661   6.015   1.137  11.594 -0.1500 -0.3266  0.3122
 6416TIP3   OH240662   0.162   3.831  16.961 -0.1892  0.0708  0.1736
 6416TIP3    H140663   0.124   3.809  17.046  0.0762 -0.9593  0.0355
 6416TIP3    H240664   0.101   3.795  16.897 -0.0290  0.2226 -0.0693
 6417TIP3   OH240665   3.739   2.309  16.076  0.2126  0.4352  0.4031
 6417TIP3    H140666   3.760   2.216  16.062  1.1659  0.7050 -0.0182
 6417TIP3    H240667   3.717   2.314  16.169 -1.3266 -0.4756  0.1303
 6418TIP3   OH240668   6.390   5.238   0.372 -0.0862  0.6464 -0.0571
 6418TIP3    H140669   6.325   5.273   0.311 -1.0410 -2.1028 -0.7911
 6418TIP3    H240670   6.391   5.299   0.445 -1.1057  2.4763 -1.4975
 6419TIP3   OH240671   2.396   6.137   1.175  0.1253 -0.2260  0.4273
 6419TIP3    H140672   2.430   6.221   1.206 -1.6080  1.8004 -2.5513
 6419TIP3    H240673   2.302   6.141   1.193 -0.1750 -0.9386 -0.8390
 6420TIP3   OH240674   6.585   3.989  16.342  0.0486 -0.2364  0.1793
 6420TIP3    H140675   6.563   3.896  16.341  1.1168 -0.5129 -1.2115
 6420TIP3    H240676   6.534   4.026  16.415 -2.1456 -1.4740 -0.6336
 6421TIP3   OH240677   3.084   6.355  17.221  1.2245 -0.2255  0.6246
 6421TIP3    H140678   3.120   6.356  17.309  0.6212  1.2160  0.8805
 6421TIP3    H240679   3.119   6.434  17.180  1.6216 -0.9577 -0.4951
 6422TIP3   OH240680   2.421   4.142  14.271 -0.3497  0.1306  0.2221
 6422TIP3    H140681   2.482   4.074  14.241  0.2296  0.0943  1.4311
 6422TIP3    H240682   2.363   4.156  14.197 -0.5497 -1.7712 -0.0360
 6423TIP3   OH240683   0.289   4.719   5.953 -0.1469 -0.5582 -0.3626
 6423TIP3    H140684   0.345   4.665   6.009  0.5126  1.5710  1.1355
 6423TIP3    H240685   0.325   4.808   5.961 -2.2700  0.4545 -1.3061
 6424TIP3   OH240686   2.435   6.661  11.907  0.7773 -0.0358 -0.2323
 6424TIP3    H140687   2.399   6.732  11.959 -0.5287 -0.2506 -0.8108
 6424TIP3    H240688   2.513   6.699  11.865 -0.6706  1.5461 -1.6655
 6425TIP3   OH240689   6.006   2.802   0.106  0.3423  0.1864 -0.5775
 6425TIP3    H140690   6.078   2.849   0.063  1.2186 -1.1738 -0.6516
 6425TIP3    H240691   5.937   2.798   0.040 -0.7565  3.4630  0.2064
 6426TIP3   OH240692   3.280   1.809   1.208  0.8695  0.0068  0.1210
 6426TIP3    H140693   3.217   1.866   1.253 -1.1318 -1.5992 -0.4830
 6426TIP3    H240694   3.296   1.853   1.124  2.0948  1.3771  1.0217
 6427TIP3   OH240695   5.754   6.474   3.870  0.5165  0.3900  0.1248
 6427TIP3    H140696   5.792   6.451   3.955  1.2760 -1.1536 -0.5963
 6427TIP3    H240697   5.677   6.418   3.863  0.3965  0.5912 -0.1592
 6428TIP3   OH240698   1.223   5.805   1.401  0.5860  0.0591  0.5420
 6428TIP3    H140699   1.227   5.876   1.337 -0.6222 -0.4626 -0.1524
 6428TIP3    H240700   1.146   5.825   1.454 -0.3598 -1.2264 -0.2979
 6429TIP3   OH240701   2.452   3.834   0.250 -0.0602 -0.1132 -0.0437
 6429TIP3    H140702   2.384   3.810   0.312 -0.6281 -0.8155 -0.9212
 6429TIP3    H240703   2.521   3.769   0.264  0.5317  0.6916  0.9547
 6430TIP3   OH240704   5.933   0.427   2.234  0.2234  0.0751  0.3608
 6430TIP3    H140705   5.924   0.501   2.292  2.7325 -0.5695  1.7385
 6430TIP3    H240706   5.876   0.359   2.271 -1.2014  0.8922 -0.2599
 6431TIP3   OH240707   5.991   0.958  11.291  0.8229  0.1367  0.3065
 6431TIP3    H140708   5.963   0.880  11.244  0.1934  1.0816 -0.9356
 6431TIP3    H240709   5.913   0.989  11.337  0.8049  0.6174 -0.0449
 6432TIP3   OH240710   2.161   4.087   5.937  0.0087  0.4445 -0.9370
 6432TIP3    H140711   2.101   4.092   6.012 -2.2200  0.7181 -2.6156
 6432TIP3    H240712   2.208   4.170   5.937 -1.2292  1.1642 -0.8145
 6433TIP3   OH240713   0.055   1.314  13.157 -0.5549 -0.4478  0.1401
 6433TIP3    H140714   0.124   1.293  13.095 -1.9297 -0.5743 -1.3948
 6433TIP3    H240715   0.102   1.346  13.234  1.2139 -0.7655 -0.7480
 6434TIP3   OH240716   4.204   4.205  10.980 -0.1116  0.4103 -0.0038
 6434TIP3    H140717   4.161   4.269  11.036 -0.1038 -1.3288  2.1588
 6434TIP3    H240718   4.134   4.170  10.925  0.0740  2.8911 -1.9736
 6435TIP3   OH240719   5.513   5.926  10.814  0.0279  0.3415 -0.0922
 6435TIP3    H140720   5.595   5.927  10.766  0.1078 -0.7187  0.0002
 6435TIP3    H240721   5.459   5.992  10.771  0.2609 -0.2604 -1.3471
 6436TIP3   OH240722   4.129   1.704  16.089 -0.7482  0.1615  0.3414
 6436TIP3    H140723   4.132   1.680  15.997 -0.9215 -1.3109  0.7042
 6436TIP3    H240724   4.113   1.622  16.135  1.2090  0.5483  1.8335
 6437TIP3   OH240725   3.930   2.747  12.359 -0.1406 -0.0367  0.2351
 6437TIP3    H140726   3.883   2.811  12.305  0.1858 -0.8028 -0.9710
 6437TIP3    H240727   4.011   2.730  12.313  0.3910 -0.3305  1.2376
 6438TIP3   OH240728   3.703   3.900  16.477 -0.2227 -0.3514 -0.0901
 6438TIP3    H140729   3.656   3.886  16.559  1.1194 -0.9909  0.6049
 6438TIP3    H240730   3.680   3.824  16.423 -0.2267 -0.5128  0.1341
 6439TIP3   OH240731   2.085   6.430   2.336  0.4466  0.0097 -0.4564
 6439TIP3    H140732   2.081   6.454   2.428  3.4508  0.7436 -0.4380
 6439TIP3    H240733   2.033   6.497   2.291 -1.2005 -0.4606  0.6454
 6440TIP3   OH240734   0.691   6.307   5.898 -0.6567  0.0422 -0.1698
 6440TIP3    H140735   0.610   6.258   5.915  1.1502 -3.0191  0.2241
 6440TIP3    H240736   0.745   6.292   5.975  0.9631  0.6072 -1.1438
 6441TIP3   OH240737   1.338   4.151   0.200  0.0398  0.7192 -0.2859
 6441TIP3    H140738   1.277   4.112   0.136  1.1182 -1.1334 -0.2640
 6441TIP3    H240739   1.343   4.085   0.270  0.9389  1.5171  0.4170
 6442TIP3   OH240740   0.935   6.344   2.262 -0.6428  0.5804 -0.5212
 6442TIP3    H140741   0.843   6.370   2.270  0.1599  3.1571  3.0530
 6442TIP3    H240742   0.976   6.416   2.214 -0.4914 -0.8096 -2.5680
 6443TIP3   OH240743   5.418   1.787  13.410  0.2538  0.1191 -0.3719
 6443TIP3    H140744   5.491   1.780  13.471 -0.3541 -1.9051  0.1887
 6443TIP3    H240745   5.365   1.710  13.427 -2.2432  1.6986 -0.5107
 6444TIP3   OH240746   4.246   0.300   2.080  0.2873  0.4816 -0.0170
 6444TIP3    H140747   4.172   0.271   2.026 -0.0174  0.0977  0.5974
 6444TIP3    H240748   4.260   0.391   2.054 -0.7768  0.7394  0.2564
 6445TIP3   OH240749   3.833   6.729  14.948 -0.0733  0.0777  0.0645
 6445TIP3    H140750   3.778   6.728  14.870  0.6508 -0.2064 -0.4622
 6445TIP3    H240751   3.772   6.729  15.021 -0.7656 -0.2396 -0.4996
 6446TIP3   OH240752   3.482   3.634  15.297  0.2066 -0.1349  0.8161
 6446TIP3    H140753   3.497   3.683  15.378  0.2213 -2.1282  2.1095
 6446TIP3    H240754   3.477   3.542  15.326  1.6464 -1.0825 -1.6030
 6447TIP3   OH240755   2.704   4.735  11.706  0.2191  0.3398 -0.7438
 6447TIP3    H140756   2.679   4.748  11.798 -1.9753 -0.3266 -1.1972
 6447TIP3    H240757   2.784   4.684  11.711  1.7419  2.6366  0.8072
 6448TIP3   OH240758   4.147   1.272  17.193  0.0803  0.6697 -0.6672
 6448TIP3    H140759   4.186   1.327  17.125 -1.5014  1.5810 -0.8991
 6448TIP3    H240760   4.187   1.302  17.275  2.4946 -0.8833 -1.1883
 6449TIP3   OH240761   2.395   3.750   4.147  0.4055  0.4952 -0.5765
 6449TIP3    H140762   2.440   3.666   4.142 -0.7777 -0.1997  0.1342
 6449TIP3    H240763   2.347   3.757   4.065  0.0237  0.1880 -0.3823
 6450TIP3   OH240764   6.247   6.689  12.859 -0.2975 -0.4190  0.1829
 6450TIP3    H140765   6.266   6.597  12.842  1.1126 -0.1543  0.2055
 6450TIP3    H240766   6.202   6.689  12.943 -1.1710 -1.1571 -0.2706
 6451TIP3   OH240767   6.195   6.459  16.796 -0.3609 -0.1919 -0.1299
 6451TIP3    H140768   6.101   6.454  16.778 -0.2694  0.5976 -0.9649
 6451TIP3    H240769   6.236   6.427  16.715  0.0787  0.0590 -0.0104
 6452TIP3   OH240770   3.836   2.681   3.339 -0.0075  0.5933  0.4896
 6452TIP3    H140771   3.802   2.603   3.297  1.7745 -0.1234  0.3090
 6452TIP3    H240772   3.823   2.751   3.275  0.3073  0.0303 -0.1944
 6453TIP3   OH240773   0.853   4.353   6.325  0.3335 -0.2122 -0.1482
 6453TIP3    H140774   0.771   4.334   6.370  0.4419  1.4431  0.8534
 6453TIP3    H240775   0.910   4.279   6.346 -0.9571 -1.5086 -1.0876
 6454TIP3   OH240776   0.436   3.321  13.444 -0.6414  0.3465  0.1992
 6454TIP3    H140777   0.461   3.259  13.512  0.9053  0.8676  0.1342
 6454TIP3    H240778   0.504   3.388  13.446  0.4915 -0.5198 -3.0161
 6455TIP3   OH240779   4.004   2.108  11.396 -0.3513  0.0281 -0.1106
 6455TIP3    H140780   4.025   2.121  11.304  0.6270  2.9481  0.4176
 6455TIP3    H240781   4.084   2.072  11.434 -0.4658 -0.3870 -0.2675
 6456TIP3   OH240782   6.138   5.773   4.486  0.0429  0.4447 -0.1188
 6456TIP3    H140783   6.231   5.792   4.500  0.5035 -0.6480 -1.4525
 6456TIP3    H240784   6.108   5.842   4.427  0.4998 -0.2029 -1.1438
 6457TIP3   OH240785   3.970   6.735  10.612  0.4949  0.6049  0.2121
 6457TIP3    H140786   3.938   6.767  10.527  0.1139  1.5156  0.6880
 6457TIP3    H240787   3.896   6.745  10.671  0.4602 -0.9151  0.4533
 6458TIP3   OH240788   5.390   1.970   4.283  0.8839 -0.0655  0.0757
 6458TIP3    H140789   5.409   2.032   4.354  2.2244  0.3483 -0.6006
 6458TIP3    H240790   5.333   1.905   4.323 -1.6832  2.2456  0.5160
 6459TIP3   OH240791   3.748   4.067   2.608 -0.3423 -0.0261 -0.0998
 6459TIP3    H140792   3.713   3.990   2.652 -1.7375  1.0407  0.7482
 6459TIP3    H240793   3.833   4.082   2.650 -0.4535 -0.5876  0.3451
 6460TIP3   OH240794   1.719   1.805   5.610  0.0821 -0.4399 -0.9384
 6460TIP3    H140795   1.707   1.823   5.703 -0.1713  0.1027 -1.0705
 6460TIP3    H240796   1.810   1.776   5.602  1.5335  3.5485 -1.0741
 6461TIP3   OH240797   0.819   4.488   4.350 -0.3386 -0.3576 -0.2467
 6461TIP3    H140798   0.896   4.543   4.338 -0.0817 -0.7422 -0.4074
 6461TIP3    H240799   0.758   4.516   4.282 -0.0007 -0.6204 -0.6709
 6462TIP3   OH240800   3.327   5.707   2.472 -0.4892  0.1651  0.0229
 6462TIP3    H140801   3.418   5.685   2.452 -0.2680  0.8957  0.1764
 6462TIP3    H240802   3.284   5.623   2.486  0.3081 -0.1632  0.5745
 6463TIP3   OH240803   0.572   4.954   6.221  0.3785 -0.6219 -0.0106
 6463TIP3    H140804   0.521   4.916   6.293 -0.2917 -2.5896 -1.4352
 6463TIP3    H240805   0.514   4.949   6.145  1.4744  0.3304 -0.9485
 6464TIP3   OH240806   1.175   0.928  16.758  1.0424 -0.1299 -0.4345
 6464TIP3    H140807   1.180   0.836  16.783 -0.6244 -0.0370  0.4108
 6464TIP3    H240808   1.192   0.975  16.840  1.2130  0.3126 -0.7210
 6465TIP3   OH240809   3.329   6.312   2.137 -0.1755 -0.4838  1.0221
 6465TIP3    H140810   3.414   6.282   2.105  0.1875  0.5594  0.9377
 6465TIP3    H240811   3.273   6.313   2.060  0.6509  1.8714  0.3511
 6466TIP3   OH240812   6.478   0.479   1.873 -0.3535  0.6055 -0.1624
 6466TIP3    H140813   6.485   0.477   1.777  1.3714 -0.2887 -0.0610
 6466TIP3    H240814   6.566   0.504   1.903 -0.9457  1.1668  1.1968
 6467TIP3   OH240815   6.148   4.116  12.161 -0.0624  0.2766  0.0562
 6467TIP3    H140816   6.213   4.046  12.171 -0.3334  0.1251  0.8387
 6467TIP3    H240817   6.190   4.193  12.198 -1.4367 -0.5041  3.5869
 6468TIP3   OH240818   0.623   1.214  12.779 -0.1197 -0.3318  0.3702
 6468TIP3    H140819   0.576   1.157  12.717 -1.0133  0.8855 -0.1223
 6468TIP3    H240820   0.676   1.155  12.831  0.4466 -1.4418 -1.3842
 6469TIP3   OH240821   5.838   3.079   5.962 -0.4198 -0.3065 -0.1939
 6469TIP3    H140822   5.845   3.153   6.023  1.1497 -0.9155  0.4229
 6469TIP3    H240823   5.744   3.064   5.953 -0.7288  0.8338  0.7918
 6470TIP3   OH240824   1.077   2.770  15.309  0.2162 -0.4466  0.4422
 6470TIP3    H140825   1.167   2.790  15.332  0.1037  0.5483  0.0614
 6470TIP3    H240826   1.027   2.846  15.338 -0.3043 -0.3933 -0.5455
 6471TIP3   OH240827   6.733   6.626  13.993 -0.1021  0.1821  0.0775
 6471TIP3    H140828   6.667   6.647  13.927 -0.3591  0.7937  0.5209
 6471TIP3    H240829   6.729   6.531  14.001  1.5619 -0.2211 -2.4810
 6472TIP3   OH240830   3.627   2.291  13.237  0.5549  0.0693  0.1805
 6472TIP3    H140831   3.532   2.304  13.244  0.6824  0.4095  1.6769
 6472TIP3    H240832   3.640   2.198  13.256  0.3858 -0.4342 -1.9481
 6473TIP3   OH240833   4.209   2.768   3.014  0.0622 -0.8288 -0.1619
 6473TIP3    H140834   4.191   2.841   3.073 -0.4447  0.0545 -1.3821
 6473TIP3    H240835   4.234   2.696   3.073 -1.9409 -0.4599  1.2594
 6474TIP3   OH240836   5.526   5.016  16.441 -0.4183  0.2255  0.0446
 6474TIP3    H140837   5.601   5.059  16.401 -0.2810 -0.8134 -0.9039
 6474TIP3    H240838   5.507   4.943  16.381 -0.5517 -1.0835  1.6212
 6475TIP3   OH240839   5.453   4.509  12.356  0.1593 -0.0028  0.2072
 6475TIP3    H140840   5.393   4.576  12.387 -0.7368 -0.3656 -0.7115
 6475TIP3    H240841   5.432   4.498  12.264  0.7860 -1.0339  0.1726
 6476TIP3   OH240842   5.706   3.980  15.189 -0.4250 -0.0266  1.0679
 6476TIP3    H140843   5.683   3.927  15.112 -0.8954  1.1617  0.3598
 6476TIP3    H240844   5.648   4.056  15.183  1.1645  1.2438  1.2813
 6477TIP3   OH240845   0.781   2.382  17.060  0.5031 -0.5855 -0.0802
 6477TIP3    H140846   0.728   2.353  16.987 -0.1838 -0.6377  0.4312
 6477TIP3    H240847   0.870   2.354  17.038  0.2162 -1.0689 -0.6408
 6478TIP3   OH240848   5.789   4.971   5.742 -0.2440  0.3088  0.0260
 6478TIP3    H140849   5.764   4.960   5.834 -0.3958 -0.0972 -0.0611
 6478TIP3    H240850   5.850   4.900   5.725 -1.2834 -0.4682 -0.5609
 6479TIP3   OH240851   2.411   0.320   3.676 -0.0896  0.1563 -0.2727
 6479TIP3    H140852   2.318   0.316   3.700  0.0698  0.9616  0.5598
 6479TIP3    H240853   2.413   0.301   3.582 -1.0311 -0.4602 -0.1808
 6480TIP3   OH240854   5.904   4.558   1.913  0.1430  0.1590 -0.0974
 6480TIP3    H140855   5.872   4.622   1.977 -1.0063 -0.6356  0.1575
 6480TIP3    H240856   5.827   4.538   1.859  0.5930 -0.6681 -0.4502
 6481TIP3   OH240857   0.719   5.710   1.948  0.0290  0.3888  0.1020
 6481TIP3    H140858   0.704   5.772   2.019 -0.1625  2.9308 -1.9869
 6481TIP3    H240859   0.796   5.661   1.975 -1.2419 -0.2730  2.9531
 6482TIP3   OH240860   3.474   4.858  11.675 -0.3389 -0.3762 -0.3547
 6482TIP3    H140861   3.416   4.910  11.731 -1.2159 -1.1659 -0.5013
 6482TIP3    H240862   3.562   4.889  11.695 -0.9050  2.0898 -1.3962
 6483TIP3   OH240863   1.542   0.325   4.030  0.0458  0.3463  0.0554
 6483TIP3    H140864   1.637   0.330   4.014 -0.2166  1.1507 -1.4597
 6483TIP3    H240865   1.504   0.379   3.961 -1.5940 -0.8644 -0.0261
 6484TIP3   OH240866   6.013   1.619  16.740  0.2762 -0.0408 -0.2947
 6484TIP3    H140867   6.016   1.611  16.835  0.6396  1.9391 -0.0937
 6484TIP3    H240868   5.949   1.688  16.724 -0.9187 -1.3901 -1.6056
 6485TIP3   OH240869   2.890   3.135   2.995  0.3231  0.1486 -0.5827
 6485TIP3    H140870   2.837   3.068   3.038  0.1229 -0.0488 -1.1323
 6485TIP3    H240871   2.833   3.170   2.926 -0.2149  2.0464  0.7274
 6486TIP3   OH240872   1.375   0.532  13.264  0.5663  0.1980  0.3747
 6486TIP3    H140873   1.414   0.450  13.294 -0.7827 -0.6975 -0.2069
 6486TIP3    H240874   1.409   0.544  13.175  1.0343  0.4534  0.5886
 6487TIP3   OH240875   3.615   0.495  14.023 -0.1876  0.9080 -0.7704
 6487TIP3    H140876   3.562   0.563  13.982 -1.9016 -0.2813 -0.6509
 6487TIP3    H240877   3.583   0.492  14.114  0.4675  0.5257 -0.5493
 6488TIP3   OH240878   6.131   6.330   4.660 -0.6361 -0.0476 -0.5822
 6488TIP3    H140879   6.152   6.251   4.610 -1.7850 -1.2594  0.7523
 6488TIP3    H240880   6.208   6.345   4.715 -0.5939 -0.5155 -0.5106
 6489TIP3   OH240881   0.587   3.346   2.224 -0.3593 -0.1847  0.3543
 6489TIP3    H140882   0.679   3.358   2.201  0.9546  0.0266  4.7867
 6489TIP3    H240883   0.563   3.263   2.182  2.4880 -1.2599  0.6359
 6490TIP3   OH240884   3.388   6.107   0.518 -0.4470  0.7286 -0.4967
 6490TIP3    H140885   3.454   6.044   0.547 -1.9958 -1.2063 -0.9643
 6490TIP3    H240886   3.397   6.109   0.422  0.0992  1.8594 -0.4436
 6491TIP3   OH240887   4.040   3.653   6.239  0.3803  0.5359  0.0734
 6491TIP3    H140888   3.967   3.598   6.268  0.6401  0.3870  0.4478
 6491TIP3    H240889   4.098   3.659   6.315  1.2790 -0.2071 -0.5164
 6492TIP3   OH240890   0.451   6.272   5.517  0.2009  0.0499  0.5940
 6492TIP3    H140891   0.462   6.235   5.429 -1.6215  0.9239 -0.0454
 6492TIP3    H240892   0.536   6.258   5.559  1.4472  0.4793 -1.6161
 6493TIP3   OH240893   6.267   4.925  14.625 -0.1370 -0.5707  0.0770
 6493TIP3    H140894   6.270   5.008  14.577 -3.0983 -0.2570  0.2741
 6493TIP3    H240895   6.349   4.881  14.601  1.1576  2.0078 -0.6877
 6494TIP3   OH240896   5.949   1.333  12.652  0.0628  0.1035  0.1781
 6494TIP3    H140897   5.990   1.383  12.581 -2.2685 -0.3580 -1.6149
 6494TIP3    H240898   5.889   1.394  12.694 -0.1958 -0.2223  0.2901
 6495TIP3   OH240899   4.016   0.773  14.663 -0.0223 -0.2931  0.0527
 6495TIP3    H140900   4.070   0.705  14.704 -0.0185 -2.0142 -2.5731
 6495TIP3    H240901   3.927   0.753  14.692  0.1484 -0.5339  0.4251
 6496TIP3   OH240902   0.937   5.607   1.398 -0.0548  0.5750  0.0082
 6496TIP3    H140903   0.843   5.611   1.415  0.0132  0.7114  0.3635
 6496TIP3    H240904   0.952   5.672   1.330 -0.2026  0.6202  0.0171
 6497TIP3   OH240905   3.644   3.190   5.286 -0.1914  0.1628 -0.2041
 6497TIP3    H140906   3.678   3.246   5.355 -1.1330  0.7929 -0.2328
 6497TIP3    H240907   3.653   3.241   5.206  0.7290 -0.4943 -0.5463
 6498TIP3   OH240908   6.325   0.320  13.882 -0.7253  0.3910  0.0088
 6498TIP3    H140909   6.324   0.349  13.973  0.4385  0.7011 -0.0671
 6498TIP3    H240910   6.366   0.234  13.884  0.8868  1.1133 -0.4000
 6499TIP3   OH240911   1.105   3.018   2.937  0.3190 -0.4025  0.2836
 6499TIP3    H140912   1.029   2.980   2.893  0.2689  0.0360 -0.0243
 6499TIP3    H240913   1.100   2.985   3.026  0.1642 -0.9424  0.0817
 6500TIP3   OH240914   3.209   2.293   1.367  0.3128 -0.0933 -0.2253
 6500TIP3    H140915   3.216   2.332   1.280  0.2318  0.6793  0.1060
 6500TIP3    H240916   3.281   2.230   1.371  0.0203 -0.4961 -1.0235
 6501TIP3   OH240917   4.016   1.245  14.501 -0.6471 -0.2937 -0.5931
 6501TIP3    H140918   4.037   1.175  14.562  0.5943 -1.2879 -2.0928
 6501TIP3    H240919   4.087   1.244  14.438  0.2418  3.3353  0.1393
 6502TIP3   OH240920   2.542   2.313   4.325 -0.1865 -0.0691 -0.9110
 6502TIP3    H140921   2.617   2.256   4.308  0.4270  0.3418  0.3151
 6502TIP3    H240922   2.486   2.303   4.248  0.0377 -2.0997 -0.8562
 6503TIP3   OH240923   0.441   5.989   6.173  0.1214 -0.4532 -0.4317
 6503TIP3    H140924   0.451   6.073   6.128  1.5603 -0.4483 -0.1740
 6503TIP3    H240925   0.522   5.942   6.152  0.6734 -0.6061  1.7866
 6504TIP3   OH240926   5.042   0.477  16.150  0.4022  0.1810  0.0407
 6504TIP3    H140927   5.063   0.384  16.161  1.5008  0.4842  0.6684
 6504TIP3    H240928   5.018   0.506  16.238  1.2562  0.7569  0.0989
 6505TIP3   OH240929   0.169   6.074  11.855  0.4086 -0.1453 -0.2353
 6505TIP3    H140930   0.087   6.096  11.810  0.9349  1.0500 -0.6421
 6505TIP3    H240931   0.159   6.109  11.943  0.2901 -0.4537 -0.1232
 6506TIP3   OH240932   4.266   4.264   0.577  0.4712 -0.6024  0.0141
 6506TIP3    H140933   4.335   4.291   0.638  0.7069 -1.7080  0.2730
 6506TIP3    H240934   4.267   4.330   0.508  0.4547  0.4675  1.0097
 6507TIP3   OH240935   1.686   2.192  11.871 -0.4970 -0.0572  0.2874
 6507TIP3    H140936   1.678   2.178  11.965 -0.6427 -1.0416  0.1380
 6507TIP3    H240937   1.652   2.280  11.857  2.4074  1.3966  1.5520
 6508TIP3   OH240938   3.969   5.610   2.754 -0.7246 -0.4587  0.2383
 6508TIP3    H140939   3.915   5.687   2.775 -1.7812 -0.6456 -1.6426
 6508TIP3    H240940   4.049   5.624   2.805 -2.0590  0.3782  2.2608
 6509TIP3   OH240941   3.435   2.583  16.559  0.9803  0.6289 -0.2760
 6509TIP3    H140942   3.393   2.623  16.636  2.9625  1.6622  0.3475
 6509TIP3    H240943   3.486   2.511  16.595 -0.7817 -1.1199 -1.1215
 6510TIP3   OH240944   1.122   4.182  12.387 -0.3920  0.1918  0.3114
 6510TIP3    H140945   1.143   4.272  12.361 -2.0419  0.6604  0.4845
 6510TIP3    H240946   1.083   4.191  12.474  1.4370 -0.9508  1.3139
 6511TIP3   OH240947   5.232   3.606  15.348 -0.0625 -0.3220  0.4779
 6511TIP3    H140948   5.252   3.517  15.319  2.8030  0.9870 -2.1176
 6511TIP3    H240949   5.247   3.605  15.443  1.0163 -2.3081  0.3290
 6512TIP3   OH240950   3.874   0.127   0.610 -0.7024 -0.3506 -0.2695
 6512TIP3    H140951   3.787   0.100   0.580 -0.2259 -0.0704 -2.0074
 6512TIP3    H240952   3.919   0.155   0.530  0.5013  0.8763  0.7965
 6513TIP3   OH240953   3.462   4.810   1.957 -0.6366  1.0697  0.1187
 6513TIP3    H140954   3.407   4.813   1.879 -1.7396  1.4206  0.8939
 6513TIP3    H240955   3.494   4.899   1.968 -1.6040  1.3273  0.8528
 6514TIP3   OH240956   2.570   3.133  13.537  0.1261  0.2693 -0.2505
 6514TIP3    H140957   2.480   3.165  13.537 -0.2105 -0.6356  0.2575
 6514TIP3    H240958   2.561   3.038  13.549  1.1127  0.0739 -0.9736
 6515TIP3   OH240959   1.237   4.256  16.651  0.9350 -0.1026  0.5980
 6515TIP3    H140960   1.238   4.160  16.645 -0.6975 -0.1557  0.8338
 6515TIP3    H240961   1.144   4.280  16.647  1.3770  1.6378 -2.0394
 6516TIP3   OH240962   4.048   2.449   0.811  0.6841 -0.0198  0.1161
 6516TIP3    H140963   4.038   2.410   0.724 -0.0807  0.5434 -0.0574
 6516TIP3    H240964   3.968   2.501   0.824  0.1510 -1.1330  1.6965
 6517TIP3   OH240965   4.673   4.544  16.888 -0.1565  0.2943 -0.2260
 6517TIP3    H140966   4.751   4.505  16.849 -0.2463 -3.1829  2.5415
 6517TIP3    H240967   4.694   4.551  16.981 -2.3632  1.4971  0.2473
 6518TIP3   OH240968   1.721   4.537   2.845  0.2476 -0.0461 -0.3336
 6518TIP3    H140969   1.717   4.488   2.763  0.8009  0.4755 -0.6864
 6518TIP3    H240970   1.661   4.611   2.832 -1.4407 -1.1739  0.6060
 6519TIP3   OH240971   1.564   0.317   0.493  0.3037  0.6581  0.6120
 6519TIP3    H140972   1.486   0.328   0.548 -0.9644  0.8428 -1.1225
 6519TIP3    H240973   1.596   0.405   0.477  0.7950  0.5915  1.2042
 6520TIP3   OH240974   1.112   2.328  13.809  0.0307 -0.4781 -0.1824
 6520TIP3    H140975   1.158   2.277  13.744  0.1271 -0.5999 -0.0194
 6520TIP3    H240976   1.181   2.370  13.861 -0.0504  0.2138 -0.6238
 6521TIP3   OH240977   5.268   3.935  12.254  0.1443 -0.8021  0.2905
 6521TIP3    H140978   5.290   3.866  12.191  1.9684  0.6171 -0.7428
 6521TIP3    H240979   5.339   3.933  12.318  1.0332  0.9605 -0.5493
 6522TIP3   OH240980   4.371   1.075   1.286  0.2247 -0.1243 -0.0746
 6522TIP3    H140981   4.428   0.999   1.270  1.5594  0.9837 -0.8341
 6522TIP3    H240982   4.289   1.053   1.242  0.3415 -1.4053  0.3000
 6523TIP3   OH240983   2.246   1.851   5.398 -0.0260 -0.5600  0.1171
 6523TIP3    H140984   2.322   1.872   5.345 -1.8227  1.7418 -1.7813
 6523TIP3    H240985   2.221   1.934   5.439 -2.7849 -0.6207 -1.1831
 6524TIP3   OH240986   1.031   5.290   5.343 -0.0339 -0.4297 -0.1215
 6524TIP3    H140987   1.112   5.334   5.367 -0.4880 -0.6830  2.2190
 6524TIP3    H240988   1.057   5.201   5.320  0.3813 -0.5354  0.6967
 6525TIP3   OH240989   2.654   5.173  17.093  0.4158  0.1918  0.2154
 6525TIP3    H140990   2.588   5.142  17.155  0.0919 -1.1486 -0.7705
 6525TIP3    H240991   2.691   5.094  17.055  1.4448  0.9674 -0.4557
 6526TIP3   OH240992   2.104   1.103   2.718 -0.4199  0.1918 -0.1366
 6526TIP3    H140993   2.123   1.037   2.651 -1.1623  0.2012 -0.3639
 6526TIP3    H240994   2.174   1.092   2.782  0.8854  0.8643 -1.3975
 6527TIP3   OH240995   4.341   4.778  12.472  0.1980  0.2423 -0.5404
 6527TIP3    H140996   4.364   4.867  12.497  2.4956 -0.8155  1.5605
 6527TIP3    H240997   4.280   4.749  12.540 -1.2942  0.4555 -1.7368
 6528TIP3   OH240998   4.642   6.118  16.247  0.5164  0.1113 -0.5873
 6528TIP3    H140999   4.638   6.128  16.343 -1.5890 -1.3948 -0.4504
 6528TIP3    H241000   4.707   6.048  16.233 -0.8387 -1.3106 -0.0468
 6529TIP3   OH241001   2.412   0.895  12.575  0.3641  0.0651 -0.0478
 6529TIP3    H141002   2.478   0.836  12.539 -0.1655 -1.7072  1.7079
 6529TIP3    H241003   2.462   0.971  12.607  1.3532 -0.5000 -0.2114
 6530TIP3   OH241004   4.120   2.676   1.278 -0.1216 -0.6856 -0.2060
 6530TIP3    H141005   4.170   2.752   1.247  0.4961 -0.5584  1.0322
 6530TIP3    H241006   4.155   2.658   1.365 -2.5044 -0.3298  0.9227
 6531TIP3   OH241007   1.614   1.183   4.425 -0.6136 -0.2128  0.4008
 6531TIP3    H141008   1.705   1.190   4.456 -0.5027  2.6365 -0.2502
 6531TIP3    H241009   1.618   1.122   4.352  0.5597 -0.9408  1.0376
 6532TIP3   OH241010   4.070   4.920  12.745 -0.2611  0.2032 -0.0747
 6532TIP3    H141011   4.122   4.843  12.722  1.1607  0.3036  2.4527
 6532TIP3    H241012   4.090   4.936  12.837 -1.5393  2.8292 -0.1611
 6533TIP3   OH241013   0.520   5.682   4.352  0.3413 -0.2185  0.1583
 6533TIP3    H141014   0.456   5.623   4.311 -0.6214  0.3898  0.7305
 6533TIP3    H241015   0.503   5.767   4.311  0.1924  0.1291  0.9230
 6534TIP3   OH241016   5.604   6.090  17.028  0.2160 -0.2311  0.1287
 6534TIP3    H141017   5.523   6.040  17.042  0.6531 -0.4987  1.8771
 6534TIP3    H241018   5.648   6.044  16.956 -1.0643 -0.1921 -0.7212
 6535TIP3   OH241019   1.172   3.406  16.393 -0.8898 -0.2732 -0.4322
 6535TIP3    H141020   1.077   3.399  16.405 -0.9709  1.0887 -0.1343
 6535TIP3    H241021   1.207   3.410  16.482 -0.5300 -0.9406 -0.5409
 6536TIP3   OH241022   3.008   0.733  15.660  0.1216  0.2815 -0.1862
 6536TIP3    H141023   3.038   0.763  15.574 -0.9360  1.2008 -0.2679
 6536TIP3    H241024   3.053   0.790  15.722 -2.1476  2.4764 -0.3547
 6537TIP3   OH241025   2.647   6.472   2.573 -0.1871 -0.3044 -0.1220
 6537TIP3    H141026   2.718   6.528   2.541 -0.6682  1.1143  1.1967
 6537TIP3    H241027   2.676   6.445   2.660  0.9830 -3.8858 -1.4263
 6538TIP3   OH241028   5.908   4.213   4.665  0.0736  0.0601  0.0032
 6538TIP3    H141029   5.972   4.263   4.717 -0.3375 -1.1732  1.8130
 6538TIP3    H241030   5.835   4.199   4.725 -0.6676 -0.9771 -1.1120
 6539TIP3   OH241031   3.464   0.948  16.249 -0.2040 -0.5045  0.1065
 6539TIP3    H141032   3.468   0.911  16.161 -1.3406  0.9729 -0.6136
 6539TIP3    H241033   3.440   0.874  16.306 -1.1825 -1.1346 -1.0858
 6540TIP3   OH241034   4.463   4.365  15.144 -0.0402 -0.1692  0.0332
 6540TIP3    H141035   4.383   4.368  15.195  1.0383  0.8226  1.7567
 6540TIP3    H241036   4.517   4.435  15.179  1.6694 -0.9168 -0.9473
 6541TIP3   OH241037   5.555   3.941  12.753  0.1935  0.4079  0.0132
 6541TIP3    H141038   5.627   3.951  12.691  0.7961  2.3099  0.9356
 6541TIP3    H241039   5.594   3.961  12.838 -0.8305 -1.2044  0.8991
 6542TIP3   OH241040   3.376   6.596  13.571  0.2328 -0.7043  0.1317
 6542TIP3    H141041   3.415   6.550  13.496  2.8302 -2.4691  2.3779
 6542TIP3    H241042   3.295   6.548  13.588  0.6966 -1.6763 -0.2583
 6543TIP3   OH241043   3.927   2.652   6.020 -0.6887 -0.1909 -0.0039
 6543TIP3    H141044   3.868   2.593   6.067 -0.8562 -0.9249 -1.0812
 6543TIP3    H241045   4.003   2.661   6.077 -1.0328 -0.7696  0.5595
 6544TIP3   OH241046   0.404   2.497   0.808  0.3562  0.2743 -0.5119
 6544TIP3    H141047   0.486   2.466   0.848 -0.3134 -0.2840  0.4807
 6544TIP3    H241048   0.390   2.584   0.845 -0.6892 -0.5598  1.2312
 6545TIP3   OH241049   3.893   2.675  16.603  0.1273  0.5667  0.0055
 6545TIP3    H141050   3.838   2.598  16.619 -0.9471  1.5615  1.3527
 6545TIP3    H241051   3.949   2.650  16.529 -1.0764 -1.0393 -0.4166
 6546TIP3   OH241052   4.383   5.040  12.891  0.0449  0.2794 -0.5629
 6546TIP3    H141053   4.293   5.018  12.915  0.1522 -0.0465 -0.4580
 6546TIP3    H241054   4.404   5.116  12.945  0.0858 -0.0997 -0.0373
 6547TIP3   OH241055   2.679   0.712  11.538  0.1073 -0.2015  0.4649
 6547TIP3    H141056   2.587   0.732  11.556 -0.2232 -1.8401  0.7857
 6547TIP3    H241057   2.681   0.691  11.444  0.1110 -0.3599  0.4996
 6548TIP3   OH241058   4.797   5.217   6.532  0.0571  0.3213  0.2009
 6548TIP3    H141059   4.799   5.247   6.441 -0.5583 -1.4069 -0.4117
 6548TIP3    H241060   4.741   5.281   6.576 -1.6661 -0.1487 -1.1804
 6549TIP3   OH241061   4.274   2.843  15.717  0.3135  0.3094 -0.3961
 6549TIP3    H141062   4.190   2.887  15.727 -0.6765 -1.7454  1.0109
 6549TIP3    H241063   4.275   2.814  15.626  0.6289  2.3980 -1.1133
 6550TIP3   OH241064   4.080   4.788  13.896 -0.0861 -0.5288  0.5715
 6550TIP3    H141065   4.148   4.829  13.951 -0.1705 -0.0666  0.3316
 6550TIP3    H241066   4.092   4.694  13.911 -0.8802 -0.3912  2.3202
 6551TIP3   OH241067   2.767   5.766  10.750 -0.3598 -0.3341 -0.1174
 6551TIP3    H141068   2.684   5.722  10.735 -1.6358  2.1770 -0.9533
 6551TIP3    H241069   2.819   5.746  10.672 -0.2121 -1.7442  0.3147
 6552TIP3   OH241070   1.921   6.156  16.984  0.1216  0.5036 -0.3958
 6552TIP3    H141071   1.979   6.131  17.056  0.2773  1.3397 -0.2253
 6552TIP3    H241072   1.916   6.077  16.930 -1.3111 -0.6731  1.3591
 6553TIP3   OH241073   5.566   2.543   1.726 -0.0349  0.2128 -0.0225
 6553TIP3    H141074   5.559   2.457   1.767 -1.7362  0.5411  0.4784
 6553TIP3    H241075   5.479   2.559   1.689  0.8047  0.9028 -1.8050
 6554TIP3   OH241076   2.967   4.308   0.832  0.2102 -0.2847  0.1403
 6554TIP3    H141077   2.937   4.227   0.873 -0.5696 -0.0301  0.0883
 6554TIP3    H241078   3.060   4.293   0.815  0.3232 -0.7661  1.0957
 6555TIP3   OH241079   2.136   3.471   5.261  0.4922  0.7645  0.0581
 6555TIP3    H141080   2.146   3.527   5.338  0.8938  1.0089 -0.1675
 6555TIP3    H241081   2.140   3.532   5.187  0.6984  0.4651 -0.1806
 6556TIP3   OH241082   2.260   0.140  13.111  0.1886 -0.1053 -0.5033
 6556TIP3    H141083   2.329   0.110  13.052  0.3981  0.7485 -0.7116
 6556TIP3    H241084   2.185   0.084  13.091  0.8626 -1.1578 -0.1573
 6557TIP3   OH241085   3.884   3.453  15.863  0.5194 -0.6248 -0.5686
 6557TIP3    H141086   3.878   3.446  15.959 -0.8826  1.5144 -0.4329
 6557TIP3    H241087   3.945   3.525  15.848  1.4709 -1.5560 -1.3572
 6558TIP3   OH241088   2.156   1.653   3.274  0.3788 -0.7931  0.2587
 6558TIP3    H141089   2.239   1.607   3.263  0.3823 -0.5797 -0.6476
 6558TIP3    H241090   2.179   1.745   3.274  0.1931 -0.7443  0.5024
 6559TIP3   OH241091   2.908   2.756   2.157  0.1895 -0.3293  0.2875
 6559TIP3    H141092   2.954   2.839   2.150 -0.3160  0.0581  1.3210
 6559TIP3    H241093   2.897   2.743   2.252 -3.3908  0.4809  0.1001
 6560TIP3   OH241094   0.456   4.658  13.260 -0.0285  0.4817 -0.2164
 6560TIP3    H141095   0.364   4.631  13.271 -0.0245  0.4720 -0.2064
 6560TIP3    H241096   0.477   4.633  13.170 -0.3333  1.3748 -0.5499
 6561TIP3   OH241097   5.583   2.423   1.460 -0.2984 -0.2585 -0.3630
 6561TIP3    H141098   5.546   2.505   1.492 -0.3230 -0.4405  0.0742
 6561TIP3    H241099   5.517   2.357   1.482 -0.1514 -0.4384 -0.4628
 6562TIP3   OH241100   4.077   2.238   4.326 -0.4986  0.3268  0.0819
 6562TIP3    H141101   4.051   2.275   4.241 -0.1561  0.8379  0.1935
 6562TIP3    H241102   4.012   2.170   4.344 -2.6339  2.4795  1.0067
 6563TIP3   OH241103   6.376   4.647   0.827  0.2341 -0.1891  0.0488
 6563TIP3    H141104   6.304   4.585   0.841  0.0845  0.2215  1.1987
 6563TIP3    H241105   6.333   4.732   0.820  0.5725  0.0050  0.3199
 6564TIP3   OH241106   4.774   5.454  10.318 -0.5706 -0.4093  0.3803
 6564TIP3    H141107   4.854   5.503  10.298 -0.0124 -1.3616  0.2245
 6564TIP3    H241108   4.768   5.388  10.248 -1.6181 -0.2037  0.2570
 6565TIP3   OH241109   6.597   4.363  14.091  0.9032 -0.2934 -0.1726
 6565TIP3    H141110   6.573   4.381  14.182  0.3379  0.8478 -0.5379
 6565TIP3    H241111   6.520   4.321  14.053  0.7849  0.1048 -0.3782
 6566TIP3   OH241112   5.258   4.022  14.031  0.1522 -0.7703  0.0297
 6566TIP3    H141113   5.228   4.062  13.949  2.0559 -0.8042 -0.7198
 6566TIP3    H241114   5.221   4.078  14.099  0.5843  0.7397 -0.9311
 6567TIP3   OH241115   1.761   5.820   1.906 -0.1676  0.4696 -0.8185
 6567TIP3    H141116   1.688   5.759   1.893  1.1536 -1.0588 -1.3521
 6567TIP3    H241117   1.738   5.867   1.986 -0.3961 -2.0238  0.6880
 6568TIP3   OH241118   1.532   5.627   0.223  0.0473  1.4025 -0.0906
 6568TIP3    H141119   1.594   5.565   0.262 -1.1664  0.3400  0.1936
 6568TIP3    H241120   1.585   5.706   0.207  1.4153  0.6094  0.3392
 6569TIP3   OH241121   2.243   4.597  12.926 -0.0904  0.5165 -0.2717
 6569TIP3    H141122   2.243   4.608  12.831 -1.3355  2.0690 -0.1265
 6569TIP3    H241123   2.191   4.670  12.959  0.1441 -0.1067  1.6043
 6570TIP3   OH241124   4.756   3.362  17.120  0.4835 -0.0044  0.2140
 6570TIP3    H141125   4.756   3.357  17.216 -2.2400  0.6962  0.3227
 6570TIP3    H241126   4.798   3.446  17.101 -2.1201  1.5941  1.0531
 6571TIP3   OH241127   5.283   0.623   4.493 -0.7297 -0.4640 -0.1882
 6571TIP3    H141128   5.355   0.686   4.507 -0.4197 -1.2864  2.7820
 6571TIP3    H241129   5.204   0.677   4.489 -0.2343  0.2650 -0.3267
 6572TIP3   OH241130   2.766   1.697   1.724 -0.1257  0.1449  0.1234
 6572TIP3    H141131   2.857   1.722   1.738  0.1248 -1.3322  1.3654
 6572TIP3    H241132   2.771   1.622   1.664 -0.7223  1.6321 -1.8823
 6573TIP3   OH241133   5.272   1.161   2.036  0.7455 -0.2409 -0.3371
 6573TIP3    H141134   5.308   1.097   2.097 -0.7404 -0.1466  0.6967
 6573TIP3    H241135   5.269   1.243   2.086 -0.7769 -0.2272 -0.4085
 6574TIP3   OH241136   3.547   2.892  11.655 -0.4928  0.6145  0.3423
 6574TIP3    H141137   3.623   2.844  11.688 -0.8698  0.9091  1.7413
 6574TIP3    H241138   3.567   2.910  11.564  1.1852  0.8003  0.7118
 6575TIP3   OH241139   2.827   2.173  11.243 -0.4730 -0.2684  0.2631
 6575TIP3    H141140   2.781   2.227  11.307  1.5765  1.7420  0.1509
 6575TIP3    H241141   2.810   2.215  11.159  1.3634  0.4468  0.2052
 6576TIP3   OH241142   5.661   2.135  13.832 -0.5629 -0.0071 -0.0756
 6576TIP3    H141143   5.633   2.085  13.909 -0.1768 -0.5070 -0.2522
 6576TIP3    H241144   5.657   2.072  13.760 -1.0790  0.4993 -0.5061
 6577TIP3   OH241145   2.571   4.805   0.342 -0.0050  0.5838  0.0187
 6577TIP3    H141146   2.662   4.819   0.369 -0.2809  0.2185  1.2091
 6577TIP3    H241147   2.527   4.887   0.364 -0.6899 -0.4405  2.8486
 6578TIP3   OH241148   1.123   2.378  13.426  0.6416 -0.2513  0.0800
 6578TIP3    H141149   1.128   2.297  13.478  2.9621  0.1518  0.5834
 6578TIP3    H241150   1.049   2.426  13.463 -2.8989 -3.3403 -2.1848
 6579TIP3   OH241151   5.321   1.123  11.883 -0.1679 -0.2810  0.1529
 6579TIP3    H141152   5.247   1.067  11.905 -0.5371 -0.2087 -0.8253
 6579TIP3    H241153   5.348   1.093  11.796 -0.7909  1.4624 -0.6865
 6580TIP3   OH241154   0.085   1.147  16.218  0.2996 -0.0221  0.6876
 6580TIP3    H141155   0.062   1.211  16.286  0.6768 -0.4921  1.2628
 6580TIP3    H241156   0.175   1.122  16.237  1.2668  1.6054 -1.4079
 6581TIP3   OH241157   4.746   4.825   0.855 -0.2221  0.2949  0.0318
 6581TIP3    H141158   4.828   4.864   0.826 -0.2948  0.5629  0.1869
 6581TIP3    H241159   4.767   4.732   0.868 -0.0772  0.2626 -0.4292
 6582TIP3   OH241160   6.752   6.625  11.511 -0.4525  0.0890 -0.3287
 6582TIP3    H141161   6.707   6.565  11.451  2.4537 -1.4062 -1.1669
 6582TIP3    H241162   6.812   6.674  11.455 -0.9782  2.0725  0.7383
 6583TIP3   OH241163   0.213   6.268   1.797  0.2573  0.2482 -0.2125
 6583TIP3    H141164   0.170   6.221   1.727 -2.7433  0.8281  1.0664
 6583TIP3    H241165   0.269   6.332   1.753  0.7696 -1.3395 -1.9747
 6584TIP3   OH241166   6.129   1.125  11.900  0.0225  0.1724  0.1345
 6584TIP3    H141167   6.102   1.122  11.808 -1.4762  0.7837  0.5240
 6584TIP3    H241168   6.165   1.038  11.917  2.0696  0.6050 -1.5035
 6585TIP3   OH241169   4.126   1.963  12.756  0.1980 -0.0218 -0.1563
 6585TIP3    H141170   4.063   1.911  12.705 -0.9459 -0.7196  1.8433
 6585TIP3    H241171   4.211   1.936  12.722 -0.4916 -0.8059 -1.3661
 6586TIP3   OH241172   3.054   3.400  13.648  0.1213  0.1132  0.1364
 6586TIP3    H141173   3.009   3.478  13.616 -1.0657 -0.1111  1.1822
 6586TIP3    H241174   3.128   3.389  13.589 -0.4814  1.2327 -0.8674
 6587TIP3   OH241175   2.232   6.357  11.479  0.0716 -0.3227 -0.4793
 6587TIP3    H141176   2.201   6.432  11.429 -0.2353 -0.2342 -0.1590
 6587TIP3    H241177   2.294   6.394  11.543 -0.7831 -0.2009  0.3066
 6588TIP3   OH241178   4.839   0.353  11.110  0.1740 -0.2649  0.1543
 6588TIP3    H141179   4.794   0.270  11.093  0.2687 -0.1243 -0.8269
 6588TIP3    H241180   4.820   0.407  11.034 -0.7293  1.0054  1.2217
 6589TIP3   OH241181   1.024   4.610  14.310  0.0850 -0.4512 -0.3052
 6589TIP3    H141182   1.104   4.573  14.348 -0.0198 -0.5283 -0.1608
 6589TIP3    H241183   1.006   4.554  14.234  0.8704  0.3179 -1.0851
 6590TIP3   OH241184   4.128   1.441   5.120  0.5274  0.2040  0.5489
 6590TIP3    H141185   4.080   1.522   5.136  0.9740  0.5931 -0.0541
 6590TIP3    H241186   4.196   1.440   5.188 -0.4785 -0.4806  1.5689
 6591TIP3   OH241187   3.572   1.944   6.103 -0.3035  0.2063  0.6044
 6591TIP3    H141188   3.621   2.008   6.155 -0.5987  0.4481  0.5850
 6591TIP3    H241189   3.627   1.930   6.026 -1.0774  1.8055 -0.2707
 6592TIP3   OH241190   4.828   4.469   1.382 -1.1960 -0.1972  0.1864
 6592TIP3    H141191   4.868   4.540   1.333 -2.6422  0.2040 -0.4581
 6592TIP3    H241192   4.876   4.391   1.355  0.9265  0.5661  1.4734
 6593TIP3   OH241193   6.091   5.050  14.262 -0.1422 -0.0452 -0.2226
 6593TIP3    H141194   6.128   5.090  14.341  0.8432 -2.6110  0.6954
 6593TIP3    H241195   5.997   5.068  14.268  0.0747  0.8465  0.8640
 6594TIP3   OH241196   2.088   4.078  14.262 -0.3131 -0.1106 -0.0603
 6594TIP3    H141197   2.159   4.122  14.216  0.1240  0.2714  0.9533
 6594TIP3    H241198   2.130   4.037  14.337 -1.3144  0.9981  1.1358
 6595TIP3   OH241199   5.469   4.369  14.862 -0.1364 -0.0761 -0.3272
 6595TIP3    H141200   5.467   4.285  14.815  0.2806 -0.8119  0.9171
 6595TIP3    H241201   5.407   4.424  14.815 -0.3070 -1.0315 -1.2692
 6596TIP3   OH241202   2.548   6.237  11.555 -0.0565 -0.1631 -0.6329
 6596TIP3    H141203   2.568   6.207  11.467  1.6850  0.0267 -0.3387
 6596TIP3    H241204   2.535   6.332  11.546  2.2226  0.2286 -0.4258
 6597TIP3   OH241205   6.350   6.445  12.800  0.1685 -0.3578 -0.7389
 6597TIP3    H141206   6.380   6.414  12.885 -0.3854  1.5155  0.2153
 6597TIP3    H241207   6.272   6.393  12.781 -0.8521  0.5003  0.8847
 6598TIP3   OH241208   2.469   6.484   4.198 -0.8952 -0.0249  0.1093
 6598TIP3    H141209   2.478   6.524   4.285 -0.7178  1.0312 -0.3766
 6598TIP3    H241210   2.488   6.392   4.212 -1.6630 -0.0164  1.3345
 6599TIP3   OH241211   4.153   4.669  16.670 -0.4770  0.2501  0.3355
 6599TIP3    H141212   4.114   4.615  16.601  1.3057 -1.2673  0.4283
 6599TIP3    H241213   4.178   4.750  16.626 -0.2093 -0.3313 -0.6154
 6600TIP3   OH241214   6.599   0.180   4.182 -0.1438  0.2290  0.1954
 6600TIP3    H141215   6.582   0.115   4.251 -0.7599  0.8411  0.6394
 6600TIP3    H241216   6.525   0.170   4.122 -0.7511  1.1423  0.7624
 6601TIP3   OH241217   0.599   2.611   3.833 -0.3790 -0.2681 -0.0292
 6601TIP3    H141218   0.555   2.690   3.802 -0.6476  0.3062  1.6895
 6601TIP3    H241219   0.636   2.571   3.755 -0.4492  1.4283 -0.9683
 6602TIP3   OH241220   4.437   1.314  13.403  0.0367  0.0955 -0.1387
 6602TIP3    H141221   4.472   1.265  13.328  0.5918  1.7736 -1.0401
 6602TIP3    H241222   4.421   1.248  13.470  1.3645 -1.2245 -1.0606
 6603TIP3   OH241223   3.290   6.070  16.045  0.3417 -0.2936 -0.4606
 6603TIP3    H141224   3.244   6.123  15.980  2.1527 -0.1514 -1.7013
 6603TIP3    H241225   3.309   5.987  16.001  0.8888 -0.5014  0.1427
 6604TIP3   OH241226   6.229   4.590   2.730  0.6735 -0.0509 -0.2478
 6604TIP3    H141227   6.226   4.677   2.690 -0.0651 -0.6191 -1.5037
 6604TIP3    H241228   6.138   4.572   2.756  1.1383  0.3151  1.7996
 6605TIP3   OH241229   0.522   6.744   2.714 -0.0544 -0.7250 -0.0147
 6605TIP3    H141230   0.504   6.650   2.716 -1.8863 -0.3958  0.6769
 6605TIP3    H241231   0.438   6.785   2.734  0.8533  1.0578  0.3240
 6606TIP3   OH241232   5.172   6.697  14.839  0.6336 -0.6602 -0.7763
 6606TIP3    H141233   5.205   6.720  14.752  0.4162 -0.7252 -0.8751
 6606TIP3    H241234   5.136   6.609  14.829  1.3160 -0.9818 -0.4349
 6607TIP3   OH241235   0.302   0.889   1.089 -0.6647 -0.0900 -0.1836
 6607TIP3    H141236   0.352   0.822   1.043 -1.4275 -0.5977 -0.2975
 6607TIP3    H241237   0.338   0.972   1.058 -1.2150 -0.4108 -1.7615
 6608TIP3   OH241238   5.650   1.242  11.230  0.0029  0.4503 -0.1532
 6608TIP3    H141239   5.610   1.311  11.179  1.9378  2.3238  0.7123
 6608TIP3    H241240   5.712   1.200  11.170 -0.6699 -0.0948 -0.4778
 6609TIP3   OH241241   1.884   5.838   3.120 -0.3532 -0.0169  0.2527
 6609TIP3    H141242   1.893   5.748   3.088  0.6658  0.0166  0.4097
 6609TIP3    H241243   1.790   5.854   3.120 -0.5250 -0.9501 -0.1465
 6610TIP3   OH241244   2.301   0.541  14.458  0.1528 -0.5363 -0.4378
 6610TIP3    H141245   2.342   0.627  14.451  0.5585 -0.7930 -1.5571
 6610TIP3    H241246   2.310   0.503  14.370  0.2515 -1.8377  0.1074
 6611TIP3   OH241247   1.492   5.362  14.690  0.4362  0.2377  0.0432
 6611TIP3    H141248   1.413   5.319  14.657 -0.6731 -0.0250  2.8136
 6611TIP3    H241249   1.519   5.420  14.618 -2.8790  1.1335 -0.6399
 6612TIP3   OH241250   3.065   5.750   6.455  0.6063 -0.5370 -0.3806
 6612TIP3    H141251   2.995   5.693   6.424  1.1297 -1.5584  0.2888
 6612TIP3    H241252   3.140   5.728   6.399  1.7408 -2.8192  1.8511
 6613TIP3   OH241253   2.609   5.422   5.991  0.5630  0.0879  0.3169
 6613TIP3    H141254   2.696   5.462   6.002  0.4996  1.7145 -3.5724
 6613TIP3    H241255   2.626   5.328   5.990  1.7618  0.2072  2.5909
 6614TIP3   OH241256   2.556   4.396  13.417  0.1873 -0.0090  0.2697
 6614TIP3    H141257   2.645   4.362  13.409 -0.0279 -0.6312  0.4744
 6614TIP3    H241258   2.524   4.362  13.500 -0.5987 -0.6508 -0.2716
 6615TIP3   OH241259   3.029   3.649   3.975  0.0839  0.0744 -0.1209
 6615TIP3    H141260   3.002   3.575   4.030 -1.7241 -0.5732 -1.7513
 6615TIP3    H241261   2.979   3.723   4.009 -0.3314 -0.1216 -0.2937
 6616TIP3   OH241262   0.215   0.815   4.544 -0.3394 -0.1007  1.0111
 6616TIP3    H141263   0.292   0.773   4.582 -1.2033  0.4867  3.6821
 6616TIP3    H241264   0.156   0.744   4.521  0.5221 -0.5059 -0.0039
 6617TIP3   OH241265   4.165   3.452   2.572  0.1509  0.0890 -0.6659
 6617TIP3    H141266   4.240   3.504   2.599 -0.2587  1.1079 -1.4442
 6617TIP3    H241267   4.189   3.362   2.594  0.6210  0.6407  1.2569
 6618TIP3   OH241268   6.022   0.868  10.998  0.0095  0.5278  0.3119
 6618TIP3    H141269   5.990   0.778  11.006 -2.3307  1.2163 -0.5796
 6618TIP3    H241270   6.112   0.864  11.032  0.4042 -2.3567 -0.7386
 6619TIP3   OH241271   0.907   1.502   3.755  0.0821 -0.1379  0.4474
 6619TIP3    H141272   0.992   1.465   3.731 -0.3531 -0.5203 -0.5615
 6619TIP3    H241273   0.867   1.527   3.672 -2.0061 -2.6661  0.5777
 6620TIP3   OH241274   3.881   0.081  11.810 -0.1858  0.3903  0.0734
 6620TIP3    H141275   3.945   0.011  11.798 -1.7785 -1.4948  1.8132
 6620TIP3    H241276   3.931   0.155  11.843  1.0943 -1.1433  1.7283
 6621TIP3   OH241277   5.755   0.992  11.471  0.3447  0.4904  0.0361
 6621TIP3    H141278   5.679   1.049  11.479 -0.0506  0.1858 -1.2484
 6621TIP3    H241279   5.793   0.989  11.558 -0.8592  1.0103  0.5953
 6622TIP3   OH241280   5.180   3.750   6.485  0.1722  0.5464  0.4088
 6622TIP3    H141281   5.159   3.657   6.490 -2.1643  1.0652  2.1611
 6622TIP3    H241282   5.115   3.792   6.542  1.6762  3.1752  0.3352
 6623TIP3   OH241283   5.467   5.177   2.542 -0.5343 -0.3008  0.3190
 6623TIP3    H141284   5.434   5.088   2.547 -0.8430 -0.2101 -0.0633
 6623TIP3    H241285   5.430   5.212   2.461  0.2927 -0.1085  0.0130
 6624TIP3   OH241286   5.432   1.238  14.679  0.1609  0.3817 -0.0746
 6624TIP3    H141287   5.337   1.235  14.685  0.1335  0.3078 -0.5168
 6624TIP3    H241288   5.461   1.148  14.693  0.2911  0.6812  1.9064
 6625TIP3   OH241289   1.811   2.904  15.745 -0.3985 -0.0877 -0.3184
 6625TIP3    H141290   1.891   2.916  15.695  0.3354 -1.2559  0.5194
 6625TIP3    H241291   1.801   2.985  15.795  0.2191  0.0964 -0.4899
 6626TIP3   OH241292   3.686   4.184   5.932 -0.5026  0.0973  0.2689
 6626TIP3    H141293   3.676   4.180   6.028 -0.7067 -0.5666  0.2266
 6626TIP3    H241294   3.749   4.254   5.918  0.0118 -0.2201  0.9301
 6627TIP3   OH241295   2.560   2.587  11.541 -0.0778 -0.0511  0.3988
 6627TIP3    H141296   2.506   2.577  11.620  2.7801  1.8720  2.7998
 6627TIP3    H241297   2.504   2.636  11.480 -1.9886 -0.6602  1.5779
 6628TIP3   OH241298   6.049   0.936  12.364  0.0528 -0.1434 -0.0987
 6628TIP3    H141299   6.007   0.988  12.295 -2.1110 -1.0879  0.4261
 6628TIP3    H241300   5.991   0.944  12.439  0.3734 -2.1678  0.4183
 6629TIP3   OH241301   4.236   3.400  15.188  0.0213  0.0732 -0.5083
 6629TIP3    H141302   4.259   3.448  15.109 -0.0299  0.6113 -0.2037
 6629TIP3    H241303   4.145   3.424  15.206 -0.0675 -0.2932 -0.4627
 6630TIP3   OH241304   4.566   0.541   4.412 -0.3808  0.4575 -0.3919
 6630TIP3    H141305   4.538   0.592   4.488  0.3202  1.3184 -0.6945
 6630TIP3    H241306   4.486   0.497   4.382 -0.3863 -1.0344  1.6595
 6631TIP3   OH241307   3.867   3.549   4.570  0.1761 -0.5035 -0.4720
 6631TIP3    H141308   3.882   3.643   4.553 -0.6857 -0.3694 -0.5506
 6631TIP3    H241309   3.876   3.540   4.665  0.4097 -0.3731 -0.4795
 6632TIP3   OH241310   6.589   2.054   2.233  0.1433  0.2170  0.1767
 6632TIP3    H141311   6.496   2.060   2.255 -0.3463 -1.9632 -0.9858
 6632TIP3    H241312   6.604   2.122   2.168 -0.4974  0.9343  0.7705
 6633TIP3   OH241313   1.142   0.458  12.557  0.3621 -0.1639  0.0914
 6633TIP3    H141314   1.196   0.464  12.478  1.0599 -1.5986  0.4338
 6633TIP3    H241315   1.052   0.456  12.524  0.6584 -3.9755 -1.0349
 6634TIP3   OH241316   1.448   2.269  16.158 -0.0419  0.0072  0.1143
 6634TIP3    H141317   1.527   2.324  16.162  0.1704 -0.3475  1.6960
 6634TIP3    H241318   1.414   2.270  16.248 -1.7468 -0.0042 -0.4872
 6635TIP3   OH241319   3.740   3.266  11.861  0.0694 -0.6220 -0.4674
 6635TIP3    H141320   3.678   3.197  11.839 -0.1330 -0.5673 -0.0730
 6635TIP3    H241321   3.811   3.255  11.799 -1.2935  0.6208 -2.3688
 6636TIP3   OH241322   4.647   2.872   2.036  0.0154 -0.9360 -0.9105
 6636TIP3    H141323   4.644   2.828   1.951  2.2443 -4.2695  0.5165
 6636TIP3    H241324   4.715   2.939   2.025  0.5129 -1.5485 -1.7223
 6637TIP3   OH241325   4.208   5.111  14.155 -0.1546 -0.1222  0.7336
 6637TIP3    H141326   4.202   5.017  14.173 -0.2428 -0.0241  1.2381
 6637TIP3    H241327   4.134   5.128  14.097 -0.6279 -0.2198  1.2976
 6638TIP3   OH241328   4.138   4.804  16.169  0.3311 -0.2311 -0.3904
 6638TIP3    H141329   4.224   4.846  16.172  1.7611 -2.8532 -1.1458
 6638TIP3    H241330   4.118   4.796  16.076 -0.8012  0.4121 -0.2221
 6639TIP3   OH241331   1.109   3.878  16.163 -0.8363 -0.2745 -0.1942
 6639TIP3    H141332   1.185   3.935  16.176 -0.1327 -1.1994 -0.1581
 6639TIP3    H241333   1.049   3.903  16.234 -1.0586  1.2120 -0.8668
 6640TIP3   OH241334   4.710   2.830  14.855 -0.0874 -0.3162 -0.4023
 6640TIP3    H141335   4.800   2.840  14.886 -0.8965  1.7026  1.5703
 6640TIP3    H241336   4.663   2.906  14.890 -2.8426 -1.8815 -0.3358
 6641TIP3   OH241337   3.668   2.438   5.117  0.0217 -0.2308 -0.3145
 6641TIP3    H141338   3.761   2.460   5.115  0.4149 -1.7601 -0.4426
 6641TIP3    H241339   3.658   2.374   5.046 -0.6888 -1.6102  0.9803
 6642TIP3   OH241340   0.836   1.383   1.178  0.5507  0.1778 -0.0526
 6642TIP3    H141341   0.900   1.416   1.241 -0.3140  0.0559  0.9157
 6642TIP3    H241342   0.805   1.461   1.133 -0.3854  0.5616  1.1836
 6643TIP3   OH241343   3.201   0.531   0.639 -0.0315 -0.2396  0.1949
 6643TIP3    H141344   3.278   0.544   0.694  1.1069 -0.6939 -1.2468
 6643TIP3    H241345   3.205   0.601   0.574  0.1475 -1.2959 -0.9537
 6644TIP3   OH241346   3.890   3.258   0.600  0.2053 -0.6008 -0.6912
 6644TIP3    H141347   3.809   3.223   0.563 -1.5726  2.7029 -0.2462
 6644TIP3    H241348   3.881   3.243   0.694 -1.3191  2.1641 -0.3015
 6645TIP3   OH241349   5.707   0.640  15.797 -0.3555  0.3263 -0.1269
 6645TIP3    H141350   5.683   0.644  15.890 -3.6385  1.6346 -0.8763
 6645TIP3    H241351   5.746   0.726  15.779  1.6108 -0.4232  0.2425
 6646TIP3   OH241352   4.515   3.570   6.770 -0.1063  0.0856  0.7663
 6646TIP3    H141353   4.463   3.503   6.816 -0.2638 -0.1845  0.2135
 6646TIP3    H241354   4.452   3.613   6.712  0.0440  0.5683  0.9567
 6647TIP3   OH241355   3.068   3.147   0.329  0.1049 -0.3517  0.2579
 6647TIP3    H141356   3.064   3.234   0.291 -1.3439 -0.7216 -0.5057
 6647TIP3    H241357   3.123   3.097   0.268 -0.0370 -0.2720  0.0652
 6648TIP3   OH241358   3.479   6.352  16.190  0.0544 -0.7732  0.2668
 6648TIP3    H141359   3.400   6.354  16.243  0.3535 -0.5605  0.7184
 6648TIP3    H241360   3.519   6.267  16.210 -0.3675 -1.1421 -0.4319
 6649TIP3   OH241361   0.858   6.725  12.549  0.1490 -0.2006 -0.1064
 6649TIP3    H141362   0.929   6.784  12.576 -1.1764  0.6905  1.6916
 6649TIP3    H241363   0.807   6.776  12.486 -0.0846 -0.0151  0.2277
 6650TIP3   OH241364   6.588   2.311   2.736 -0.2493  0.3118 -0.1425
 6650TIP3    H141365   6.662   2.310   2.675  0.3177  0.1301  0.5448
 6650TIP3    H241366   6.625   2.340   2.819 -1.1131  1.0361  0.0094
 6651TIP3   OH241367   4.895   1.236   5.693  0.4041  0.3732 -0.3447
 6651TIP3    H141368   4.873   1.279   5.775  0.1626  1.4711 -0.9682
 6651TIP3    H241369   4.815   1.191   5.667  1.4407 -3.1054  1.8058
 6652TIP3   OH241370   1.030   4.071   5.075 -0.6614 -0.8759  0.0484
 6652TIP3    H141371   1.071   4.058   5.160  1.1989 -1.2629 -0.8652
 6652TIP3    H241372   1.080   4.015   5.015 -1.9943 -0.6993 -1.2898
 6653TIP3   OH241373   1.570   0.398  12.294 -0.4124  0.3729 -0.5835
 6653TIP3    H141374   1.521   0.474  12.326  0.1407  0.0515  1.1734
 6653TIP3    H241375   1.625   0.373  12.369  0.0113 -1.2638 -1.4111
 6654TIP3   OH241376   1.312   6.034   3.897  0.2527 -0.0054 -0.0743
 6654TIP3    H141377   1.283   6.026   3.988  0.8353  1.0719  0.2178
 6654TIP3    H241378   1.257   5.972   3.849  0.7516 -1.4730  1.1817
 6655TIP3   OH241379   0.600   5.316   6.007 -0.1069 -0.2046  0.1010
 6655TIP3    H141380   0.513   5.285   5.983 -0.4483  1.7879 -1.4869
 6655TIP3    H241381   0.585   5.402   6.047  1.1803  0.7975 -1.4583
 6656TIP3   OH241382   0.467   3.697  14.939 -0.8425 -0.0360  0.3655
 6656TIP3    H141383   0.493   3.705  15.031 -1.9761  1.1463  0.6095
 6656TIP3    H241384   0.377   3.664  14.942 -0.9043  0.0583 -0.3284
 6657TIP3   OH241385   6.713   2.809  12.318  0.0871  0.4806 -0.3103
 6657TIP3    H141386   6.795   2.859  12.317  0.7039 -0.3553  2.1547
 6657TIP3    H241387   6.665   2.841  12.242  1.8084  2.4821 -0.6489
 6658TIP3   OH241388   6.717   4.816   1.224 -0.4129 -0.5590 -0.4506
 6658TIP3    H141389   6.799   4.819   1.173 -0.1536 -1.0896 -0.0679
 6658TIP3    H241390   6.673   4.899   1.203  0.0049 -0.4778 -1.0200
 6659TIP3   OH241391   1.555   2.435  14.393  0.1480 -0.2633  0.0376
 6659TIP3    H141392   1.503   2.485  14.330 -2.4501 -2.8859 -0.1571
 6659TIP3    H241393   1.584   2.500  14.458 -1.3358  1.7586 -1.2036
 6660TIP3   OH241394   3.522   6.633  16.209 -0.2691 -0.2955  0.4711
 6660TIP3    H141395   3.432   6.658  16.231 -0.2786 -0.6394  0.8303
 6660TIP3    H241396   3.513   6.550  16.162 -0.4106  1.2867 -2.5740
 6661TIP3   OH241397   4.151   6.221  14.911  0.1606 -0.0040  0.0652
 6661TIP3    H141398   4.214   6.202  14.841  0.9389  0.2172  0.6878
 6661TIP3    H241399   4.139   6.316  14.907 -1.9678 -0.2533 -1.5615
 6662TIP3   OH241400   0.392   4.363  10.955  0.1464  0.7196 -0.4221
 6662TIP3    H141401   0.381   4.351  10.861  0.3640 -0.4849 -0.3147
 6662TIP3    H241402   0.339   4.293  10.994 -0.1815  1.3869  0.3638
 6663TIP3   OH241403   0.531   2.281   6.078  0.0483 -0.6069  0.3906
 6663TIP3    H141404   0.490   2.202   6.114  1.4572 -1.6750 -0.2165
 6663TIP3    H241405   0.547   2.337   6.154  0.1923 -1.4859  1.0228
 6664TIP3   OH241406   0.162   2.213  11.515 -0.1404  0.2171  0.1380
 6664TIP3    H141407   0.148   2.160  11.437  0.8219  0.6068 -0.3082
 6664TIP3    H241408   0.097   2.179  11.578  0.7669 -1.8356  0.0563
 6665TIP3   OH241409   1.773   1.519  14.068 -0.1600  0.2209  0.2536
 6665TIP3    H141410   1.722   1.578  14.013 -0.5880 -0.7458 -0.4222
 6665TIP3    H241411   1.803   1.573  14.140 -1.1810  1.0788  0.0607
 6666TIP3   OH241412   2.813   5.059  15.155 -0.1861 -0.7946  0.0313
 6666TIP3    H141413   2.854   5.003  15.221 -0.5153 -1.0390  0.0317
 6666TIP3    H241414   2.719   5.044  15.166 -0.2360 -1.1016 -0.7119
 6667TIP3   OH241415   2.155   6.204  16.201  0.2627  0.0036  0.6072
 6667TIP3    H141416   2.100   6.255  16.141  1.2106  0.1243 -0.1996
 6667TIP3    H241417   2.237   6.191  16.152  0.8839 -0.3151  1.7048
 6668TIP3   OH241418   2.404   5.017  14.482  0.0437 -0.1819  0.6346
 6668TIP3    H141419   2.369   5.022  14.570  0.4833 -0.7900  0.8518
 6668TIP3    H241420   2.490   5.058  14.487 -1.5149  3.6902 -0.4446
 6669TIP3   OH241421   4.492   2.720   4.665 -0.7205 -0.1751  0.3343
 6669TIP3    H141422   4.464   2.637   4.626 -2.7442  1.2853 -1.5490
 6669TIP3    H241423   4.411   2.758   4.700 -0.2959  2.0306 -0.9304
 6670TIP3   OH241424   3.358   2.617  11.140  0.5108 -0.2031 -0.0749
 6670TIP3    H141425   3.323   2.645  11.055 -0.5847  2.6300  1.2002
 6670TIP3    H241426   3.404   2.535  11.120 -0.4931 -0.1631 -3.2062
 6671TIP3   OH241427   3.467   0.806   4.955  0.1308  0.3776  0.7278
 6671TIP3    H141428   3.479   0.803   4.860 -0.9315 -1.5694  0.6010
 6671TIP3    H241429   3.554   0.786   4.991  0.2281 -0.3259  0.1272
 6672TIP3   OH241430   2.276   3.444  13.906 -0.6061 -0.3949  0.2190
 6672TIP3    H141431   2.363   3.462  13.869 -1.0176  1.9993  0.2717
 6672TIP3    H241432   2.279   3.351  13.927  2.0815 -0.3278  0.5540
 6673TIP3   OH241433   0.142   2.047  12.995  0.8160 -0.1124 -0.0774
 6673TIP3    H141434   0.186   2.019  13.075 -0.8577  0.9700  1.3095
 6673TIP3    H241435   0.166   2.139  12.985  1.2650 -0.3207 -1.0205
 6674TIP3   OH241436   0.599   5.134  16.990  0.0505 -0.2414 -0.2105
 6674TIP3    H141437   0.575   5.219  17.029  0.2790 -0.4649  0.4329
 6674TIP3    H241438   0.683   5.151  16.946  0.2270 -0.1954  0.1396
 6675TIP3   OH241439   0.605   3.265  13.121 -0.0877  0.3878  0.1636
 6675TIP3    H141440   0.601   3.216  13.038 -2.6533  2.5462 -1.1259
 6675TIP3    H241441   0.601   3.198  13.189 -0.7272 -1.3270 -1.4887
 6676TIP3   OH241442   4.520   5.517  16.931  0.6535  0.6148  0.0726
 6676TIP3    H141443   4.594   5.488  16.878 -0.4411  0.4699 -1.4561
 6676TIP3    H241444   4.559   5.552  17.011  2.4053  1.1520 -0.9729
 6677TIP3   OH241445   2.453   1.611  13.636  0.5047 -0.3499  0.2217
 6677TIP3    H141446   2.517   1.660  13.585  1.1519 -0.0192  1.3210
 6677TIP3    H241447   2.380   1.672  13.649 -1.3308 -1.5343 -3.2688
 6678TIP3   OH241448   3.722   5.418   6.121 -0.3359 -0.5530 -0.3150
 6678TIP3    H141449   3.761   5.505   6.133 -0.5282 -0.3021 -1.4307
 6678TIP3    H241450   3.666   5.406   6.198  0.9204 -0.3857  0.6787
 6679TIP3   OH241451   2.366   6.705   0.825 -0.1474  0.2590  0.1474
 6679TIP3    H141452   2.343   6.669   0.911  0.5605  2.1832  1.2187
 6679TIP3    H241453   2.462   6.706   0.826 -0.1400  1.8005  0.0443
 6680TIP3   OH241454   0.709   2.664   1.773  0.1014 -0.6836  0.1457
 6680TIP3    H141455   0.730   2.574   1.796  1.1186 -1.3096 -2.7337
 6680TIP3    H241456   0.647   2.657   1.700  0.7597  0.8902 -0.6219
 6681TIP3   OH241457   0.329   1.377  12.784  0.2686  1.0614  0.0577
 6681TIP3    H141458   0.409   1.331  12.759 -0.4145 -0.1722  0.0082
 6681TIP3    H241459   0.355   1.435  12.855  0.7629 -1.2013  1.8338
 6682TIP3   OH241460   4.122   4.545  15.925 -0.3081  0.1603  0.3385
 6682TIP3    H141461   4.100   4.636  15.907  0.2151 -0.1601 -2.2795
 6682TIP3    H241462   4.213   4.536  15.898 -0.6891 -1.3792 -0.5669
 6683TIP3   OH241463   5.567   0.294  13.687  0.2077 -0.1717  0.1039
 6683TIP3    H141464   5.476   0.305  13.658  0.3960  1.9505  0.1412
 6683TIP3    H241465   5.588   0.203  13.668 -1.4078 -0.2684 -1.4647
 6684TIP3   OH241466   5.918   5.648   2.444  0.0992 -0.7074  0.3352
 6684TIP3    H141467   5.936   5.555   2.460  0.2090 -0.6115  0.7586
 6684TIP3    H241468   5.903   5.685   2.530 -0.2146 -0.3838  0.1436
 6685TIP3   OH241469   4.795   0.185  10.812  0.4869 -0.3226  0.4061
 6685TIP3    H141470   4.717   0.239  10.797  0.2125 -0.9777 -0.5964
 6685TIP3    H241471   4.763   0.110  10.863  0.5221 -0.4268  0.2754
 6686TIP3   OH241472   5.632   6.083   3.341  0.6781 -0.1403 -0.4559
 6686TIP3    H141473   5.583   6.132   3.274 -1.1682 -0.8571  0.2990
 6686TIP3    H241474   5.644   6.145   3.412 -3.4892 -1.1159  1.3905
 6687TIP3   OH241475   4.721   0.823   1.199 -0.6860 -1.1791 -0.4691
 6687TIP3    H141476   4.795   0.808   1.259 -1.4842 -0.3651  0.7552
 6687TIP3    H241477   4.755   0.883   1.134 -0.2331 -0.8718  0.0415
 6688TIP3   OH241478   3.392   0.201  11.815 -0.3858 -0.2655 -0.2021
 6688TIP3    H141479   3.297   0.211  11.817 -0.3478  0.2888  2.0170
 6688TIP3    H241480   3.424   0.269  11.875  1.3570 -0.9858 -0.2636
 6689TIP3   OH241481   5.681   0.195  14.289 -0.3529 -0.1235  0.1841
 6689TIP3    H141482   5.674   0.281  14.331 -4.7374  0.2690 -0.8391
 6689TIP3    H241483   5.690   0.214  14.196 -1.2913 -0.7444 -0.0418
 6690TIP3   OH241484   5.096   5.339   0.630  0.0832 -0.3427  0.1391
 6690TIP3    H141485   5.167   5.388   0.589  1.3057 -0.6675  1.8082
 6690TIP3    H241486   5.043   5.406   0.674  0.2797 -0.2787  0.2749
 6691TIP3   OH241487   5.266   0.932  17.189 -0.5661  0.4624 -0.2611
 6691TIP3    H141488   5.323   0.981  17.249  0.3621  0.5060 -1.1520
 6691TIP3    H241489   5.196   0.994  17.167 -0.1705  0.9062 -0.2792
 6692TIP3   OH241490   0.966   0.582   3.437  0.3098  0.6308 -0.3038
 6692TIP3    H141491   1.029   0.523   3.397 -1.8976 -0.1773 -2.9292
 6692TIP3    H241492   1.007   0.669   3.431  1.2324  0.1291 -1.8352
 6693TIP3   OH241493   0.677   0.214   3.094  0.7423  0.5548 -0.4211
 6693TIP3    H141494   0.676   0.304   3.063 -1.2847  0.5366 -0.5603
 6693TIP3    H241495   0.587   0.198   3.124  1.3343 -1.0685  0.6395
 6694TIP3   OH241496   0.059   2.900   2.822  0.3597 -0.2992  0.1959
 6694TIP3    H141497   0.064   2.844   2.900 -0.5542  0.3963  0.7714
 6694TIP3    H241498   0.023   2.843   2.754  1.4318 -0.9927  0.1802
 6695TIP3   OH241499   5.840   3.374  15.834  0.2214  0.0309  0.4515
 6695TIP3    H141500   5.785   3.307  15.792 -0.2442  0.4678  0.3516
 6695TIP3    H241501   5.924   3.331  15.848  0.2298 -0.2791 -0.4881
 6696TIP3   OH241502   0.083   5.700  14.990 -0.2101 -0.3588  0.2275
 6696TIP3    H141503   0.054   5.632  15.050  0.1798 -0.1419  0.6690
 6696TIP3    H241504   0.144   5.656  14.930 -0.6773 -0.5965 -0.0812
 6697TIP3   OH241505   1.066   4.082  12.669 -0.0149 -0.0640  0.3406
 6697TIP3    H141506   1.075   3.988  12.686  0.6600 -0.4781 -1.8941
 6697TIP3    H241507   0.985   4.089  12.619  0.1966  0.4688  0.0689
 6698TIP3   OH241508   4.216   0.835  11.428 -0.3094  0.3133  0.0609
 6698TIP3    H141509   4.237   0.925  11.453 -3.4136  0.6781  1.9062
 6698TIP3    H241510   4.222   0.834  11.333  1.1030  2.0758  0.0895
 6699TIP3   OH241511   4.869   4.814  11.069 -0.1014  0.6359 -0.5439
 6699TIP3    H141512   4.918   4.844  10.992  0.8604  0.8867  0.1494
 6699TIP3    H241513   4.936   4.778  11.128 -0.7475  0.9987  0.4337
 6700TIP3   OH241514   5.182   5.654   5.247 -0.4971 -0.2753  0.2515
 6700TIP3    H141515   5.278   5.654   5.250 -0.3942 -3.4757  1.3879
 6700TIP3    H241516   5.156   5.645   5.339 -1.7735 -1.3540 -0.1874
 6701TIP3   OH241517   4.038   0.871  14.110 -0.4702 -0.4114  0.3051
 6701TIP3    H141518   4.107   0.807  14.131  0.7735  0.8338  0.1749
 6701TIP3    H241519   3.996   0.888  14.194  1.7919  1.4650  1.1929
 6702TIP3   OH241520   2.128   6.144   5.661 -0.1230  0.3457  0.2190
 6702TIP3    H141521   2.124   6.192   5.744 -1.2039 -1.0175  0.9911
 6702TIP3    H241522   2.221   6.125   5.650 -0.0541 -0.3056  1.6483
 6703TIP3   OH241523   6.335   5.469  13.541 -0.1993 -0.2979  0.1081
 6703TIP3    H141524   6.284   5.535  13.589  0.3390  0.5936 -0.5167
 6703TIP3    H241525   6.420   5.511  13.525  0.3809 -1.3795  0.2401
 6704TIP3   OH241526   5.934   5.108  15.575  0.7357 -0.5168 -0.2408
 6704TIP3    H141527   5.907   5.058  15.652  0.3182 -0.0010 -0.0473
 6704TIP3    H241528   5.983   5.182  15.610  0.7375 -0.4013 -0.4827
 6705TIP3   OH241529   3.657   4.299   1.452  0.4843  0.3724 -0.1908
 6705TIP3    H141530   3.668   4.225   1.511 -1.9202 -0.5593 -0.7877
 6705TIP3    H241531   3.614   4.262   1.375 -0.7024  2.3485 -0.5642
 6706TIP3   OH241532   6.520   4.514  11.212 -0.7202  0.3231  0.2722
 6706TIP3    H141533   6.497   4.421  11.219 -0.7471  0.3264  0.2260
 6706TIP3    H241534   6.495   4.539  11.123 -0.0716  0.1984  0.0497
 6707TIP3   OH241535   4.033   1.978  14.181  0.5095 -0.0266 -0.2436
 6707TIP3    H141536   3.960   2.039  14.184  0.0906 -0.4991 -0.6591
 6707TIP3    H241537   4.026   1.928  14.262  2.4867  2.2900  1.5003
 6708TIP3   OH241538   0.841   3.849  14.559  0.1047  0.2499 -0.1128
 6708TIP3    H141539   0.880   3.763  14.543 -0.9052 -0.1362 -0.5887
 6708TIP3    H241540   0.781   3.835  14.633  0.0998  0.6043 -0.0455
 6709TIP3   OH241541   5.226   5.065   4.171 -0.1527  0.3756 -0.3333
 6709TIP3    H141542   5.158   5.123   4.205 -0.4396  0.2912 -0.7543
 6709TIP3    H241543   5.188   4.977   4.178 -0.2534  0.3657 -0.9497
 6710TIP3   OH241544   2.678   3.864   2.936  0.2674 -0.6947  0.0962
 6710TIP3    H141545   2.751   3.889   2.880 -0.1417  0.6676  0.1565
 6710TIP3    H241546   2.600   3.901   2.894  0.0763  1.4800  2.1499
 6711TIP3   OH241547   0.288   1.090  10.892 -0.2644 -0.2099  0.0049
 6711TIP3    H141548   0.355   1.024  10.876  1.8243  1.1939  2.2616
 6711TIP3    H241549   0.292   1.148  10.816  0.9444 -0.2863 -0.0065
 6712TIP3   OH241550   0.142   4.835  12.208  0.1555 -0.8585 -0.0132
 6712TIP3    H141551   0.235   4.815  12.209  0.1038 -1.1396  1.4933
 6712TIP3    H241552   0.115   4.820  12.118  1.5179 -0.9726 -0.4230
 6713TIP3   OH241553   4.439   6.650   0.967  0.7465  0.4514 -0.6415
 6713TIP3    H141554   4.441   6.745   0.977  1.1400  0.7580 -3.0277
 6713TIP3    H241555   4.409   6.618   1.052  3.0532  2.5021  1.1055
 6714TIP3   OH241556   0.751   4.910   0.196  0.0742 -0.3160 -0.5297
 6714TIP3    H141557   0.840   4.895   0.164  0.5059  0.4671  0.2538
 6714TIP3    H241558   0.696   4.906   0.118  0.5327 -2.6866 -0.7876
 6715TIP3   OH241559   0.983   0.074  16.745 -0.8572 -1.0176 -0.1694
 6715TIP3    H141560   0.956   0.009  16.809 -0.2810 -0.7565  0.3478
 6715TIP3    H241561   0.923   0.148  16.759 -0.7767 -0.9885  0.0263
 6716TIP3   OH241562   2.847   5.940  16.611 -0.1624 -0.2326 -0.1523
 6716TIP3    H141563   2.795   5.867  16.578  1.4258 -2.1610  1.3734
 6716TIP3    H241564   2.937   5.908  16.611  0.3211  0.8249  2.7167
 6717TIP3   OH241565   4.439   3.423   5.623  0.6754 -0.1939 -0.4302
 6717TIP3    H141566   4.452   3.451   5.532  3.0685 -0.7245 -0.3236
 6717TIP3    H241567   4.506   3.356   5.636 -0.6253 -1.2138  1.2919
 6718TIP3   OH241568   2.663   6.751  15.975  0.6747 -0.5473  0.0182
 6718TIP3    H141569   2.655   6.784  16.065  0.5709  2.9241 -1.1240
 6718TIP3    H241570   2.757   6.739  15.962  0.6297 -2.0147  0.8312
 6719TIP3   OH241571   2.620   4.732   0.052  0.1615 -0.6930 -0.4169
 6719TIP3    H141572   2.689   4.684   0.098 -0.1992  0.3142  1.2428
 6719TIP3    H241573   2.556   4.752   0.120 -0.9094 -0.0575 -1.5849
 6720TIP3   OH241574   5.365   2.405  12.644  0.9757  0.4897  0.2566
 6720TIP3    H141575   5.415   2.327  12.670 -1.8656 -1.0340  1.5530
 6720TIP3    H241576   5.305   2.421  12.717  1.9434  4.4843  0.4268
 6721TIP3   OH241577   5.080   2.982  16.272 -0.2613 -0.3507 -0.2612
 6721TIP3    H141578   5.165   3.020  16.292 -1.0499  0.6321  1.5162
 6721TIP3    H241579   5.017   3.048  16.301 -1.6418 -1.5396 -0.4275
 6722TIP3   OH241580   5.458   0.528   1.674  0.0500  0.2091 -0.0128
 6722TIP3    H141581   5.404   0.569   1.742  0.4437 -0.4025  0.6791
 6722TIP3    H241582   5.504   0.457   1.719 -2.0952 -2.3258 -1.5500
 6723TIP3   OH241583   5.172   4.536   4.201  0.0822 -0.1311  0.2261
 6723TIP3    H141584   5.170   4.452   4.247 -0.4820 -0.5061 -0.4416
 6723TIP3    H241585   5.191   4.512   4.110  0.1885  0.4911  0.0842
 6724TIP3   OH241586   0.689   5.744   3.648  0.3030  0.3042 -0.2299
 6724TIP3    H141587   0.632   5.723   3.722  1.3363 -2.1219 -0.0425
 6724TIP3    H241588   0.654   5.692   3.575  1.9011 -0.8043 -0.2510
 6725TIP3   OH241589   5.430   3.461  13.078  0.0169  0.1052 -0.2342
 6725TIP3    H141590   5.506   3.489  13.129 -0.9872  1.0573  0.7929
 6725TIP3    H241591   5.429   3.518  13.002  0.7621 -0.4394 -0.6665
 6726TIP3   OH241592   4.014   4.441   4.864 -0.3260 -0.2846  0.8905
 6726TIP3    H141593   4.014   4.445   4.959  2.1882 -0.0440  0.9629
 6726TIP3    H241594   4.107   4.442   4.840 -0.8529  1.6760 -1.6256
 6727TIP3   OH241595   1.946   5.657  11.088 -0.0032 -0.6339 -0.2907
 6727TIP3    H141596   1.971   5.676  11.179 -0.8649 -1.7444  0.1988
 6727TIP3    H241597   2.004   5.585  11.062 -0.5353 -1.1012 -0.2100
 6728TIP3   OH241598   2.847   6.450  11.864 -0.0035  0.1754  0.2539
 6728TIP3    H141599   2.845   6.456  11.768 -2.1946  0.4843  0.2669
 6728TIP3    H241600   2.809   6.364  11.883 -1.1095  0.7908  0.8726
 6729TIP3   OH241601   6.027   4.068  14.061  0.6935 -0.3649  0.1701
 6729TIP3    H141602   5.935   4.062  14.088  0.4774  0.2683 -0.3833
 6729TIP3    H241603   6.024   4.053  13.966  1.1660 -0.3756  0.1582
 6730TIP3   OH241604   6.245   1.632   2.631 -0.4097  0.3873  0.3193
 6730TIP3    H141605   6.338   1.610   2.623 -0.2875  1.3983 -2.3814
 6730TIP3    H241606   6.245   1.720   2.669 -0.3440 -0.0914  1.4460
 6731TIP3   OH241607   0.298   4.409   2.405  0.6327  0.0166 -0.0149
 6731TIP3    H141608   0.282   4.499   2.379 -1.3474 -0.3155 -0.0602
 6731TIP3    H241609   0.297   4.360   2.323  0.1307 -0.2530  0.1499
 6732TIP3   OH241610   5.416   5.100   3.276 -0.0515 -0.2164  0.0800
 6732TIP3    H141611   5.408   5.045   3.354  0.7897 -2.3889 -1.2901
 6732TIP3    H241612   5.471   5.173   3.304 -0.1225 -0.7094  1.6273
 6733TIP3   OH241613   1.610   0.195  16.363 -0.3276  0.0346 -0.0872
 6733TIP3    H141614   1.668   0.267  16.336  2.2696 -2.4269 -1.6136
 6733TIP3    H241615   1.651   0.162  16.444 -2.4936  1.2306  1.6017
 6734TIP3   OH241616   0.712   2.704   2.153  0.5561 -0.3879 -0.7182
 6734TIP3    H141617   0.776   2.720   2.084  1.4018 -3.2661 -0.7621
 6734TIP3    H241618   0.762   2.662   2.223 -0.6212  0.8081  0.9169
 6735TIP3   OH241619   3.049   2.652  17.075  0.3567 -0.1103  0.3613
 6735TIP3    H141620   3.059   2.710  17.000 -2.0626  0.8232  0.6728
 6735TIP3    H241621   2.964   2.676  17.112  0.6141 -1.8868  2.2404
 6736TIP3   OH241622   2.677   1.422   3.118 -0.2501  0.4023 -0.0597
 6736TIP3    H141623   2.743   1.445   3.183  0.5345 -1.7361 -0.0330
 6736TIP3    H241624   2.697   1.478   3.043  1.4541 -0.0106  0.0501
 6737TIP3   OH241625   3.036   0.640   1.215 -0.4179  0.0560  0.7369
 6737TIP3    H141626   2.959   0.620   1.162  0.6149 -0.3132 -0.7107
 6737TIP3    H241627   3.016   0.606   1.302 -1.6055 -0.6658  0.2039
 6738TIP3   OH241628   5.836   4.824  17.048  0.4942  0.1091  0.1192
 6738TIP3    H141629   5.882   4.903  17.020 -0.6100  1.1536  1.1566
 6738TIP3    H241630   5.896   4.782  17.110  0.2748  1.1753  1.0646
 6739TIP3   OH241631   5.250   3.106   2.163  0.0741  0.0604 -0.2582
 6739TIP3    H141632   5.204   3.168   2.106  0.5551  1.4034  0.7549
 6739TIP3    H241633   5.281   3.160   2.236  1.8526 -1.1066 -0.1026
 6740TIP3   OH241634   3.181   1.457  10.106 -0.2070 -0.5511 -0.3834
 6740TIP3    H141635   3.151   1.398  10.175  0.0051 -0.9162 -0.5998
 6740TIP3    H241636   3.223   1.530  10.153  0.1523 -0.9155 -0.1332
 6741TIP3   OH241637   1.028   2.646   3.301  0.6271 -0.1068 -0.4843
 6741TIP3    H141638   0.944   2.646   3.347  0.3444  1.0562 -0.9728
 6741TIP3    H241639   1.088   2.601   3.361  0.4418  1.9756  1.3949
 6742TIP3   OH241640   2.333   4.039  12.541  0.2047  0.1585  0.4122
 6742TIP3    H141641   2.364   4.065  12.454 -2.1086 -0.0434 -0.5495
 6742TIP3    H241642   2.358   4.111  12.598  3.0714 -0.3538 -0.0598
 6743TIP3   OH241643   0.577   0.440  16.805  0.3964 -0.2784  0.2137
 6743TIP3    H141644   0.658   0.491  16.795 -0.0308  0.3556 -0.1303
 6743TIP3    H241645   0.520   0.472  16.735  0.7251 -2.4788 -1.1399
 6744TIP3   OH241646   6.437   1.216   4.415 -0.1861 -0.5002  0.5357
 6744TIP3    H141647   6.372   1.161   4.369 -0.0164  0.0645 -0.4101
 6744TIP3    H241648   6.453   1.288   4.355  1.7765 -0.9358  0.4860
 6745TIP3   OH241649   3.401   6.036   0.211 -0.1974 -0.6572 -0.8335
 6745TIP3    H141650   3.421   5.949   0.248 -3.1598 -0.5896  1.2692
 6745TIP3    H241651   3.343   6.017   0.137  0.4321 -0.4952 -1.3789
 6746TIP3   OH241652   2.212   2.812  13.966  0.0323 -0.2706  0.4241
 6746TIP3    H141653   2.220   2.796  14.060 -0.1184 -2.4197  0.1316
 6746TIP3    H241654   2.299   2.843  13.940  0.3649 -0.5990  1.1136
 6747TIP3   OH241655   2.186   5.428   5.420 -0.2804  0.0861 -0.0850
 6747TIP3    H141656   2.231   5.357   5.373  0.6348  1.0458 -0.7048
 6747TIP3    H241657   2.257   5.482   5.454 -0.9701  0.7968  0.2286
 6748TIP3   OH241658   2.686   0.098  12.210 -0.0323 -0.4653 -0.3126
 6748TIP3    H141659   2.762   0.070  12.261 -0.6268 -1.8084 -0.1426
 6748TIP3    H241660   2.623   0.027  12.219 -0.7003 -0.0908 -1.7634
 6749TIP3   OH241661   1.849   4.547  12.390  0.3713  0.1651 -0.0043
 6749TIP3    H141662   1.808   4.622  12.432 -0.5226 -0.4838  0.3039
 6749TIP3    H241663   1.796   4.472  12.417  0.9919 -0.5252 -0.6516
 6750TIP3   OH241664   2.607   1.874  16.093  0.0569  0.4052 -0.1967
 6750TIP3    H141665   2.588   1.830  16.175 -1.4492 -1.5744 -1.4968
 6750TIP3    H241666   2.664   1.947  16.117  0.4839 -0.6801  2.4361
 6751TIP3   OH241667   2.697   5.466  13.856 -0.0962  0.2313 -0.1055
 6751TIP3    H141668   2.682   5.532  13.789 -0.8253  0.5686  0.3708
 6751TIP3    H241669   2.789   5.442  13.847  0.0820  1.0524 -0.5147
 6752TIP3   OH241670   3.648   3.350  17.106 -0.3111  0.4378 -0.6031
 6752TIP3    H141671   3.720   3.288  17.104 -0.9304 -0.3361 -0.0174
 6752TIP3    H241672   3.688   3.434  17.127  0.5236  0.2119 -1.2652
 6753TIP3   OH241673   2.296   3.595  10.864  0.2336 -0.2105  0.1029
 6753TIP3    H141674   2.372   3.584  10.920 -0.0068 -0.9825  0.2933
 6753TIP3    H241675   2.331   3.632  10.783  0.8263 -0.6688  0.1445
 6754TIP3   OH241676   3.441   3.944   1.963  0.1528  0.0571  0.0164
 6754TIP3    H141677   3.495   3.865   1.968  0.5056  0.3754  2.4376
 6754TIP3    H241678   3.351   3.911   1.962  0.3034 -0.4098 -1.9156
 6755TIP3   OH241679   1.972   6.238   3.877  0.2706  0.1839  0.7091
 6755TIP3    H141680   1.931   6.322   3.857  0.2878 -0.0962 -0.6053
 6755TIP3    H241681   2.054   6.260   3.921  0.9583  0.9284 -0.8756
 6756TIP3   OH241682   4.670   5.661   1.545 -0.2997  0.9455  0.2993
 6756TIP3    H141683   4.673   5.737   1.604 -1.3453  1.4764 -0.2981
 6756TIP3    H241684   4.584   5.667   1.504 -0.1092 -0.1792 -0.2829
 6757TIP3   OH241685   4.732   1.205  12.610 -0.6680 -0.1344  0.1761
 6757TIP3    H141686   4.741   1.240  12.699  0.7085  0.0227 -0.0056
 6757TIP3    H241687   4.816   1.165  12.591 -0.5692  0.7547 -1.4483
 6758TIP3   OH241688   1.589   0.354   4.298  0.4236  0.4373 -0.5252
 6758TIP3    H141689   1.557   0.432   4.343  0.2392  0.3564 -0.5169
 6758TIP3    H241690   1.563   0.365   4.207 -1.1672 -0.4408 -0.2049
 6759TIP3   OH241691   3.748   0.128  12.661  0.0935 -0.2949 -0.0999
 6759TIP3    H141692   3.668   0.089  12.626 -1.9503  0.9725  2.7752
 6759TIP3    H241693   3.773   0.070  12.733  0.6749  0.3564  0.2249
 6760TIP3   OH241694   1.507   4.747  12.088 -0.3147 -0.5658 -0.3366
 6760TIP3    H141695   1.436   4.731  12.027  0.0083 -0.7781 -0.6614
 6760TIP3    H241696   1.483   4.698  12.167 -0.0674 -1.4237 -0.7879
 6761TIP3   OH241697   3.794   6.545   2.621 -0.1995  0.0834  0.3031
 6761TIP3    H141698   3.877   6.586   2.645  0.5057 -0.9190 -0.3253
 6761TIP3    H241699   3.751   6.607   2.563  1.1976 -0.3358 -1.2692
 6762TIP3   OH241700   3.375   5.706  12.073  0.0640 -0.4024  0.3018
 6762TIP3    H141701   3.390   5.761  12.150 -1.1990 -0.1473  0.3909
 6762TIP3    H241702   3.374   5.617  12.108 -1.7328 -0.2117  0.8163
 6763TIP3   OH241703   2.653   2.722  14.752 -0.6678 -0.0568  0.8626
 6763TIP3    H141704   2.693   2.751  14.835 -1.2310  1.1240  0.7304
 6763TIP3    H241705   2.720   2.665  14.713 -0.5584 -1.0050  2.3187
 6764TIP3   OH241706   1.533   2.538   2.221  0.7589 -0.0495  0.1180
 6764TIP3    H141707   1.583   2.477   2.166  0.4718 -1.7358  1.6465
 6764TIP3    H241708   1.600   2.592   2.264  1.0226  0.6366 -1.1096
 6765TIP3   OH241709   4.292   5.030   0.815  0.3216  0.3791  0.7440
 6765TIP3    H141710   4.236   5.024   0.738 -0.1139  0.4360  1.0521
 6765TIP3    H241711   4.243   5.083   0.877  0.7380  0.4697  1.0025
 6766TIP3   OH241712   3.218   6.747   4.571  0.0474  0.0299 -0.2818
 6766TIP3    H141713   3.265   6.716   4.494 -1.9292 -0.7746 -1.2361
 6766TIP3    H241714   3.187   6.667   4.614 -2.3726  0.5274 -0.9824
 6767TIP3   OH241715   6.528   2.678   4.482  0.0242  0.0357  0.2696
 6767TIP3    H141716   6.483   2.609   4.529 -1.3217  0.3618 -0.4847
 6767TIP3    H241717   6.576   2.633   4.413 -0.7474 -0.1739 -0.1416
 6768TIP3   OH241718   5.637   3.818   3.707  0.4135  0.0917 -0.4834
 6768TIP3    H141719   5.682   3.746   3.662  0.5824  0.7889 -1.4558
 6768TIP3    H241720   5.707   3.874   3.739  0.2732  0.8915 -1.5275
 6769TIP3   OH241721   0.046   4.656   2.110  0.6083 -0.4887  0.4207
 6769TIP3    H141722   0.065   4.653   2.016 -1.3354 -0.6352 -0.0059
 6769TIP3    H241723  -0.020   4.588   2.123 -0.7878  1.0014  1.4555
 6770TIP3   OH241724   4.406   4.209  14.428 -0.4458  0.3541 -0.0730
 6770TIP3    H141725   4.428   4.273  14.361  0.3255  0.5802  0.3846
 6770TIP3    H241726   4.483   4.206  14.485 -0.6778 -0.5988  0.2106
 6771TIP3   OH241727   0.894   2.591  15.183 -0.3492 -0.0602  0.1749
 6771TIP3    H141728   0.849   2.611  15.101 -0.2388 -0.3126  0.0519
 6771TIP3    H241729   0.941   2.671  15.205  1.2303 -0.5923 -1.0463
 6772TIP3   OH241730   1.942   0.754   2.445 -0.2122 -0.2563  0.1708
 6772TIP3    H141731   1.849   0.771   2.463 -0.1824 -0.3077  0.3716
 6772TIP3    H241732   1.941   0.706   2.362 -0.2926  0.7175 -0.4103
 6773TIP3   OH241733   1.864   5.344  12.759 -0.6237  0.0724  0.2833
 6773TIP3    H141734   1.928   5.313  12.823  1.1643  1.2561 -0.8510
 6773TIP3    H241735   1.795   5.278  12.761  0.4414 -1.0748  1.8197
 6774TIP3   OH241736   4.603   2.045   3.980 -0.0715 -0.2397 -0.5522
 6774TIP3    H141737   4.656   2.080   3.908 -0.1436 -0.7293 -0.8477
 6774TIP3    H241738   4.657   1.976   4.017  0.1190  0.2558  0.1049
 6775TIP3   OH241739   6.384   4.405   3.628 -0.5506 -0.5686  0.2194
 6775TIP3    H141740   6.392   4.485   3.679 -0.7090  0.4825 -1.3309
 6775TIP3    H241741   6.292   4.381   3.634 -0.5785 -0.4195  0.3866
 6776TIP3   OH241742   6.331   4.082   1.859 -0.0403 -0.5345 -0.4027
 6776TIP3    H141743   6.327   4.178   1.860 -1.1590 -0.5531  1.4860
 6776TIP3    H241744   6.421   4.062   1.885 -0.2432  0.0215  0.7852
 6777TIP3   OH241745   2.149   5.427  14.083 -0.3411 -0.0915 -0.3213
 6777TIP3    H141746   2.094   5.442  14.159  0.7297  0.2795  0.4081
 6777TIP3    H241747   2.088   5.419  14.010 -1.5310 -2.1066  0.7872
 6778TIP3   OH241748   3.163   4.149   6.185  0.3943  0.2319 -0.0067
 6778TIP3    H141749   3.111   4.085   6.136  1.9898 -1.0521 -0.1002
 6778TIP3    H241750   3.156   4.119   6.276  0.1206  0.6915  0.1283
 6779TIP3   OH241751   2.055   4.483   5.542  0.4141  0.3789  0.1052
 6779TIP3    H141752   2.065   4.577   5.529 -2.4305  0.7390 -0.1275
 6779TIP3    H241753   2.074   4.445   5.456  2.7830  0.5334  0.4865
 6780TIP3   OH241754   1.199   0.717  16.122  0.1957 -0.6437 -0.1311
 6780TIP3    H141755   1.196   0.751  16.033  1.3557 -0.5200 -0.1326
 6780TIP3    H241756   1.285   0.676  16.130 -0.3822 -1.8022  0.5208
 6781TIP3   OH241757   5.128   0.960   3.275 -0.7089 -0.8980 -0.0733
 6781TIP3    H141758   5.206   1.009   3.300 -1.0534 -0.8404  0.9474
 6781TIP3    H241759   5.057   1.003   3.324 -1.6978  0.2339 -2.3643
 6782TIP3   OH241760   3.505   3.212  16.312 -0.2532 -0.3135 -0.1704
 6782TIP3    H141761   3.510   3.117  16.327 -2.8587 -0.2269  2.2343
 6782TIP3    H241762   3.441   3.221  16.241 -0.2605 -0.3708 -0.1711
 6783TIP3   OH241763   2.197   0.702   5.738  0.7266 -0.2891  0.4020
 6783TIP3    H141764   2.232   0.790   5.750  0.4837 -0.3871  2.1284
 6783TIP3    H241765   2.102   0.713   5.744  0.6051 -0.4791 -0.9123
 6784TIP3   OH241766   4.235   5.968   4.921 -0.2692  0.3020 -0.0826
 6784TIP3    H141767   4.244   5.881   4.882  1.1773  0.1979  0.4363
 6784TIP3    H241768   4.293   6.023   4.869 -0.0650  0.6431  0.5038
 6785TIP3   OH241769   6.311   0.346  14.202  0.3280 -0.4224  0.0042
 6785TIP3    H141770   6.307   0.334  14.297  3.2093 -2.6988 -0.0138
 6785TIP3    H241771   6.265   0.269  14.167  1.8684 -1.2308 -0.3408
 6786TIP3   OH241772   4.064   3.728   0.511 -0.8956  0.1710  0.2894
 6786TIP3    H141773   4.015   3.721   0.429  0.2401 -0.1656 -0.3885
 6786TIP3    H241774   4.068   3.638   0.544 -0.7471  0.2029  0.3572
 6787TIP3   OH241775   5.703   3.386   5.848  0.4111  0.2504 -0.6306
 6787TIP3    H141776   5.737   3.312   5.796  1.2925  0.4439 -0.3501
 6787TIP3    H241777   5.725   3.364   5.938 -0.3589  0.3159 -0.4254
 6788TIP3   OH241778   3.184   1.361   3.934  0.1107  0.4612  0.0502
 6788TIP3    H141779   3.141   1.399   4.011 -0.3013  2.1615 -0.9626
 6788TIP3    H241780   3.258   1.419   3.917  0.1136  0.1885 -0.9139
 6789TIP3   OH241781   5.738   5.486   2.708 -0.1146 -0.3122  0.0356
 6789TIP3    H141782   5.770   5.430   2.779 -0.5207 -0.5216  0.0571
 6789TIP3    H241783   5.805   5.478   2.640  0.2217 -0.1994  0.3491
 6790TIP3   OH241784   4.423   6.267  13.761 -0.5581  0.3902  0.1193
 6790TIP3    H141785   4.428   6.348  13.811 -0.7056  0.1227  0.5720
 6790TIP3    H241786   4.353   6.217  13.803  1.2372 -1.0902  1.5210
 6791TIP3   OH241787   0.383   6.758  13.177  0.5237  0.5121  0.4224
 6791TIP3    H141788   0.343   6.827  13.230 -1.9176  1.0641 -1.9455
 6791TIP3    H241789   0.434   6.804  13.111  0.8635 -0.0295  0.3011
 6792TIP3   OH241790   6.683   0.143   0.457 -0.2177  0.1829 -0.3533
 6792TIP3    H141791   6.707   0.058   0.494 -0.7010  0.7816  1.4492
 6792TIP3    H241792   6.687   0.130   0.363  4.2326 -0.6213 -0.3001
 6793TIP3   OH241793   1.939   2.563   3.447 -0.5064 -0.0580 -0.1233
 6793TIP3    H141794   1.894   2.602   3.372  1.9811  0.8516 -1.2583
 6793TIP3    H241795   2.001   2.501   3.408 -0.8294 -1.3929  1.3759
 6794TIP3   OH241796   0.713   3.005  15.298 -0.8107  0.1044 -0.0028
 6794TIP3    H141797   0.779   2.950  15.338  1.3682  1.7277 -1.1540
 6794TIP3    H241798   0.724   2.991  15.204 -3.1061 -0.6369 -0.2191
 6795TIP3   OH241799   6.014   0.726   2.726  0.4690 -0.2598  0.0928
 6795TIP3    H141800   5.968   0.807   2.747 -1.8473 -0.4072 -3.4322
 6795TIP3    H241801   5.970   0.659   2.778 -0.3571  0.2382  0.0536
 6796TIP3   OH241802   1.254   5.003  15.423 -0.8599 -0.1512 -0.2400
 6796TIP3    H141803   1.200   5.027  15.348 -1.3874  0.2505  0.2563
 6796TIP3    H241804   1.343   5.027  15.397 -1.0056 -0.2398 -0.8261
 6797TIP3   OH241805   3.069   3.438   0.695  0.2650  0.4314  0.1033
 6797TIP3    H141806   2.986   3.392   0.711  0.5038 -0.0681 -0.0806
 6797TIP3    H241807   3.071   3.508   0.760 -0.4492  0.6385 -0.0875
 6798TIP3   OH241808   6.145   3.174   1.067 -0.3356 -0.0770  0.0916
 6798TIP3    H141809   6.068   3.131   1.102 -1.1758  1.6298  0.4611
 6798TIP3    H241810   6.113   3.226   0.993  0.2830  1.2255  0.6897
 6799TIP3   OH241811   6.650   1.658   5.373  0.0370  0.3378  0.3949
 6799TIP3    H141812   6.590   1.597   5.416 -1.4806  2.1093  0.9396
 6799TIP3    H241813   6.612   1.745   5.389  0.3572  1.2638 -3.0017
 6800TIP3   OH241814   1.098   5.291   4.695 -0.2733 -0.0739  0.9308
 6800TIP3    H141815   1.146   5.359   4.647 -0.4881  0.2126  1.1145
 6800TIP3    H241816   1.006   5.306   4.671 -0.1123 -2.2646 -1.5248
 6801TIP3   OH241817   1.940   3.761   3.664  0.4012 -0.2254 -0.5436
 6801TIP3    H141818   1.985   3.692   3.713  2.6131  0.4623 -1.4765
 6801TIP3    H241819   1.849   3.731   3.658  0.4563 -1.2193  2.2801
 6802TIP3   OH241820   0.617   6.466   0.243  0.1807 -0.1311  0.2394
 6802TIP3    H141821   0.649   6.423   0.163  1.2011 -0.1266  0.6411
 6802TIP3    H241822   0.618   6.396   0.309  0.4415  0.1549  0.5356
 6803TIP3   OH241823   4.813   6.294   2.888  0.0130 -0.3719 -0.1265
 6803TIP3    H141824   4.747   6.225   2.900  0.1095 -0.4451 -0.0083
 6803TIP3    H241825   4.896   6.251   2.909 -0.0374  0.0665  1.0402
 6804TIP3   OH241826   0.766   6.367   2.017 -0.3381 -0.1319 -0.1937
 6804TIP3    H141827   0.677   6.353   2.049 -0.1576  0.6251  0.6656
 6804TIP3    H241828   0.768   6.322   1.932 -1.5308 -0.1694 -0.2188
 6805TIP3   OH241829   2.835   5.432   2.501 -0.0867 -0.1613  0.1499
 6805TIP3    H141830   2.907   5.371   2.485 -0.6420 -0.8025  0.0350
 6805TIP3    H241831   2.757   5.384   2.473 -0.5383  0.5886  0.1090
 6806TIP3   OH241832   3.564   4.289  12.074 -0.1199 -0.0237 -0.5888
 6806TIP3    H141833   3.615   4.223  12.028 -0.2115 -0.7039  0.2583
 6806TIP3    H241834   3.593   4.283  12.165 -0.7140  0.5418 -0.3520
 6807TIP3   OH241835   5.855   3.125   3.544  0.2432 -0.3642  0.3038
 6807TIP3    H141836   5.804   3.052   3.509 -0.2311  0.8512 -1.7476
 6807TIP3    H241837   5.803   3.159   3.616  0.4492 -1.9614  1.2600
 6808TIP3   OH241838   5.599   6.177  10.921 -0.3249  0.7229  0.3280
 6808TIP3    H141839   5.536   6.195  10.851 -0.0027  1.6441  0.2518
 6808TIP3    H241840   5.548   6.131  10.988 -0.4241 -0.9892 -0.8706
 6809TIP3   OH241841   2.077   2.471  11.904  0.4431  0.1327  0.1316
 6809TIP3    H141842   2.012   2.496  11.838  0.1335 -0.6550  0.1280
 6809TIP3    H241843   2.159   2.511  11.873  0.0586  0.7570 -0.0992
 6810TIP3   OH241844   1.133   2.673   5.138 -0.0012 -0.3577  0.1250
 6810TIP3    H141845   1.185   2.671   5.218 -0.3940  1.3661  0.4662
 6810TIP3    H241846   1.046   2.701   5.167  0.5857  3.4090 -1.1637
 6811TIP3   OH241847   3.233   3.465   1.704  0.1508 -0.2364  0.1466
 6811TIP3    H141848   3.150   3.417   1.701 -0.9459  1.6293 -1.5358
 6811TIP3    H241849   3.282   3.434   1.628 -0.8782  1.7032 -1.3980
 6812TIP3   OH241850   1.572   2.428  16.593 -0.0749 -0.1431  0.3148
 6812TIP3    H141851   1.660   2.392  16.604  0.0235 -0.0481 -0.1454
 6812TIP3    H241852   1.533   2.422  16.680  0.1851 -0.7096  0.3960
 6813TIP3   OH241853   2.364   5.425   2.636  0.3701 -0.5422  0.6422
 6813TIP3    H141854   2.370   5.479   2.715 -0.0055  0.1157  0.2346
 6813TIP3    H241855   2.415   5.473   2.570  0.2525 -0.8141  0.3479
 6814TIP3   OH241856   5.154   4.276   4.302 -0.2511 -0.3568  0.1840
 6814TIP3    H141857   5.224   4.247   4.243  0.4073  0.6598  0.4350
 6814TIP3    H241858   5.100   4.198   4.315  0.0250 -0.7965 -1.1428
 6815TIP3   OH241859   0.306   2.712  11.437 -0.6881 -0.3840  0.0029
 6815TIP3    H141860   0.248   2.643  11.469 -0.1342 -0.8294  0.0609
 6815TIP3    H241861   0.352   2.673  11.363  0.3561 -0.4089  0.6588
 6816TIP3   OH241862   2.067   3.882  16.727  0.0576 -0.3377 -0.4701
 6816TIP3    H141863   2.012   3.954  16.696  0.3099 -0.1898 -0.5775
 6816TIP3    H241864   2.153   3.900  16.689  0.6010  0.3224  1.0019
 6817TIP3   OH241865   2.744   3.746  10.754  0.4475 -0.0469  0.1641
 6817TIP3    H141866   2.808   3.700  10.699  0.6197  0.9734 -0.4984
 6817TIP3    H241867   2.728   3.685  10.826 -0.0000 -1.5362 -1.1390
 6818TIP3   OH241868   5.588   4.530   5.590 -0.2999 -0.0478  0.0492
 6818TIP3    H141869   5.496   4.501   5.595 -0.3670  0.1727  0.0783
 6818TIP3    H241870   5.583   4.624   5.578 -0.1149 -0.2204 -1.6303
 6819TIP3   OH241871   2.526   0.424  11.065 -0.0212  0.4045 -0.0674
 6819TIP3    H141872   2.518   0.493  10.999 -1.6068 -0.3444 -0.7032
 6819TIP3    H241873   2.548   0.346  11.014  1.0262  0.2624  0.5681
 6820TIP3   OH241874   2.164   1.698   1.266  0.4961  0.5206  0.0128
 6820TIP3    H141875   2.152   1.703   1.361  3.5502 -0.3867  0.5503
 6820TIP3    H241876   2.246   1.745   1.250  0.8932 -0.7381 -1.9397
 6821TIP3   OH241877   0.095   5.908   5.729  0.6272 -0.3390  0.3144
 6821TIP3    H141878   0.150   5.878   5.656 -1.5779 -2.2799 -0.6654
 6821TIP3    H241879   0.142   5.983   5.765  5.0643 -3.0180  0.9393
 6822TIP3   OH241880   2.000   6.081  11.016 -0.3349 -0.3750  0.9136
 6822TIP3    H141881   2.048   6.163  11.023  0.2858 -0.7436  1.1457
 6822TIP3    H241882   1.928   6.089  11.078 -0.6924  0.2649  0.4215
 6823TIP3   OH241883   4.545   1.880  17.058  0.2382 -0.1337 -0.1382
 6823TIP3    H141884   4.627   1.927  17.071 -0.1691  0.5827 -0.0516
 6823TIP3    H241885   4.569   1.788  17.055  0.8598 -0.0664  1.5928
 6824TIP3   OH241886   1.787   6.589   4.579  0.7951 -0.3954 -0.5414
 6824TIP3    H141887   1.737   6.575   4.499 -1.6552  0.5307  0.7058
 6824TIP3    H241888   1.842   6.512   4.587 -1.9440 -2.5429 -1.0127
 6825TIP3   OH241889   2.133   0.120   5.701  0.2958  0.2213  0.0437
 6825TIP3    H141890   2.130   0.200   5.648  2.5050 -0.4814 -1.2901
 6825TIP3    H241891   2.152   0.050   5.639 -2.4820 -1.5802  1.0541
 6826TIP3   OH241892   5.878   1.024  13.282 -0.4316 -0.1324  0.0056
 6826TIP3    H141893   5.787   1.051  13.284 -0.8347 -1.4996  1.0126
 6826TIP3    H241894   5.886   0.959  13.351  0.9854 -1.0332 -0.9598
 6827TIP3   OH241895   1.455   4.076  14.531 -0.3177 -0.1537  0.0105
 6827TIP3    H141896   1.399   4.022  14.586 -1.4416  0.2775 -0.6758
 6827TIP3    H241897   1.452   4.163  14.572 -0.6923  0.0283 -0.3985
 6828TIP3   OH241898   4.539   0.181   2.593 -0.0946 -0.3939 -0.0158
 6828TIP3    H141899   4.534   0.155   2.685  1.3503 -0.8958 -0.0466
 6828TIP3    H241900   4.632   0.169   2.571  0.1183  2.1646 -0.8129
 6829TIP3   OH241901   1.894   3.845  14.338 -0.0852  0.7779 -0.4652
 6829TIP3    H141902   1.944   3.926  14.326 -0.4015  1.6092  2.8422
 6829TIP3    H241903   1.809   3.874  14.371 -1.7107 -0.8005 -2.9244
 6830TIP3   OH241904   5.700   0.714  16.082  0.1364 -0.7434  0.0040
 6830TIP3    H141905   5.782   0.734  16.127 -0.4696 -1.8468  1.7337
 6830TIP3    H241906   5.641   0.785  16.106  0.0612 -0.9069  0.3237
 6831TIP3   OH241907   6.552   0.465  12.828  0.5408  0.6041 -0.2715
 6831TIP3    H141908   6.498   0.389  12.811  0.7791  0.6223 -1.1926
 6831TIP3    H241909   6.600   0.479  12.746  1.2068  1.1664  0.1999
 6832TIP3   OH241910   1.924   3.788   5.225 -0.2992 -0.1308  0.5030
 6832TIP3    H141911   1.971   3.723   5.172 -2.1462  0.5467 -2.1800
 6832TIP3    H241912   1.992   3.830   5.278  1.5822 -1.2898 -0.8575
 6833TIP3   OH241913   0.626   1.428  15.511 -0.3146  0.7371  0.1944
 6833TIP3    H141914   0.644   1.522  15.508  1.4811  0.4465  0.5432
 6833TIP3    H241915   0.678   1.392  15.439 -0.7724 -0.0173  0.2370
 6834TIP3   OH241916   4.372   2.037   1.744  0.2023 -0.1551 -0.7020
 6834TIP3    H141917   4.376   2.114   1.801 -1.1938 -0.1797 -0.5410
 6834TIP3    H241918   4.338   2.070   1.661  0.7662 -0.3953 -1.0329
 6835TIP3   OH241919   0.242   6.722  16.314  0.5187  0.1698 -0.1655
 6835TIP3    H141920   0.194   6.805  16.323 -1.0546 -0.7459  0.1453
 6835TIP3    H241921   0.332   6.745  16.338 -0.2644  1.3937  1.9854
 6836TIP3   OH241922   6.609   4.078  15.429 -0.0412 -0.1927 -0.2385
 6836TIP3    H141923   6.616   4.057  15.522 -0.2193 -1.5012 -0.5014
 6836TIP3    H241924   6.700   4.088  15.401 -0.0242  2.7546  0.5779
 6837TIP3   OH241925   4.229   5.614   1.231 -0.6854 -0.4749 -0.3393
 6837TIP3    H141926   4.175   5.538   1.254  1.1831 -1.1693  2.1557
 6837TIP3    H241927   4.168   5.687   1.230 -1.8035 -1.2857  2.0006
 6838TIP3   OH241928   5.151   2.898   3.631  0.5475 -0.8184  0.5547
 6838TIP3    H141929   5.203   2.863   3.559  1.2233 -0.1015  0.6802
 6838TIP3    H241930   5.146   2.826   3.694  1.1973 -0.9680  0.4396
 6839TIP3   OH241931   4.774   3.151   5.874 -0.0667  0.4273 -0.5971
 6839TIP3    H141932   4.839   3.092   5.913 -0.2802  0.7292  0.2436
 6839TIP3    H241933   4.814   3.238   5.880 -1.2392  0.9110  1.6576
 6840TIP3   OH241934   3.920   0.799   0.521  0.0859 -0.1108  0.5105
 6840TIP3    H141935   3.963   0.885   0.525  1.3588 -0.7728  1.2409
 6840TIP3    H241936   3.978   0.740   0.568 -0.3144 -1.5842 -0.7722
 6841TIP3   OH241937   5.508   3.392  11.378  0.1094  0.3242  0.4472
 6841TIP3    H141938   5.434   3.442  11.413 -2.1889 -1.8522 -0.9678
 6841TIP3    H241939   5.479   3.364  11.291  2.1516 -1.5808  0.2946
 6842TIP3   OH241940   1.253   3.544   0.419 -0.1956  0.3910  0.4335
 6842TIP3    H141941   1.282   3.632   0.395 -0.4190  0.0060 -1.4204
 6842TIP3    H241942   1.309   3.519   0.492 -0.5704  2.3126  1.4547
 6843TIP3   OH241943   3.434   2.190  12.961 -0.2895  0.0256 -0.5391
 6843TIP3    H141944   3.452   2.260  13.024  0.8495 -0.4558 -0.3004
 6843TIP3    H241945   3.370   2.134  13.005  0.4728 -0.2876  0.2005
 6844TIP3   OH241946   4.204   5.490   0.503  0.0050  0.2319  0.4325
 6844TIP3    H141947   4.144   5.415   0.504  0.4692 -0.2102 -1.1540
 6844TIP3    H241948   4.289   5.453   0.526  0.2262  0.2473 -0.3084
 6845TIP3   OH241949   6.055   3.321   3.670  0.4925  0.1524  0.0707
 6845TIP3    H141950   6.056   3.240   3.722  3.1612  0.9840  1.5490
 6845TIP3    H241951   6.020   3.387   3.729  1.0509  0.5926 -0.0773
 6846TIP3   OH241952   2.441   2.687   1.538  0.4496 -0.0779  0.1596
 6846TIP3    H141953   2.354   2.670   1.576  0.3584 -0.7901 -0.3515
 6846TIP3    H241954   2.496   2.709   1.613 -0.0427 -0.1447  0.5470
 6847TIP3   OH241955   6.735   1.356  11.600 -0.4688  0.2270  0.2655
 6847TIP3    H141956   6.810   1.409  11.574  0.1782 -0.6486  0.3061
 6847TIP3    H241957   6.765   1.308  11.677  0.6617 -3.7640 -2.3765
 6848TIP3   OH241958   4.315   5.297   0.249 -0.2374  0.4255  0.2535
 6848TIP3    H141959   4.260   5.248   0.310 -0.9793 -3.6212 -3.1937
 6848TIP3    H241960   4.257   5.318   0.176  1.9385 -1.1089 -2.0746
 6849TIP3   OH241961   6.125   6.360  14.441  0.4977 -0.1312 -0.1677
 6849TIP3    H141962   6.145   6.270  14.467 -0.6465 -0.4740 -0.4137
 6849TIP3    H241963   6.195   6.413  14.480  1.5777 -1.1929 -0.5775
 6850TIP3   OH241964   5.186   2.200  12.274 -0.6064  0.1569 -0.6009
 6850TIP3    H141965   5.191   2.185  12.368 -0.8246 -0.2335 -0.6535
 6850TIP3    H241966   5.235   2.281  12.260 -0.6492  0.2609 -0.1400
 6851TIP3   OH241967   5.372   5.302   5.348 -0.1902 -0.0336  0.0912
 6851TIP3    H141968   5.293   5.318   5.297 -0.5356  0.1123  0.6626
 6851TIP3    H241969   5.397   5.212   5.327  0.4862  0.4780 -1.4190
 6852TIP3   OH241970   4.871   2.288   0.878 -0.3634 -0.0950 -0.6980
 6852TIP3    H141971   4.909   2.295   0.790 -2.1717  0.2853 -1.4864
 6852TIP3    H241972   4.805   2.219   0.869  0.0870 -0.7139  0.6195
 6853TIP3   OH241973   0.015   1.106  15.938  0.5500 -0.0239 -0.6032
 6853TIP3    H141974   0.065   1.159  15.876  1.5527  0.1574  0.3426
 6853TIP3    H241975   0.038   1.141  16.024 -1.6930  0.4746 -0.1434
 6854TIP3   OH241976   1.599   6.081   2.802  0.2824 -0.1993 -0.2454
 6854TIP3    H141977   1.629   5.993   2.781  1.4863  0.0272  0.4058
 6854TIP3    H241978   1.679   6.134   2.804 -0.3576  0.8010 -0.1115
 6855TIP3   OH241979   5.145   3.174   6.613 -0.5031  0.2827 -0.1388
 6855TIP3    H141980   5.062   3.217   6.590 -0.6251 -0.3277 -0.8621
 6855TIP3    H241981   5.160   3.200   6.704 -2.1180 -0.5568  0.4173
 6856TIP3   OH241982   5.637   2.281  15.502  0.4659 -0.8766  0.0015
 6856TIP3    H141983   5.578   2.220  15.460 -1.3204  0.3430  0.6186
 6856TIP3    H241984   5.676   2.231  15.574 -1.2556 -1.2327  0.7419
 6857TIP3   OH241985   5.200   3.378   5.899 -0.3128 -0.0829 -0.1368
 6857TIP3    H141986   5.280   3.400   5.852  0.2477  0.3085  0.9715
 6857TIP3    H241987   5.198   3.283   5.900  0.3290 -0.0966  0.1342
 6858TIP3   OH241988   3.366   3.326  11.568  0.2942 -0.1933  0.4808
 6858TIP3    H141989   3.317   3.289  11.641  1.5739 -0.6042  1.1604
 6858TIP3    H241990   3.431   3.383  11.609 -1.3015  2.5129 -0.5039
 6859TIP3   OH241991   6.702   0.369  17.066 -0.2911 -0.0865 -0.0239
 6859TIP3    H141992   6.766   0.381  17.137 -1.7067 -0.3158  1.3478
 6859TIP3    H241993   6.623   0.414  17.097 -1.4080 -1.4443 -0.7864
 6860TIP3   OH241994   5.487   1.873   1.905  0.2793  0.2114  0.4911
 6860TIP3    H141995   5.428   1.835   1.841 -1.9343  0.7130  2.1365
 6860TIP3    H241996   5.516   1.955   1.864  1.8015 -1.1222 -1.3044
 6861TIP3   OH241997   3.823   6.335   2.417  0.1679  0.4059  0.6272
 6861TIP3    H141998   3.836   6.389   2.339  0.9478 -0.6293  0.0211
 6861TIP3    H241999   3.729   6.337   2.432  0.1010  1.2910  0.1526
 6862TIP3   OH242000   5.005   0.370   3.337 -0.0466  0.1044 -0.0463
 6862TIP3    H142001   4.970   0.282   3.351 -0.8225  0.0751 -1.9091
 6862TIP3    H242002   4.945   0.411   3.274  1.9129  0.9056 -1.5045
 6863TIP3   OH242003   4.317   1.054  14.102 -0.1549  0.1194  0.2228
 6863TIP3    H142004   4.367   0.973  14.110  0.2923  0.2582 -1.0371
 6863TIP3    H242005   4.367   1.108  14.042 -1.3169  0.6535 -0.3025
 6864TIP3   OH242006   6.094   5.547   4.609  0.1050 -0.0476 -0.3283
 6864TIP3    H142007   6.186   5.521   4.621  0.7272  1.9391 -0.3253
 6864TIP3    H242008   6.099   5.623   4.551 -1.6944 -0.8247 -1.5712
 6865TIP3   OH242009   0.484   4.766   0.668  0.2741 -0.1766 -0.1745
 6865TIP3    H142010   0.539   4.732   0.739 -0.2927  1.2320  0.9834
 6865TIP3    H242011   0.456   4.688   0.620  1.3087 -1.1004  0.6733
 6866TIP3   OH242012   3.457   1.224  13.309  0.1593  0.2021  0.3516
 6866TIP3    H142013   3.518   1.222  13.383 -0.3039 -0.1255  0.7283
 6866TIP3    H242014   3.370   1.224  13.350 -0.1013 -0.1486 -0.1940
 6867TIP3   OH242015   4.055   5.274  12.223 -0.0164  0.4588 -0.2717
 6867TIP3    H142016   4.089   5.295  12.310  1.4312 -1.2107 -0.3818
 6867TIP3    H242017   3.969   5.235  12.240  0.3706 -0.1078  0.4477
 6868TIP3   OH242018   3.765   0.810   4.988  0.2435  0.1712 -0.2306
 6868TIP3    H142019   3.805   0.751   5.052  0.1219  0.7589  0.3869
 6868TIP3    H242020   3.783   0.768   4.904 -1.9290 -2.0834  0.2996
 6869TIP3   OH242021   4.319   5.715   4.805  0.2279 -0.3934 -0.0114
 6869TIP3    H142022   4.382   5.685   4.870  1.9776  0.8880 -1.0211
 6869TIP3    H242023   4.365   5.707   4.721  0.1379  2.9914 -0.5485
 6870TIP3   OH242024   3.455   5.298  12.934 -0.2988 -0.0324 -0.4737
 6870TIP3    H142025   3.477   5.386  12.964 -0.5870  0.0359 -0.4551
 6870TIP3    H242026   3.386   5.269  12.994  0.0896 -0.4357 -0.2191
 6871TIP3   OH242027   6.058   3.447  12.259 -0.1599  0.1777 -0.6864
 6871TIP3    H142028   6.005   3.438  12.337  0.7666  1.1153  0.0886
 6871TIP3    H242029   6.091   3.537  12.263 -1.1479  0.7000 -2.8477
 6872TIP3   OH242030   0.725   0.082   4.444  0.2106  0.5701  0.6916
 6872TIP3    H142031   0.785   0.054   4.375  2.5864  1.5787  2.2136
 6872TIP3    H242032   0.657   0.014   4.446 -0.4554  0.9014 -3.0848
 6873TIP3   OH242033   6.321   5.809   1.427 -0.0145 -0.2714  0.3834
 6873TIP3    H142034   6.235   5.771   1.445 -0.7436  0.6514 -0.9491
 6873TIP3    H242035   6.330   5.879   1.491  0.2574 -1.0716  1.2461
 6874TIP3   OH242036   4.045   0.790  11.938  0.2776  0.1358  0.1266
 6874TIP3    H142037   4.011   0.786  12.028  1.1590 -0.8339  0.4395
 6874TIP3    H242038   3.975   0.831  11.888 -0.9303 -0.8553  0.9440
 6875TIP3   OH242039   5.842   6.310  11.387 -0.4094 -0.4073 -0.0667
 6875TIP3    H142040   5.844   6.406  11.383  1.6949 -0.2797  2.1035
 6875TIP3    H242041   5.882   6.282  11.305  0.8642  0.6570  0.1534
 6876TIP3   OH242042   4.585   4.181  14.859 -0.2206  0.5959  0.3893
 6876TIP3    H142043   4.674   4.150  14.876 -0.6413 -0.8177  0.1752
 6876TIP3    H242044   4.532   4.139  14.927 -0.7248  1.4848  0.5587
 6877TIP3   OH242045   4.278   4.870   2.436  0.2399 -0.1380  1.0410
 6877TIP3    H142046   4.214   4.810   2.397  1.2656  0.3430 -1.5182
 6877TIP3    H242047   4.351   4.814   2.462  0.7445 -0.1528 -0.3638
 6878TIP3   OH242048   0.224   5.070   3.477  0.1009  0.0292  0.1183
 6878TIP3    H142049   0.165   5.062   3.402 -1.9499  1.3781  1.4811
 6878TIP3    H242050   0.210   5.158   3.510  0.0755 -0.8497  2.7393
 6879TIP3   OH242051   4.468   2.611  13.790 -0.5603  0.1609 -0.1083
 6879TIP3    H142052   4.415   2.543  13.831 -0.9564 -0.2067 -1.2131
 6879TIP3    H242053   4.555   2.601  13.830 -1.4401  1.2411  2.2626
 6880TIP3   OH242054   3.665   2.867   0.833 -0.4782 -0.0659  0.7422
 6880TIP3    H142055   3.582   2.850   0.789 -0.9412 -0.0162  1.5993
 6880TIP3    H242056   3.730   2.822   0.778 -0.9346  0.6813 -0.4571
 6881TIP3   OH242057   1.806   5.463   5.590  0.1116  0.1036  0.2066
 6881TIP3    H142058   1.812   5.371   5.564  1.0123  0.8668 -2.7713
 6881TIP3    H242059   1.716   5.488   5.571 -0.6357 -0.5227  2.6672
 6882TIP3   OH242060   2.492   3.045   0.695  0.1394  0.6951 -0.2733
 6882TIP3    H142061   2.585   3.027   0.708 -0.3938 -0.3633  3.0392
 6882TIP3    H242062   2.458   2.965   0.655  0.2261 -0.0842  1.1463
 6883TIP3   OH242063   1.868   5.835   4.469 -0.4432 -0.3802 -0.0929
 6883TIP3    H142064   1.911   5.914   4.501  0.6442 -0.4744 -1.2263
 6883TIP3    H242065   1.857   5.779   4.546 -1.6799  1.0537  0.8136
 6884TIP3   OH242066   0.316   2.833   5.250  0.3897 -0.0480 -0.0556
 6884TIP3    H142067   0.338   2.742   5.228  2.1840  0.5826 -1.0952
 6884TIP3    H242068   0.221   2.833   5.258  0.2552 -1.8170 -1.0404
 6885TIP3   OH242069   4.575   0.394  13.386 -0.0546  0.1893 -0.2419
 6885TIP3    H142070   4.548   0.447  13.461 -0.3138 -2.3334  1.5590
 6885TIP3    H242071   4.496   0.345  13.362 -0.2656  1.6490 -2.8879
 6886TIP3   OH242072   3.012   5.877  17.170  0.2895  0.1547  0.3629
 6886TIP3    H142073   2.960   5.947  17.210 -0.9297 -0.8081  0.5362
 6886TIP3    H242074   3.058   5.837  17.243  1.6213  1.2462  0.1622
 6887TIP3   OH242075   6.234   1.006   5.140  0.2222 -0.3472  0.3363
 6887TIP3    H142076   6.191   0.987   5.057 -0.6522  1.6102  0.2783
 6887TIP3    H242077   6.195   0.946   5.203  0.9054 -1.8618 -0.6355
 6888TIP3   OH242078   1.755   2.568   0.466  0.0384  0.1148  0.5022
 6888TIP3    H142079   1.829   2.508   0.450 -0.6058 -0.1203 -1.9671
 6888TIP3    H242080   1.768   2.597   0.556  1.0564 -2.8224  1.4369
 6889TIP3   OH242081   2.533   3.228   0.447 -0.2957  0.7129  0.1813
 6889TIP3    H142082   2.534   3.172   0.524  0.7843  0.7886  0.2354
 6889TIP3    H242083   2.610   3.202   0.397 -2.4449 -1.3047 -2.3541
 6890TIP3   OH242084   5.476   6.694  13.088  0.3629  0.0071 -0.2448
 6890TIP3    H142085   5.463   6.667  12.997  0.3106  0.9841 -0.5462
 6890TIP3    H242086   5.402   6.655  13.135  1.1939 -1.7374 -0.3276
 6891TIP3   OH242087   5.066   5.905  16.242 -0.2149  0.2454 -0.0701
 6891TIP3    H142088   5.084   5.959  16.165  0.9838 -1.4056 -0.9866
 6891TIP3    H242089   5.141   5.918  16.299 -0.6381  0.6988  0.3941
 6892TIP3   OH242090   2.326   5.493  14.331  0.5187 -0.8270  0.0732
 6892TIP3    H142091   2.281   5.513  14.413  1.9033 -1.2035  0.9610
 6892TIP3    H242092   2.306   5.568  14.274  0.3048 -0.0846  1.0901
 6893TIP3   OH242093   4.100   2.093   3.190  0.1597  0.1116  0.1344
 6893TIP3    H142094   4.122   2.124   3.102 -0.6001 -0.8861 -0.4282
 6893TIP3    H242095   4.178   2.046   3.219  0.4675  0.5707  0.0664
 6894TIP3   OH242096   5.883   5.461  17.073  0.2646 -0.3264  0.3559
 6894TIP3    H142097   5.843   5.493  16.992 -0.5645  0.6646  1.1084
 6894TIP3    H242098   5.843   5.376  17.088  1.3942 -1.1161 -0.9262
 6895TIP3   OH242099   3.537   5.242  14.216  0.2280  0.6144 -0.6609
 6895TIP3    H142100   3.592   5.310  14.178  0.1763  1.4817  0.7462
 6895TIP3    H242101   3.506   5.279  14.299  0.0003 -1.0285  0.0404
 6896TIP3   OH242102   1.163   0.810  14.572  0.4154  0.3602  0.4324
 6896TIP3    H142103   1.117   0.858  14.504  1.0074 -0.4200 -0.5555
 6896TIP3    H242104   1.104   0.737  14.594  0.3357  0.4657  0.5669
 6897TIP3   OH242105   6.541   1.152   3.705 -0.4929  0.1689  0.5311
 6897TIP3    H142106   6.629   1.181   3.679 -0.6828  2.0328  1.7553
 6897TIP3    H242107   6.556   1.069   3.751  0.3769 -0.4862 -0.8394
 6898TIP3   OH242108   1.623   1.667   3.721  0.3100  0.2757 -0.4314
 6898TIP3    H142109   1.714   1.673   3.690  0.3828  2.0579 -0.0222
 6898TIP3    H242110   1.598   1.758   3.738 -1.0017 -0.3101  1.0541
 6899TIP3   OH242111   4.678   0.063   0.490  0.1637  0.2459  0.5332
 6899TIP3    H142112   4.612   0.131   0.474 -0.3910 -0.5185 -0.5440
 6899TIP3    H242113   4.634  -0.018   0.467  1.2971 -0.3386  0.3735
 6900TIP3   OH242114   0.495   0.608   3.520 -0.2499 -0.0043  0.6190
 6900TIP3    H142115   0.448   0.663   3.583  1.2169  0.8440  1.0434
 6900TIP3    H242116   0.472   0.644   3.435 -0.8280  0.0148  0.7789
 6901TIP3   OH242117   4.239   6.681  15.843 -0.2601  0.8304  0.1593
 6901TIP3    H142118   4.147   6.705  15.855 -0.4020  0.5584 -0.3435
 6901TIP3    H242119   4.280   6.761  15.811 -0.4590  0.7766 -0.2411
 6902TIP3   OH242120   3.262   1.267  14.316 -0.9487  0.6516 -0.2352
 6902TIP3    H142121   3.210   1.191  14.292  0.5838 -0.8138  0.8764
 6902TIP3    H242122   3.212   1.310  14.385 -0.2248 -1.3952  1.6598
 6903TIP3   OH242123   6.683   1.885  15.059 -0.3292  0.8345  0.1308
 6903TIP3    H142124   6.656   1.955  15.001  0.9237  0.3545 -1.0760
 6903TIP3    H242125   6.636   1.808  15.028  2.1320  0.0254 -1.8946
 6904TIP3   OH242126   5.902   6.199  15.874 -0.2587 -0.4095 -0.1602
 6904TIP3    H142127   5.920   6.278  15.824 -1.0172 -0.5586 -0.6905
 6904TIP3    H242128   5.987   6.158  15.886  0.0187 -0.0136 -0.7414
 6905TIP3   OH242129   1.668   2.412  16.220 -0.3318  0.3314  0.3264
 6905TIP3    H142130   1.737   2.407  16.286  0.7238 -0.6015 -0.8101
 6905TIP3    H242131   1.698   2.479  16.158 -1.1516  0.9487  0.5596
 6906TIP3   OH242132   5.130   1.335  16.062 -0.1098  0.1852  0.3531
 6906TIP3    H142133   5.097   1.355  16.150  0.2450  2.3174  0.0492
 6906TIP3    H242134   5.135   1.240  16.060 -4.1765 -0.2431  1.1662
 6907TIP3   OH242135   3.918   4.048   1.134 -0.5434  0.2510  0.2536
 6907TIP3    H142136   3.926   4.132   1.180 -1.3258  1.8900 -2.3406
 6907TIP3    H242137   3.980   4.054   1.062  0.7303 -2.2576  1.0576
 6908TIP3   OH242138   0.914   0.031   4.836 -0.4813 -0.0026 -0.0942
 6908TIP3    H142139   0.921  -0.044   4.777  0.3964 -1.0705  1.2899
 6908TIP3    H242140   0.930   0.107   4.781  0.7096 -0.9865 -1.1552
 6909TIP3   OH242141   5.513   4.736   5.256 -0.0717 -0.3660 -0.2546
 6909TIP3    H142142   5.426   4.776   5.258 -0.3489 -0.9366 -0.7469
 6909TIP3    H242143   5.544   4.740   5.347 -0.3145  0.4804 -0.2065
 6910TIP3   OH242144   5.302   5.562  10.747  0.2744 -0.1420  0.3038
 6910TIP3    H142145   5.233   5.589  10.687  0.9690 -0.5692 -0.7191
 6910TIP3    H242146   5.355   5.500  10.697  2.0310  0.9618  0.6746
 6911TIP3   OH242147   3.289   1.699  17.111  0.1758  0.0084 -0.0347
 6911TIP3    H142148   3.318   1.732  17.026 -1.5002 -0.8823 -1.0063
 6911TIP3    H242149   3.244   1.774  17.152  0.0681  0.1412 -0.3934
 6912TIP3   OH242150   1.112   4.153  12.930  0.8404 -0.2312  0.2191
 6912TIP3    H142151   1.080   4.148  12.840  4.3493 -1.0146 -1.1618
 6912TIP3    H242152   1.118   4.062  12.958  1.7461 -0.1118  0.4339
 6913TIP3   OH242153   4.173   0.920   2.342 -0.1677 -1.0129 -0.0363
 6913TIP3    H142154   4.126   0.962   2.270 -0.2053 -0.6755  0.1853
 6913TIP3    H242155   4.251   0.973   2.354  1.4449 -2.7806 -1.8602
 6914TIP3   OH242156   0.240   0.252  14.562 -0.7085  0.1072 -0.0130
 6914TIP3    H142157   0.185   0.181  14.596 -0.1484 -0.1841  0.3150
 6914TIP3    H242158   0.198   0.279  14.481 -0.5820 -1.0556 -0.4961
 6915TIP3   OH242159   4.675   2.632   1.237 -0.3857 -0.8680  0.2089
 6915TIP3    H142160   4.617   2.689   1.187 -0.0737 -3.2241 -3.1950
 6915TIP3    H242161   4.616   2.581   1.293 -1.1942 -0.5551 -0.3369
 6916TIP3   OH242162   2.470   2.537   2.142 -0.6483  0.0261 -0.1715
 6916TIP3    H142163   2.411   2.613   2.143  0.1741  0.6764 -0.5106
 6916TIP3    H242164   2.550   2.569   2.101  0.2672 -0.6231  1.0573
 6917TIP3   OH242165   3.494   0.330   3.571 -0.4649  0.4869  0.4186
 6917TIP3    H142166   3.408   0.302   3.540 -0.0503  0.0302 -0.3556
 6917TIP3    H242167   3.532   0.252   3.611  0.4644  0.0431 -1.2325
 6918TIP3   OH242168   3.884   3.037   2.545  0.0249 -0.1901  0.0183
 6918TIP3    H142169   3.956   2.976   2.561  0.2378 -0.7507 -2.5855
 6918TIP3    H242170   3.922   3.104   2.487 -0.2715  2.3768  2.5493
 6919TIP3   OH242171   1.970   2.543  16.556  0.2808  0.2547  0.0176
 6919TIP3    H142172   1.940   2.495  16.633  0.3974  0.0147 -0.0862
 6919TIP3    H242173   1.996   2.475  16.493  1.0435  0.4597  0.1062
 6920TIP3   OH242174   3.281   2.516  17.197  0.2044  0.0473  0.4309
 6920TIP3    H142175   3.351   2.578  17.174 -0.1773  0.5415  0.5804
 6920TIP3    H242176   3.205   2.546  17.148  0.4530 -1.3566 -0.8680
 6921TIP3   OH242177   4.563   1.294   1.788 -0.0808  0.2560  0.2291
 6921TIP3    H142178   4.637   1.248   1.749 -0.7603 -1.5280  0.9191
 6921TIP3    H242179   4.526   1.346   1.717  0.5300 -0.5409 -0.6932
 6922TIP3   OH242180   2.669   5.735  14.786 -0.7581  0.8060  0.6111
 6922TIP3    H142181   2.655   5.651  14.742 -0.6027  0.6815  0.7937
 6922TIP3    H242182   2.582   5.764  14.812 -0.8463  0.8682  0.2407
 6923TIP3   OH242183   0.404   1.246  14.587  0.2608  0.3390  0.7391
 6923TIP3    H142184   0.352   1.316  14.627  1.1236  0.0837  2.4060
 6923TIP3    H242185   0.493   1.281  14.586  0.5915 -0.4893  0.9860
 6924TIP3   OH242186   4.361   1.693   4.079  0.4121  0.0067 -0.3185
 6924TIP3    H142187   4.273   1.732   4.084  1.1404  1.5811  0.7231
 6924TIP3    H242188   4.416   1.749   4.134  1.7835 -1.8044  0.2521
 6925TIP3   OH242189   6.667   0.242  11.395  0.0446 -0.1315  0.1695
 6925TIP3    H142190   6.656   0.245  11.490  1.9188  2.4777  0.3873
 6925TIP3    H242191   6.759   0.264  11.381 -0.6813  1.6106 -2.3300
 6926TIP3   OH242192   0.059   2.567   3.813  0.4784  0.1330  0.4350
 6926TIP3    H142193   0.106   2.586   3.732 -1.6429  0.0556 -0.8843
 6926TIP3    H242194   0.047   2.653   3.854  1.9331  0.1272  0.9336
 6927TIP3   OH242195   4.830   0.584  10.899  0.4171  0.4101  0.3422
 6927TIP3    H142196   4.765   0.652  10.881 -1.2080 -1.4247 -1.2206
 6927TIP3    H242197   4.903   0.604  10.840 -0.4895  0.2770 -0.8668
 6928TIP3   OH242198   0.942   2.886   2.550  0.9769  0.3364  0.5777
 6928TIP3    H142199   0.954   2.970   2.505 -0.9611 -0.4459 -1.6221
 6928TIP3    H242200   0.910   2.909   2.637 -1.3334  1.9600 -0.5876
 6929TIP3   OH242201   4.387   5.331   5.319  0.2745 -0.2272  0.1634
 6929TIP3    H142202   4.378   5.305   5.410 -0.2020 -2.0917 -0.3814
 6929TIP3    H242203   4.305   5.304   5.278  1.5324 -1.9007 -1.3706
 6930TIP3   OH242204   6.703   5.925  12.696 -0.3138 -0.4342 -0.5387
 6930TIP3    H142205   6.694   5.849  12.639  1.2934 -0.8545 -0.2807
 6930TIP3    H242206   6.645   5.991  12.658  4.1312  1.1302 -5.7499
 6931TIP3   OH242207   5.460   4.339  12.755  0.2315  0.5208  0.8299
 6931TIP3    H142208   5.476   4.433  12.768  2.0955  0.1724  1.3645
 6931TIP3    H242209   5.480   4.324  12.663 -2.5349  1.0579  0.0705
 6932TIP3   OH242210   2.956   5.353  13.866  0.5812  0.1078 -0.5196
 6932TIP3    H142211   2.996   5.331  13.950  2.1769  2.3743 -0.6235
 6932TIP3    H242212   3.003   5.299  13.803  0.9702  0.0845 -0.2158
 6933TIP3   OH242213   3.132   6.480  13.935  0.0567 -0.3459  0.2064
 6933TIP3    H142214   3.063   6.543  13.955  0.2173  0.2893 -1.1366
 6933TIP3    H242215   3.181   6.472  14.017  0.2163  1.5234  0.3399
 6934TIP3   OH242216   2.701   1.337  13.566  0.1449  0.3816  0.2404
 6934TIP3    H142217   2.658   1.251  13.564 -0.6970  0.8043 -0.4493
 6934TIP3    H242218   2.647   1.389  13.626 -1.0100  1.2507 -1.4709
 6935TIP3   OH242219   1.735   3.024  13.662  0.6666 -0.6134  0.4538
 6935TIP3    H142220   1.733   3.079  13.583  0.7468 -1.1419  0.0776
 6935TIP3    H242221   1.798   3.067  13.720  1.3370 -0.7426 -0.1632
 6936TIP3   OH242222   6.460   6.212  15.143  0.2655  0.3731  0.0619
 6936TIP3    H142223   6.388   6.258  15.187 -1.1215 -0.3764 -1.3106
 6936TIP3    H242224   6.454   6.122  15.174  0.7787  0.3511  0.1102
 6937TIP3   OH242225   3.606   3.827   2.708 -0.4641 -0.0967  0.6430
 6937TIP3    H142226   3.552   3.880   2.649 -0.7049 -0.0851  0.8657
 6937TIP3    H242227   3.547   3.808   2.782  0.3719  1.4357  1.7543
 6938TIP3   OH242228   3.458   5.123  16.365  0.1015 -0.1213  0.5853
 6938TIP3    H142229   3.425   5.207  16.396  0.6058  0.1228  0.4691
 6938TIP3    H242230   3.550   5.139  16.342 -0.2617 -0.2525 -1.1297
 6939TIP3   OH242231   4.260   5.484   5.958 -0.4708  0.1009 -0.6128
 6939TIP3    H142232   4.229   5.549   6.021 -0.3894 -2.5203  2.4107
 6939TIP3    H242233   4.181   5.449   5.917 -1.2882 -2.1317  2.4426
 6940TIP3   OH242234   1.074   1.357  15.805 -0.3549 -0.2051 -0.5458
 6940TIP3    H142235   1.057   1.288  15.741 -2.8020  0.3226 -0.5377
 6940TIP3    H242236   1.013   1.427  15.783  1.5809  1.7173 -0.1178
 6941TIP3   OH242237   5.343   3.672   0.359  0.3702  0.1707 -0.3603
 6941TIP3    H142238   5.373   3.740   0.299 -0.5193 -0.8789 -2.0881
 6941TIP3    H242239   5.295   3.719   0.427 -0.4107  1.2641 -1.6254
 6942TIP3   OH242240   0.286   5.165  13.975 -0.2018 -0.4684  0.3206
 6942TIP3    H142241   0.352   5.137  14.038 -0.8427 -0.8949  0.8173
 6942TIP3    H242242   0.295   5.260  13.970  0.3985 -0.5173  0.4295
 6943TIP3   OH242243   0.019   0.799   3.051  0.0110  0.0084 -0.0719
 6943TIP3    H142244   0.004   0.890   3.028  0.1080 -0.3547 -1.6467
 6943TIP3    H242245   0.067   0.803   3.134  0.9484  1.4097 -0.6525
 6944TIP3   OH242246   1.436   1.969  14.313  0.0532  0.0678 -1.1625
 6944TIP3    H142247   1.520   1.966  14.360  1.0526  1.7192 -2.7147
 6944TIP3    H242248   1.378   2.018  14.371 -0.1963 -1.9054  0.3605
 6945TIP3   OH242249   5.015   5.738  13.545  0.3606  0.1374 -0.1884
 6945TIP3    H142250   4.998   5.832  13.545  1.8389  0.4183 -0.0067
 6945TIP3    H242251   5.097   5.728  13.593 -0.6863 -1.4386  1.4261
 6946TIP3   OH242252   4.948   6.482  11.439 -0.1802 -0.3608 -0.3922
 6946TIP3    H142253   5.005   6.557  11.456  0.0567  0.1064 -2.9387
 6946TIP3    H242254   4.869   6.519  11.401 -0.7629 -1.2964 -0.1367
 6947TIP3   OH242255   2.993   2.327   6.253 -0.3659  0.2208 -0.7485
 6947TIP3    H142256   2.947   2.395   6.303 -1.0544 -0.8118  0.0479
 6947TIP3    H242257   3.078   2.321   6.296 -0.8177 -0.3986  0.0884
 6948TIP3   OH242258   2.796   6.394   4.561 -0.1651 -0.3554 -0.1071
 6948TIP3    H142259   2.818   6.330   4.493 -2.1883 -0.2182 -0.9691
 6948TIP3    H242260   2.736   6.346   4.619  1.3575 -0.4000  1.4841
 6949TIP3   OH242261   4.178   5.789  15.454 -0.3717  0.2703  0.3644
 6949TIP3    H142262   4.256   5.822  15.497 -0.5758  0.7047  0.4083
 6949TIP3    H242263   4.162   5.851  15.382  1.3606 -1.7457 -1.9046
 6950TIP3   OH242264   1.332   1.637   5.408 -0.3198 -0.4865 -0.2436
 6950TIP3    H142265   1.273   1.710   5.390  0.6167  0.3452 -0.0184
 6950TIP3    H242266   1.275   1.567   5.438 -1.2582  0.0930 -0.6404
 6951TIP3   OH242267   4.953   5.749  16.814  0.8701  0.0078 -0.1029
 6951TIP3    H142268   5.015   5.677  16.825  0.7587 -0.0609  0.0850
 6951TIP3    H242269   4.993   5.806  16.748  1.1724  0.0062  0.0741
 6952TIP3   OH242270   6.406   5.987   5.165  0.1130 -0.4807  0.2091
 6952TIP3    H142271   6.498   5.961   5.168  0.5505  1.0841  0.7693
 6952TIP3    H242272   6.370   5.937   5.091  1.9656  0.5686 -1.4898
 6953TIP3   OH242273   4.452   0.195   5.624  0.1501 -0.1634  0.5159
 6953TIP3    H142274   4.380   0.144   5.588 -0.4291 -0.6641  2.2506
 6953TIP3    H242275   4.531   0.154   5.588 -0.3827 -0.6175 -0.1699
 6954TIP3   OH242276   1.041   4.952   3.779 -0.0517 -0.0155 -0.0592
 6954TIP3    H142277   1.068   4.907   3.859  0.5628 -3.9308 -2.1943
 6954TIP3    H242278   0.959   4.910   3.754  0.1652  0.5464 -1.8696
 6955TIP3   OH242279   2.639   4.078  11.869  0.7061  0.2864 -0.5552
 6955TIP3    H142280   2.695   4.152  11.890 -1.1789  1.8372 -0.7160
 6955TIP3    H242281   2.562   4.117  11.827 -0.5461 -1.7196 -0.2665
 6956TIP3   OH242282   0.152   1.342   5.946  0.1692  0.0306  0.3308
 6956TIP3    H142283   0.092   1.267   5.952  1.2376 -0.7259  2.5486
 6956TIP3    H242284   0.150   1.366   5.853  0.2882 -3.1797 -0.6485
 6957TIP3   OH242285   3.989   1.702  13.256  0.1436 -0.1929  0.4086
 6957TIP3    H142286   4.061   1.650  13.219 -0.3621  0.6379 -1.9344
 6957TIP3    H242287   4.030   1.784  13.284  0.4845 -0.7095  1.4681
 6958TIP3   OH242288   3.348   6.461   1.426  0.3212 -0.1095 -0.0348
 6958TIP3    H142289   3.256   6.440   1.413  0.3806 -0.0113 -0.6393
 6958TIP3    H242290   3.347   6.532   1.491 -0.2650  2.1415 -2.3358
 6959TIP3   OH242291   5.109   4.652  16.756  0.0897  0.3608  0.1215
 6959TIP3    H142292   5.170   4.587  16.722  1.2177  1.2142  0.4446
 6959TIP3    H242293   5.132   4.659  16.849 -2.1151 -1.0417  0.8662
 6960TIP3   OH242294   6.736   4.442   2.727 -0.2488 -0.0574  0.5905
 6960TIP3    H142295   6.686   4.503   2.781  0.0639  0.2798  0.4992
 6960TIP3    H242296   6.746   4.486   2.643 -2.2302 -1.2639 -0.3736
 6961TIP3   OH242297   3.913   5.772  16.379  0.0048  0.1362 -0.4695
 6961TIP3    H142298   4.008   5.787  16.378 -0.1527  1.6066  1.5285
 6961TIP3    H242299   3.897   5.726  16.462 -1.0561 -0.1052 -0.7867
 6962TIP3   OH242300   1.734   1.040   0.497 -0.5982 -0.0890 -0.1628
 6962TIP3    H142301   1.733   1.059   0.403 -0.7923 -1.2955 -0.4192
 6962TIP3    H242302   1.699   1.119   0.538 -0.4964  0.4561 -1.1020
 6963TIP3   OH242303   3.827   2.371  14.654 -0.7203 -0.1404  0.1265
 6963TIP3    H142304   3.869   2.397  14.572  0.8616  0.8229  1.1858
 6963TIP3    H242305   3.771   2.445  14.677 -0.1843  0.1526  0.5281
 6964TIP3   OH242306   0.650   0.092   1.410 -0.3648  0.3740 -0.6436
 6964TIP3    H142307   0.645   0.051   1.496  1.3968  0.2280 -0.5799
 6964TIP3    H242308   0.591   0.040   1.355 -2.2239  1.0361  0.6561
 6965TIP3   OH242309   5.206   0.350  15.058  0.1311  0.5610 -0.8289
 6965TIP3    H142310   5.172   0.374  14.972  1.6402  1.3659 -1.2300
 6965TIP3    H242311   5.270   0.418  15.079 -0.2764  0.4448  0.9923
 6966TIP3   OH242312   5.005   3.727   1.154 -0.3019 -0.1140 -0.3675
 6966TIP3    H142313   5.021   3.817   1.182  1.3114  0.0998 -1.8395
 6966TIP3    H242314   5.075   3.677   1.196 -0.6079 -0.5239 -0.3428
 6967TIP3   OH242315   0.710   0.087  12.346 -0.1202  0.5166  0.2172
 6967TIP3    H142316   0.633   0.029  12.348  1.6631 -2.1549 -1.6767
 6967TIP3    H242317   0.682   0.161  12.292 -1.5618 -0.0230  0.1631
 6968TIP3   OH242318   6.452   2.237  14.350  0.7913 -0.0006 -0.0013
 6968TIP3    H142319   6.502   2.301  14.400  0.9138 -0.7129  0.8190
 6968TIP3    H242320   6.447   2.273  14.262  0.2338  1.4750  0.6112
 6969TIP3   OH242321   4.256   3.325  16.803 -0.5803  0.2112 -0.0291
 6969TIP3    H142322   4.208   3.276  16.736 -0.6946  0.7103 -0.3269
 6969TIP3    H242323   4.347   3.326  16.772 -0.3499 -0.8210  0.5867
 6970TIP3   OH242324   5.491   2.097  15.368  0.0358  0.4171  0.1533
 6970TIP3    H142325   5.399   2.098  15.342  0.0035 -0.8820  0.1705
 6970TIP3    H242326   5.539   2.104  15.285 -0.0872 -1.3688 -0.1185
 6971TIP3   OH242327   0.630   3.605   2.343  0.2619  0.6868  0.1266
 6971TIP3    H142328   0.632   3.509   2.348  0.0728  0.7309  1.9506
 6971TIP3    H242329   0.560   3.624   2.281  0.9674 -0.3449 -1.0276
 6972TIP3   OH242330   2.381   6.572   2.521  0.4338 -0.4245 -0.0144
 6972TIP3    H142331   2.470   6.539   2.519  0.7606  0.3446  0.8557
 6972TIP3    H242332   2.376   6.634   2.449  1.2802  1.1104  1.1883
 6973TIP3   OH242333   5.236   1.215   1.744 -0.0038  0.2876 -0.0168
 6973TIP3    H142334   5.223   1.134   1.693 -2.2656  1.0202 -0.7452
 6973TIP3    H242335   5.263   1.185   1.830  2.6756 -1.0600 -1.2165
 6974TIP3   OH242336   3.521   5.835   2.778  0.2402 -0.2382 -0.7142
 6974TIP3    H142337   3.449   5.775   2.796  2.1378 -2.6783 -0.6247
 6974TIP3    H242338   3.551   5.811   2.690  2.4990 -1.1243  0.2143
 6975TIP3   OH242339   6.364   1.181   3.499 -0.2354  0.8140  0.2595
 6975TIP3    H142340   6.413   1.231   3.433  0.3681 -0.6578 -0.4528
 6975TIP3    H242341   6.427   1.166   3.570  0.0339 -0.1361 -0.1668
 6976TIP3   OH242342   2.404   3.122  13.003 -0.4085 -0.3955 -0.2331
 6976TIP3    H142343   2.390   3.032  13.031  0.9071 -0.0529  1.7324
 6976TIP3    H242344   2.495   3.141  13.026 -0.7662  1.5442 -0.2099
 6977TIP3   OH242345   5.517   3.064  16.981 -0.0264 -0.9910 -0.0547
 6977TIP3    H142346   5.467   3.142  17.008  1.3380  0.2778 -1.0313
 6977TIP3    H242347   5.546   3.025  17.064  1.1609  0.8534  0.4556
 6978TIP3   OH242348   4.432   0.056  16.087 -0.0126  0.0012 -0.0235
 6978TIP3    H142349   4.375   0.045  16.010 -0.7172 -0.9989  0.6114
 6978TIP3    H242350   4.436   0.150  16.101 -2.1836  0.0728  0.3901
 6979TIP3   OH242351   3.031   0.746  16.364  0.5578 -0.4351 -0.0286
 6979TIP3    H142352   3.052   0.692  16.441  0.7574 -0.1229  0.1370
 6979TIP3    H242353   2.938   0.766  16.373  1.0288  1.3887  1.2776
 6980TIP3   OH242354   2.641   6.338  11.334  0.0122 -0.3863  0.0553
 6980TIP3    H142355   2.731   6.364  11.354  0.8530 -3.0125  0.1544
 6980TIP3    H242356   2.603   6.413  11.290  2.3987  0.6587 -0.3721
 6981TIP3   OH242357   6.179   2.747   5.007  0.3731  0.4123 -0.1671
 6981TIP3    H142358   6.208   2.662   4.975 -1.2178  0.3435 -1.5487
 6981TIP3    H242359   6.200   2.746   5.100  0.9467 -1.2474 -0.2846
 6982TIP3   OH242360   0.635   3.151  15.547 -0.1634  0.2448 -0.0392
 6982TIP3    H142361   0.605   3.218  15.485  0.3434  0.2119 -0.3294
 6982TIP3    H242362   0.636   3.070  15.496 -0.8569 -0.0041  0.3359
 6983TIP3   OH242363   6.102   6.237   1.395 -0.0202 -0.6949 -0.1018
 6983TIP3    H142364   6.089   6.331   1.403  1.1026 -0.5927  0.8566
 6983TIP3    H242365   6.134   6.225   1.306  0.7181 -0.0472  0.0651
 6984TIP3   OH242366   0.637   6.045  11.817  0.1924  0.1458  0.5174
 6984TIP3    H142367   0.585   5.993  11.878 -1.5531 -0.8773 -1.6956
 6984TIP3    H242368   0.617   6.136  11.840 -1.4830 -0.2247  0.6606
 6985TIP3   OH242369   4.737   5.928   2.115  0.4339 -0.0216 -0.3333
 6985TIP3    H142370   4.732   6.008   2.168 -2.7606  1.4661 -2.5716
 6985TIP3    H242371   4.808   5.945   2.053  1.1862  0.1081  0.5268
 6986TIP3   OH242372   3.603   4.579  15.153 -0.0321 -0.0389 -0.3064
 6986TIP3    H142373   3.685   4.537  15.127  0.0867 -1.7787  2.4652
 6986TIP3    H242374   3.606   4.665  15.113  2.6082 -0.4760 -1.2435
 6987TIP3   OH242375   6.349   0.469  15.103  0.9905 -0.8439 -0.3927
 6987TIP3    H142376   6.433   0.470  15.148  0.2335  0.1158  1.0722
 6987TIP3    H242377   6.293   0.413  15.157  0.0369  0.4046 -0.0435
 6988TIP3   OH242378   0.338   4.979   4.474 -0.1000  0.2870  0.5626
 6988TIP3    H142379   0.344   4.979   4.379 -0.3913  1.4791  0.5265
 6988TIP3    H242380   0.425   5.005   4.503 -0.4194  1.4366  0.5539
 6989TIP3   OH242381   3.614   3.471   2.162 -0.7226  0.0386  0.1334
 6989TIP3    H142382   3.551   3.520   2.109 -0.2365 -0.4037 -0.8843
 6989TIP3    H242383   3.693   3.525   2.161 -0.5512 -0.2099 -0.0301
 6990TIP3   OH242384   1.759   5.974   5.497  0.0392 -0.2049 -0.1001
 6990TIP3    H142385   1.849   5.943   5.501  0.5343  0.9258 -1.5716
 6990TIP3    H242386   1.735   5.992   5.588  1.1189 -0.9910  0.3525
 6991TIP3   OH242387   6.601   0.482   2.228  0.3303  0.3455 -0.4044
 6991TIP3    H142388   6.531   0.432   2.186  1.9455 -3.0252  0.5208
 6991TIP3    H242389   6.658   0.509   2.156  0.2105 -0.5133 -0.8363
 6992TIP3   OH242390   4.634   3.327   4.569 -0.3880  0.0223 -0.1845
 6992TIP3    H142391   4.590   3.329   4.483  0.7432 -2.7586 -0.9437
 6992TIP3    H242392   4.726   3.309   4.548 -0.0620 -0.5373  1.5979
 6993TIP3   OH242393   0.180   6.592   4.160  0.0268 -0.5225  0.8653
 6993TIP3    H142394   0.176   6.517   4.218  2.5727 -0.5500  1.1417
 6993TIP3    H242395   0.266   6.631   4.177 -0.3332  1.1753 -0.8035
 6994TIP3   OH242396   6.329   4.926   0.856  0.2486 -0.5103  0.0488
 6994TIP3    H142397   6.416   4.959   0.832 -0.2778 -0.0564 -1.4056
 6994TIP3    H242398   6.280   4.926   0.773 -0.9285 -1.4139  0.7078
 6995TIP3   OH242399   1.226   6.018   2.262 -0.0564  0.2945  0.1430
 6995TIP3    H142400   1.261   5.932   2.238  1.4904  0.4281  1.6594
 6995TIP3    H242401   1.183   6.050   2.183  1.4539 -0.8455 -1.2041
 6996TIP3   OH242402   2.388   2.788   0.654  0.2166  0.2624  0.1520
 6996TIP3    H142403   2.300   2.752   0.652  1.0269 -1.9252  1.2675
 6996TIP3    H242404   2.439   2.726   0.707  2.8695  0.4304 -1.9861
 6997TIP3   OH242405   4.467   6.474  15.181  0.2842  0.5000  0.6950
 6997TIP3    H142406   4.389   6.530  15.183 -0.9628 -1.1528  1.3872
 6997TIP3    H242407   4.515   6.496  15.261  0.2743  1.1729  0.5221
 6998TIP3   OH242408   3.087   5.817   2.653 -0.7774 -0.0849 -0.0313
 6998TIP3    H142409   3.140   5.818   2.573 -0.8202  0.5971 -0.0552
 6998TIP3    H242410   3.081   5.725   2.676 -0.5302 -0.2658 -0.6631
 6999TIP3   OH242411   3.773   1.252  14.026  0.2119 -0.2278  0.6487
 6999TIP3    H142412   3.856   1.219  13.993 -1.1983 -2.0100 -1.3723
 6999TIP3    H242413   3.743   1.312  13.958 -0.2539  0.2525  1.2721
 7000TIP3   OH242414   5.675   2.649   6.251 -0.0248 -0.1051 -0.1224
 7000TIP3    H142415   5.741   2.643   6.321  1.8635  0.1488 -1.8042
 7000TIP3    H242416   5.664   2.559   6.221  0.9606  0.0580 -1.0403
 7001TIP3   OH242417   2.268   4.327   5.933  0.4436 -0.1376 -0.3744
 7001TIP3    H142418   2.240   4.362   6.018  0.5161  2.4452 -1.3220
 7001TIP3    H242419   2.233   4.388   5.869  0.1072 -2.2048 -2.2966
 7002TIP3   OH242420   0.834   0.247   1.573  0.4187 -0.3914  0.6705
 7002TIP3    H142421   0.747   0.228   1.539 -0.6555  2.1226  1.7592
 7002TIP3    H242422   0.856   0.171   1.626 -0.3681 -1.7797 -0.8914
 7003TIP3   OH242423   1.366   3.084   4.626  0.6885  0.0596 -0.1620
 7003TIP3    H142424   1.400   3.033   4.700  1.8275 -1.1941 -1.5139
 7003TIP3    H242425   1.277   3.050   4.613 -0.5906  2.1084  2.2263
 7004TIP3   OH242426   2.218   1.489   5.273 -0.2339  0.3125  0.1687
 7004TIP3    H142427   2.137   1.516   5.231 -0.6387  0.3681  0.9683
 7004TIP3    H242428   2.285   1.545   5.234 -0.8697  1.6030  0.8582
 7005TIP3   OH242429   4.961   1.152  11.511 -0.1057  0.1403 -0.1506
 7005TIP3    H142430   4.986   1.218  11.576 -0.7048  0.8399 -0.6159
 7005TIP3    H242431   5.037   1.094  11.506  1.3843  2.0810 -1.3544
 7006TIP3   OH242432   3.699   0.933  16.801  0.1429  0.2282 -0.2806
 7006TIP3    H142433   3.638   0.948  16.873  0.1511 -2.6287  0.4392
 7006TIP3    H242434   3.759   1.008  16.804 -1.8429  1.8707  0.5168
 7007TIP3   OH242435   2.867   0.595   0.404 -0.0312  0.2970  0.1798
 7007TIP3    H142436   2.848   0.508   0.369 -1.7503  1.1694 -1.2859
 7007TIP3    H242437   2.960   0.607   0.390 -0.2171 -0.3591 -2.0026
 7008TIP3   OH242438   5.322   4.237   0.194  0.0039  0.1356 -0.3597
 7008TIP3    H142439   5.407   4.238   0.150 -0.1623 -1.5850 -0.7563
 7008TIP3    H242440   5.266   4.292   0.139 -0.4255 -2.5556 -2.8758
 7009TIP3   OH242441   4.163   2.293  13.115 -0.6596  0.3280 -0.3839
 7009TIP3    H142442   4.156   2.249  13.030 -1.2995  1.7784 -1.1127
 7009TIP3    H242443   4.126   2.380  13.101 -0.7309  0.6282  1.3787
 7010TIP3   OH242444   4.751   3.299  15.506  0.1398  0.0773 -0.2005
 7010TIP3    H142445   4.671   3.317  15.554  0.2300 -1.2357  0.4876
 7010TIP3    H242446   4.801   3.241  15.563  1.6956  1.0468 -0.5186
 7011TIP3   OH242447   3.680   2.315  15.590 -0.2300 -0.3833  0.1455
 7011TIP3    H142448   3.776   2.311  15.583 -0.3787 -2.2812 -2.6096
 7011TIP3    H242449   3.656   2.393  15.540 -0.1165  0.7621  1.8222
 7012TIP3   OH242450   4.006   4.269  17.071  0.4256 -0.0800  1.0275
 7012TIP3    H142451   4.041   4.358  17.071 -0.9812  0.5252  1.9634
 7012TIP3    H242452   4.071   4.217  17.119  1.5004  0.3077  0.0362
 7013TIP3   OH242453   2.650   6.769  15.678  0.7937 -0.5410  0.6230
 7013TIP3    H142454   2.647   6.752  15.772  0.5890  2.5073  1.2721
 7013TIP3    H242455   2.678   6.861  15.671 -1.8478  0.2116 -2.1383
 7014TIP3   OH242456   3.973   0.478   1.970  0.1405  0.1674 -0.2783
 7014TIP3    H142457   3.881   0.455   1.978  0.5416 -1.2014  0.7256
 7014TIP3    H242458   3.973   0.562   1.924 -1.6148  0.4425  0.1747
 7015TIP3   OH242459   0.833   2.267   3.375  0.6110 -0.6417 -0.3803
 7015TIP3    H142460   0.754   2.239   3.421  0.5652 -1.2617 -0.8345
 7015TIP3    H242461   0.847   2.201   3.308  1.3763 -0.3985 -0.4696
 7016TIP3   OH242462   2.473   1.956  14.325 -0.4588  0.0431  0.5578
 7016TIP3    H142463   2.381   1.954  14.300 -0.8451 -0.0189  1.9223
 7016TIP3    H242464   2.473   1.955  14.421  0.9919 -2.1594  0.6124
 7017TIP3   OH242465   4.596   2.838  11.373 -0.0640  0.6286 -0.2372
 7017TIP3    H142466   4.581   2.927  11.341  0.3133  0.4503 -0.9322
 7017TIP3    H242467   4.616   2.787  11.294 -1.3506 -0.3155  0.0041
 7018TIP3   OH242468   0.486   1.607  16.338 -0.4420  0.0192  0.8952
 7018TIP3    H142469   0.517   1.667  16.405  0.1513  0.4808  0.2205
 7018TIP3    H242470   0.390   1.610  16.345 -0.4299  1.2687  0.6794
 7019TIP3   OH242471   4.078   4.265  15.154  0.5386 -0.6597  0.2397
 7019TIP3    H142472   4.012   4.220  15.101  0.9177 -0.5122 -0.3771
 7019TIP3    H242473   4.136   4.306  15.089  1.5557 -1.2536  0.7461
 7020TIP3   OH242474   2.404   1.941  13.930  0.0358  0.7813 -0.0174
 7020TIP3    H142475   2.495   1.911  13.927 -0.8016 -1.9734 -0.8443
 7020TIP3    H242476   2.379   1.934  14.022  0.2765  0.2632  0.0105
 7021TIP3   OH242477   6.043   2.015  13.148  0.4445  0.4473 -0.0770
 7021TIP3    H142478   6.004   2.091  13.192 -0.1772 -0.2094  0.5385
 7021TIP3    H242479   6.125   2.000  13.195 -0.2889 -0.3473  1.0273
 7022TIP3   OH242480   0.931   2.788   1.957  0.3310  0.6464  0.1828
 7022TIP3    H142481   0.895   2.788   1.869 -1.5206 -0.5830  0.8792
 7022TIP3    H242482   1.015   2.743   1.949 -0.2343 -0.2702 -0.8063
 7023TIP3   OH242483   3.742   1.710  12.594  0.1352  0.1953 -0.1762
 7023TIP3    H142484   3.756   1.616  12.601 -0.4049  0.1180 -0.0562
 7023TIP3    H242485   3.824   1.749  12.622  0.3455 -0.2401 -0.1803
 7024TIP3   OH242486   5.594   0.564   0.511 -0.4478 -0.5119 -0.5206
 7024TIP3    H142487   5.557   0.615   0.583  1.1420 -0.1669  0.1072
 7024TIP3    H242488   5.520   0.518   0.473 -1.4914  0.1146  0.6833
 7025TIP3   OH242489   4.592   0.426   1.308  0.1669  0.3971 -0.4457
 7025TIP3    H142490   4.635   0.489   1.365 -1.7636 -0.0551  1.7182
 7025TIP3    H242491   4.655   0.408   1.238  3.4394 -0.2122  2.3889
 7026TIP3   OH242492   3.826   4.541  16.850  0.1140 -0.2315 -0.2450
 7026TIP3    H142493   3.887   4.497  16.791 -1.7486 -2.5741 -0.5524
 7026TIP3    H242494   3.877   4.557  16.930  0.5053 -5.0371  0.7749
 7027TIP3   OH242495   3.293   0.955   3.242 -0.6128  0.6324 -0.3258
 7027TIP3    H142496   3.373   1.000   3.216  0.0620 -0.4015 -0.1293
 7027TIP3    H242497   3.323   0.875   3.284 -1.7505  0.4452  0.1866
 7028TIP3   OH242498   1.710   4.107  17.169  0.3739 -0.3928 -0.4607
 7028TIP3    H142499   1.765   4.126  17.093  1.0626  0.6757  0.2719
 7028TIP3    H242500   1.768   4.120  17.244 -0.6785  0.0323  0.3001
 7029TIP3   OH242501   5.011   3.107  12.270  0.0717  0.1613  0.1538
 7029TIP3    H142502   4.945   3.170  12.297  1.7729  1.7731  0.7892
 7029TIP3    H242503   4.972   3.062  12.194 -1.7245  0.9860  0.5398
 7030TIP3   OH242504   4.529   3.345  13.592  0.0109  0.5788  0.0706
 7030TIP3    H142505   4.551   3.252  13.601  0.5611  0.7095  0.1480
 7030TIP3    H242506   4.595   3.390  13.644 -0.5944  0.9872  0.4926
 7031TIP3   OH242507   5.130   4.579  10.417  0.0143  0.1338 -0.0090
 7031TIP3    H142508   5.162   4.541  10.499  1.0693 -0.9272 -0.8734
 7031TIP3    H242509   5.037   4.557  10.415  0.0367 -0.0486  0.7878
 7032TIP3   OH242510   3.797   4.906   3.708  0.3904  0.1647  0.2216
 7032TIP3    H142511   3.773   4.954   3.788  2.9368  1.4694  0.3066
 7032TIP3    H242512   3.799   4.973   3.640  0.3202 -0.5468 -0.4914
 7033TIP3   OH242513   2.530   0.804  15.403  0.0251  0.1604 -0.1603
 7033TIP3    H142514   2.603   0.837  15.456  2.0602  1.1760 -3.3041
 7033TIP3    H242515   2.486   0.741  15.460  1.7962  1.3356  2.7763
 7034TIP3   OH242516   5.262   6.427   1.787  0.1688  0.8099  0.1921
 7034TIP3    H142517   5.208   6.416   1.866  0.3583  2.2228  0.5469
 7034TIP3    H242518   5.209   6.389   1.717 -1.9345  3.2789  0.3023
 7035TIP3   OH242519   1.142   1.477   0.666 -0.3004  0.0633 -0.0375
 7035TIP3    H142520   1.236   1.484   0.678 -0.4366  1.6154  0.3360
 7035TIP3    H242521   1.104   1.531   0.735 -1.4033  0.8514 -1.1936
 7036TIP3   OH242522   6.513   3.097  15.180 -0.7393 -0.5972  0.5520
 7036TIP3    H142523   6.605   3.113  15.201 -0.5749  0.6606 -0.9186
 7036TIP3    H242524   6.513   3.012  15.135 -0.2297 -0.4153  0.1984
 7037TIP3   OH242525   2.641   2.864  13.153 -0.4280 -0.0426  0.0438
 7037TIP3    H142526   2.708   2.919  13.111 -0.5577 -1.3619 -2.0284
 7037TIP3    H242527   2.680   2.838  13.236  0.4340  1.5488  0.1793
 7038TIP3   OH242528   1.552   6.001   1.385 -0.7509  0.3429 -0.0542
 7038TIP3    H142529   1.591   6.002   1.473 -1.3694 -1.4961  0.2809
 7038TIP3    H242530   1.594   5.927   1.341  0.5319  2.0324 -1.8176
 7039TIP3   OH242531   0.552   0.132   4.674  0.8422 -0.3340  0.3417
 7039TIP3    H142532   0.637   0.117   4.633  1.6234  1.0643  1.3641
 7039TIP3    H242533   0.564   0.106   4.765 -0.1022 -0.9776  0.2959
 7040TIP3   OH242534   6.302   2.805  11.673  0.0064  0.0886 -0.0191
 7040TIP3    H142535   6.298   2.740  11.743 -0.1111  0.5974  0.4545
 7040TIP3    H242536   6.211   2.822  11.651  0.0640 -1.2058 -1.3812
 7041TIP3   OH242537   2.676   2.223   2.658  0.0934 -0.9597  0.1198
 7041TIP3    H142538   2.683   2.315   2.633 -1.2518 -0.5900  1.0012
 7041TIP3    H242539   2.613   2.222   2.730  1.9224 -2.2477  1.8421
 7042TIP3   OH242540   1.649   1.680   5.071  0.5404 -0.7920 -0.7837
 7042TIP3    H142541   1.676   1.730   4.994  0.1728  0.1360 -0.3097
 7042TIP3    H242542   1.625   1.745   5.136  0.0354 -1.5820 -0.1587
 7043TIP3   OH242543   5.404   1.579  14.129 -0.4366 -0.0673  0.3586
 7043TIP3    H142544   5.308   1.588  14.126 -0.4458  0.4455  1.7756
 7043TIP3    H242545   5.430   1.578  14.036 -1.8313 -0.5301 -0.0544
 7044TIP3   OH242546   3.804   1.971   4.021  0.3140 -0.3172 -0.2725
 7044TIP3    H142547   3.739   2.036   3.993 -0.4451 -0.4526  1.1278
 7044TIP3    H242548   3.878   1.986   3.962 -0.0685  1.4358 -0.3762
 7045TIP3   OH242549   3.727   5.234   0.791  0.3867 -0.0409 -0.2901
 7045TIP3    H142550   3.636   5.227   0.762  0.8883 -0.2286 -1.8906
 7045TIP3    H242551   3.762   5.309   0.744  0.5455  1.3213  1.8506
 7046TIP3   OH242552   0.078   4.133   3.844  0.1580 -0.4161 -0.0882
 7046TIP3    H142553   0.056   4.087   3.763 -0.8707 -0.9787  0.4977
 7046TIP3    H242554   0.149   4.193   3.819 -0.6465 -0.0427 -1.5635
 7047TIP3   OH242555   5.549   3.855  17.036 -0.3179  0.0584 -0.4908
 7047TIP3    H142556   5.542   3.943  17.074 -0.4099  0.1388 -0.6945
 7047TIP3    H242557   5.581   3.869  16.947 -2.3333  0.0593 -1.2719
 7048TIP3   OH242558   6.572   1.814   3.379 -0.7352  0.2801  0.0311
 7048TIP3    H142559   6.578   1.734   3.432  0.5302  1.0603  1.1552
 7048TIP3    H242560   6.582   1.784   3.289 -1.6347 -0.9586  0.3123
 7049TIP3   OH242561   0.174   2.777   5.752 -0.1792 -0.1080 -0.0404
 7049TIP3    H142562   0.165   2.740   5.664 -0.2942  3.7852 -1.9023
 7049TIP3    H242563   0.085   2.783   5.786 -0.2595 -0.4981 -0.1828
 7050TIP3   OH242564   5.242   3.561  13.555  0.3052 -0.0678 -0.0130
 7050TIP3    H142565   5.196   3.531  13.633 -1.7054  0.9675 -0.7096
 7050TIP3    H242566   5.332   3.577  13.584  0.4043 -2.5240  1.3411
 7051TIP3   OH242567   4.255   1.110  11.410  0.0814 -0.2294 -0.1535
 7051TIP3    H142568   4.188   1.168  11.445  2.1580  3.2235 -1.3916
 7051TIP3    H242569   4.217   1.076  11.329  0.2616  3.2156 -1.8821
 7052TIP3   OH242570   3.977   6.106  15.082  0.0333 -0.1270  0.0196
 7052TIP3    H142571   4.047   6.147  15.031  1.5681 -3.1190 -0.5472
 7052TIP3    H242572   3.898   6.119  15.029  0.7899  0.5004 -0.9972
 7053TIP3   OH242573   0.772   3.983  12.922  0.0894  0.1623  0.5315
 7053TIP3    H142574   0.787   3.920  12.992 -3.0003 -0.0150  1.1508
 7053TIP3    H242575   0.743   4.063  12.967 -0.4314  0.5558 -0.4691
 7054TIP3   OH242576   6.699   1.456   4.390  0.6840  0.6829  0.1677
 7054TIP3    H142577   6.701   1.368   4.428  0.1199  0.9576  0.8563
 7054TIP3    H242578   6.790   1.483   4.388  0.8789  0.0205 -0.2016
 7055TIP3   OH242579   1.468   2.636   1.627  0.2712 -0.5217 -0.4021
 7055TIP3    H142580   1.396   2.577   1.606 -0.0777 -0.1859 -0.1627
 7055TIP3    H242581   1.435   2.689   1.699  0.4581  0.1934 -0.8367
 7056TIP3   OH242582   2.701   2.803  16.969 -0.0001 -0.8058  0.0559
 7056TIP3    H142583   2.662   2.748  17.037  0.9436 -1.7014 -0.1091
 7056TIP3    H242584   2.795   2.789  16.978  0.3109  1.1290  0.2997
 7057TIP3   OH242585   4.447   1.085   5.471 -0.7152  0.6207 -0.0380
 7057TIP3    H142586   4.406   1.089   5.557 -1.0576  0.8905 -0.2114
 7057TIP3    H242587   4.383   1.042   5.415 -0.3520  0.1225 -0.0791
 7058TIP3   OH242588   4.691   3.803  11.566 -0.1503  0.3363  0.0453
 7058TIP3    H142589   4.709   3.791  11.473 -0.9999 -0.7110 -0.0030
 7058TIP3    H242590   4.596   3.814  11.571 -0.1770 -0.1294  0.8354
 7059TIP3   OH242591   2.114   5.322  11.380  0.3963 -0.1708  0.4881
 7059TIP3    H142592   2.033   5.319  11.329  0.3466  2.0349  0.3606
 7059TIP3    H242593   2.184   5.321  11.314  0.4032  0.1364  0.4894
 7060TIP3   OH242594   0.740   4.632  14.426  0.2520  0.0767  0.6243
 7060TIP3    H142595   0.718   4.566  14.491  0.4841 -0.2887  0.3359
 7060TIP3    H242596   0.833   4.619  14.408 -0.0008 -0.4439 -0.4503
 7061TIP3   OH242597   4.116   4.155  12.519 -0.8078 -0.0406  0.2973
 7061TIP3    H142598   4.078   4.155  12.607 -0.1256 -1.4744  0.6186
 7061TIP3    H242599   4.092   4.070  12.483  2.9074 -1.5126  0.9143
 7062TIP3   OH242600   0.632   5.881   4.557  0.4300 -0.1141  0.4240
 7062TIP3    H142601   0.663   5.963   4.519 -2.8143 -0.2353 -3.1355
 7062TIP3    H242602   0.544   5.901   4.589 -1.1700 -2.3545 -2.0881
 7063TIP3   OH242603   4.896   2.497  15.750  0.0774 -0.1292 -0.3548
 7063TIP3    H142604   4.870   2.406  15.767 -0.9899  0.1659 -0.3430
 7063TIP3    H242605   4.878   2.510  15.656 -1.2761  0.5231 -0.0327
 7064TIP3   OH242606   0.866   1.677   1.032 -0.6104  0.1726 -0.5232
 7064TIP3    H142607   0.775   1.674   1.062 -0.4303 -0.3143 -0.0166
 7064TIP3    H242608   0.907   1.745   1.087 -1.2534  2.2153 -2.4347
 7065TIP3   OH242609   2.387   5.566  15.384  0.2621 -0.0663 -0.0025
 7065TIP3    H142610   2.297   5.554  15.352  0.0189 -2.3711  1.3255
 7065TIP3    H242611   2.441   5.523  15.318 -0.0464 -2.5601  1.2197
 7066TIP3   OH242612   0.648   4.361  13.311  0.4077 -0.1912  0.1089
 7066TIP3    H142613   0.677   4.423  13.244 -1.7067  1.3691  0.5639
 7066TIP3    H242614   0.693   4.389  13.391  0.3583  0.0231  0.0615
 7067TIP3   OH242615   1.701   3.180   2.057 -0.3087  0.1782 -0.2157
 7067TIP3    H142616   1.610   3.210   2.064 -1.4859 -1.6527 -4.2110
 7067TIP3    H242617   1.740   3.238   1.991 -0.2750 -2.0499 -2.2988
 7068TIP3   OH242618   0.198   3.356  14.116 -0.5580  0.2989  0.6654
 7068TIP3    H142619   0.145   3.395  14.186 -2.3317  0.4109 -0.6590
 7068TIP3    H242620   0.275   3.411  14.110 -2.6909  3.4106 -0.7318
 7069TIP3   OH242621   3.200   2.229  13.821  0.6486 -0.3115 -0.6122
 7069TIP3    H142622   3.227   2.312  13.782  1.8271 -1.1473 -1.6519
 7069TIP3    H242623   3.278   2.198  13.867  0.7083 -1.5594 -1.5041
 7070TIP3   OH242624   0.325   3.207  15.595 -0.1379 -0.4203  0.2020
 7070TIP3    H142625   0.358   3.297  15.600 -0.6930 -0.2665  2.6170
 7070TIP3    H242626   0.334   3.182  15.503  2.8149  1.0461 -0.0063
 7071TIP3   OH242627   0.142   1.165  14.875  0.6534  0.0265  0.3965
 7071TIP3    H142628   0.226   1.121  14.882  0.3153 -0.5879  0.7894
 7071TIP3    H242629   0.161   1.250  14.836  1.2635 -0.6468 -0.8120
 7072TIP3   OH242630   6.382   4.971  14.101  0.3218  0.0501  0.7379
 7072TIP3    H142631   6.389   4.953  14.195  2.4397 -1.3009  0.3847
 7072TIP3    H242632   6.426   5.055  14.089  2.8820 -1.1888  0.6440
 7073TIP3   OH242633   0.969   5.020  16.338 -0.0256  0.0326 -0.0887
 7073TIP3    H142634   0.919   4.997  16.417  0.0392  0.9245  0.2278
 7073TIP3    H242635   0.912   5.081  16.291  0.2995  0.1794 -0.2925
 7074TIP3   OH242636   5.755   6.052  16.403  0.0551  0.1031 -0.2103
 7074TIP3    H142637   5.766   6.142  16.432 -0.0925  0.2848 -0.7039
 7074TIP3    H242638   5.663   6.046  16.377  0.6019  0.5204 -2.4765
 7075TIP3   OH242639   5.311   6.561   4.425  0.4933  0.3366 -0.7593
 7075TIP3    H142640   5.254   6.638   4.419 -1.4108 -0.7988  1.2400
 7075TIP3    H242641   5.285   6.507   4.351  0.6296  0.8363 -1.1834
 7076TIP3   OH242642   1.361   4.225   2.894 -0.2789  0.1529  0.0732
 7076TIP3    H142643   1.336   4.153   2.836  0.3797 -1.1542  1.3431
 7076TIP3    H242644   1.449   4.200   2.925 -0.6553  0.7663  1.6745
 7077TIP3   OH242645   4.883   6.445  16.443  0.4393 -0.1716 -0.0486
 7077TIP3    H142646   4.890   6.521  16.501  2.2749  0.2226 -0.7027
 7077TIP3    H242647   4.794   6.449  16.408 -0.2457  0.3499  1.6846
 7078TIP3   OH242648   5.803   5.461  13.764 -0.0708 -0.3282 -0.2224
 7078TIP3    H142649   5.745   5.448  13.689 -1.0671  2.8926 -0.1678
 7078TIP3    H242650   5.752   5.428  13.839 -0.8684  0.2917 -0.4754
 7079TIP3   OH242651   4.121   6.270  16.538  0.4731  0.3046  0.4351
 7079TIP3    H142652   4.200   6.216  16.543  0.1147 -0.2654  0.0111
 7079TIP3    H242653   4.154   6.360  16.541  1.2597  0.1056 -1.0903
 7080TIP3   OH242654   3.750   3.756   0.822 -0.7379  0.5951 -0.0067
 7080TIP3    H142655   3.745   3.852   0.829  0.5055  0.7638 -1.0173
 7080TIP3    H242656   3.679   3.732   0.763 -0.7535  0.9474 -0.1328
 7081TIP3   OH242657   1.759   3.863  11.363 -0.2718 -0.1134  0.3788
 7081TIP3    H142658   1.790   3.786  11.412 -2.0747 -0.9384  0.3007
 7081TIP3    H242659   1.736   3.828  11.277  0.0787  0.7769 -0.0820
 7082TIP3   OH242660   3.858   0.160  14.750  0.0295 -0.1539 -0.2836
 7082TIP3    H142661   3.792   0.106  14.794 -0.2613  1.1018  0.8767
 7082TIP3    H242662   3.901   0.099  14.689 -1.5926 -1.2083 -0.4504
 7083TIP3   OH242663   1.036   4.477  13.621  0.5465  0.4754  0.2552
 7083TIP3    H142664   1.106   4.514  13.675  0.5275 -2.0576  2.2245
 7083TIP3    H242665   1.080   4.408  13.570 -0.0991  0.4691 -0.3063
 7084TIP3   OH242666   0.180   4.876   1.136 -0.3591  0.1048  0.5991
 7084TIP3    H142667   0.234   4.949   1.108 -3.1908  1.8134 -0.7792
 7084TIP3    H242668   0.241   4.817   1.180  3.0325  0.7844 -2.7197
 7085TIP3   OH242669   5.999   5.252  13.066 -0.1216  0.5217  0.5426
 7085TIP3    H142670   6.076   5.282  13.114  0.7957  0.7003 -1.0074
 7085TIP3    H242671   6.005   5.293  12.981 -0.6631 -1.3238 -0.4518
 7086TIP3   OH242672   1.699   2.688   1.248 -0.0289  0.7376 -0.3358
 7086TIP3    H142673   1.635   2.621   1.222 -0.5550  1.8518 -2.0874
 7086TIP3    H242674   1.649   2.747   1.304  0.4987 -0.3937  1.4175
 7087TIP3   OH242675   0.851   1.107   5.345 -0.1028  0.3691 -0.9062
 7087TIP3    H142676   0.872   1.130   5.255  1.0897  2.8179 -0.0973
 7087TIP3    H242677   0.936   1.094   5.387 -0.4895  1.9248  0.4494
 7088TIP3   OH242678   5.214   5.165   1.952 -0.3554 -0.5035 -0.2403
 7088TIP3    H142679   5.273   5.169   1.876  0.0174  0.4615  0.0780
 7088TIP3    H242680   5.136   5.213   1.925 -0.6166 -0.9857 -0.3432
 7089TIP3   OH242681   3.310   0.094  14.609  0.5027 -0.0481  0.0659
 7089TIP3    H142682   3.292   0.001  14.610  0.2001 -0.0511 -1.9267
 7089TIP3    H242683   3.228   0.135  14.581  0.0135  1.0374  2.7914
 7090TIP3   OH242684   5.068   0.808   0.184  0.0440 -0.2636  0.4178
 7090TIP3    H142685   5.052   0.849   0.099  0.3103 -0.3534  0.3268
 7090TIP3    H242686   4.980   0.790   0.218 -0.0546 -0.5416  0.0135
 7091TIP3   OH242687   1.528   6.513  11.343  0.8939  0.1816  0.0098
 7091TIP3    H142688   1.608   6.566  11.340 -0.3086  2.3692  2.1854
 7091TIP3    H242689   1.478   6.542  11.267  1.8729 -0.8087 -1.0569
 7092TIP3   OH242690   4.307   4.488  14.950 -0.3170 -0.5197 -0.5189
 7092TIP3    H142691   4.373   4.551  14.922 -0.4804 -0.8837 -1.7706
 7092TIP3    H242692   4.348   4.439  15.021 -0.1898  0.9794  0.4893
 7093TIP3   OH242693   4.374   5.871   4.421 -0.2979  0.4647 -0.1087
 7093TIP3    H142694   4.299   5.821   4.453 -0.1331 -0.4320 -1.0708
 7093TIP3    H242695   4.390   5.936   4.490 -1.0811 -0.2182  0.7567
 7094TIP3   OH242696   5.050   6.758  11.443  0.0616  0.2984  0.0507
 7094TIP3    H142697   5.105   6.764  11.520  0.4704 -0.0850 -0.2046
 7094TIP3    H242698   5.085   6.824  11.383  1.8047 -1.5082 -1.0559
 7095TIP3   OH242699   0.089   2.502  13.129 -0.2308 -0.0362  0.0455
 7095TIP3    H142700   0.098   2.417  13.086  1.5174 -0.2075  0.6756
 7095TIP3    H242701   0.173   2.515  13.174 -0.6737  1.7686  0.4144
 7096TIP3   OH242702   3.597   0.536   2.506  0.4410 -0.1602  0.3558
 7096TIP3    H142703   3.608   0.566   2.416  3.0980  2.0041  1.2745
 7096TIP3    H242704   3.504   0.547   2.524 -0.5320 -2.4013 -2.6041
 7097TIP3   OH242705   3.925   3.268   0.313  0.8509  0.5056 -0.5549
 7097TIP3    H142706   3.872   3.213   0.371  0.4794  0.9327 -0.4817
 7097TIP3    H242707   3.964   3.206   0.251  0.8109  0.1082 -0.1869
 7098TIP3   OH242708   4.519   1.897   5.058  0.1923 -0.1890 -0.3843
 7098TIP3    H142709   4.509   1.814   5.011  2.3933 -2.1935  2.2943
 7098TIP3    H242710   4.610   1.922   5.045  0.3892  0.1082  1.2910
 7099TIP3   OH242711   0.233   6.458  10.413  0.0051  0.1028 -0.4081
 7099TIP3    H142712   0.163   6.474  10.476  0.2329  0.4691 -0.2394
 7099TIP3    H242713   0.246   6.543  10.370  1.5718  0.5504  0.8347
 7100TIP3   OH242714   1.645   5.575  11.584 -0.0238  0.1000  0.3860
 7100TIP3    H142715   1.647   5.637  11.511  1.7010  0.0049  0.3017
 7100TIP3    H242716   1.730   5.587  11.627  0.1903 -1.8983  0.6100
 7101TIP3   OH242717   2.726   2.304  11.000 -0.6667 -0.4318  0.0877
 7101TIP3    H142718   2.739   2.301  10.905 -1.2410 -0.4332  0.0041
 7101TIP3    H242719   2.732   2.397  11.022 -0.8121 -0.4023  0.0059
 7102TIP3   OH242720   1.796   5.799  12.412  0.2842  0.8067 -0.5063
 7102TIP3    H142721   1.824   5.720  12.366  0.3983 -0.1212  1.0936
 7102TIP3    H242722   1.831   5.871  12.359  0.0280 -0.1908 -2.0909
 7103TIP3   OH242723   0.146   6.394  16.045 -0.4933 -0.8080 -0.2868
 7103TIP3    H142724   0.054   6.394  16.069 -0.1948 -0.9417  0.9181
 7103TIP3    H242725   0.161   6.307  16.007 -0.9835 -0.5808 -1.0229
 7104TIP3   OH242726   1.067   2.927   5.586 -0.0557 -0.7669 -0.0172
 7104TIP3    H142727   1.056   2.963   5.497 -1.1362 -1.3272 -0.1303
 7104TIP3    H242728   1.129   2.855   5.576  1.9483  0.8518  0.1683
 7105TIP3   OH242729   4.462   6.599  12.185 -0.1701  0.4078  0.0505
 7105TIP3    H142730   4.482   6.630  12.273 -0.3415 -1.8592  0.9552
 7105TIP3    H242731   4.537   6.546  12.160 -0.4159  0.4857 -0.9085
 7106TIP3   OH242732   2.269   4.750   0.029  0.0878 -0.2808  0.5140
 7106TIP3    H142733   2.211   4.776  -0.042  1.7102  0.1744 -0.7229
 7106TIP3    H242734   2.274   4.655   0.023  0.6670 -0.2043 -0.3863
 7107TIP3   OH242735   0.783   6.087  13.525  0.0451 -0.6969  0.1658
 7107TIP3    H142736   0.803   6.076  13.618  1.2317  0.5102  0.0909
 7107TIP3    H242737   0.772   5.998  13.492 -1.0925 -1.1197  1.5800
 7108TIP3   OH242738   1.308   2.678   4.406  0.3154 -0.1530  0.7545
 7108TIP3    H142739   1.378   2.695   4.343  0.3378  0.0385  0.8304
 7108TIP3    H242740   1.274   2.765   4.427 -1.4790 -0.3574 -1.0053
 7109TIP3   OH242741   1.947   4.845  16.382 -0.4413 -0.5423 -0.2066
 7109TIP3    H142742   1.998   4.786  16.438  1.5870  0.4684 -0.9267
 7109TIP3    H242743   1.875   4.790  16.350  0.4417 -2.1640  0.4559
 7110TIP3   OH242744   0.128   1.718   6.321  0.1633 -0.3274 -0.2169
 7110TIP3    H142745   0.071   1.789   6.293 -0.0753  0.0370  1.1628
 7110TIP3    H242746   0.216   1.746   6.295  0.1887  0.8986  1.1011
 7111TIP3   OH242747   1.254   0.072  11.990 -0.3438 -0.5049  0.3800
 7111TIP3    H142748   1.237  -0.018  12.017  1.9184 -0.9711  0.4234
 7111TIP3    H242749   1.332   0.098  12.039  0.0739  0.8699 -0.9227
 7112TIP3   OH242750   6.689   0.184  11.805  0.2455 -0.1115  0.3725
 7112TIP3    H142751   6.636   0.129  11.747  1.9481 -1.2725 -0.1533
 7112TIP3    H242752   6.635   0.194  11.884 -0.3690 -2.1171  0.2791
 7113TIP3   OH242753   3.735   1.847  16.242 -0.6007  0.9909  0.1798
 7113TIP3    H142754   3.772   1.764  16.213 -2.6414 -0.0072  0.2323
 7113TIP3    H242755   3.789   1.874  16.316 -0.5305 -0.8640  0.8453
 7114TIP3   OH242756   3.614   4.812  15.016  0.0865 -0.2168  0.0287
 7114TIP3    H142757   3.560   4.782  14.943 -1.2521 -0.0778  0.9408
 7114TIP3    H242758   3.699   4.833  14.975 -0.5255 -0.4421 -1.4276
 7115TIP3   OH242759   4.951   0.485  16.748 -0.0902 -0.3524 -0.0939
 7115TIP3    H142760   4.967   0.404  16.796 -1.4755 -0.0697  0.9243
 7115TIP3    H242761   4.855   0.489  16.738 -0.0167  0.8893 -0.5935
 7116TIP3   OH242762   4.063   6.136  12.047  0.2582 -0.0403  0.1443
 7116TIP3    H142763   4.146   6.143  11.999  0.8553  0.0611  1.1549
 7116TIP3    H242764   4.076   6.060  12.105 -0.5612 -0.3527 -0.0800
 7117TIP3   OH242765   0.408   6.207  12.529  0.1234 -0.0939 -0.3497
 7117TIP3    H142766   0.467   6.234  12.600 -0.7762 -0.3963  0.5299
 7117TIP3    H242767   0.451   6.240  12.450  0.5990  1.2309  0.4120
 7118TIP3   OH242768   1.945   2.577  15.513 -0.6701 -0.0058 -0.7796
 7118TIP3    H142769   1.897   2.589  15.595 -0.5725 -2.2941 -0.3374
 7118TIP3    H242770   2.009   2.508  15.532 -0.2801 -0.2105 -2.6383
 7119TIP3   OH242771   5.440   6.162  11.902 -0.3596 -0.7634  0.8182
 7119TIP3    H142772   5.395   6.230  11.852 -1.0377 -0.2981  1.9976
 7119TIP3    H242773   5.440   6.085  11.846  0.1063  0.1050 -0.4053
 7120TIP3   OH242774   3.080   2.685  11.512 -0.3681 -0.6830 -0.1676
 7120TIP3    H142775   3.128   2.731  11.581  0.6738  0.1103 -1.3822
 7120TIP3    H242776   2.988   2.705  11.529  0.0222  1.7928 -0.5746
 7121TIP3   OH242777   2.051   4.211   2.418 -0.2044  0.6411 -0.5997
 7121TIP3    H142778   2.131   4.204   2.471  1.0533  1.5405 -2.2510
 7121TIP3    H242779   2.004   4.285   2.456 -0.4755 -0.1687  0.6636
 7122TIP3   OH242780   5.013   6.183  11.597 -0.3192 -0.1460  0.4141
 7122TIP3    H142781   5.085   6.214  11.541 -0.4622 -2.0417 -0.8878
 7122TIP3    H242782   4.987   6.261  11.647  0.2586  1.4614 -1.6644
 7123TIP3   OH242783   0.472   5.107   3.179 -0.4600 -0.3031 -0.5302
 7123TIP3    H142784   0.437   5.170   3.241 -0.1634 -1.2654  0.6536
 7123TIP3    H242785   0.566   5.106   3.196 -0.5439 -1.5552 -0.0366
 7124TIP3   OH242786   3.433   5.897  13.544  0.6685 -0.5835  0.7675
 7124TIP3    H142787   3.453   5.868  13.455 -0.6151  1.0428 -0.1010
 7124TIP3    H242788   3.348   5.857  13.563  0.3647  0.0652  0.7752
 7125TIP3   OH242789   0.028   1.957   6.191 -0.5269  0.2195 -0.8310
 7125TIP3    H142790  -0.031   1.982   6.263  0.1471  2.2984 -0.9257
 7125TIP3    H242791   0.112   1.997   6.214  0.7394 -2.1754 -1.0138
 7126TIP3   OH242792   2.463   2.283  15.369  0.3319  0.1309  0.4031
 7126TIP3    H142793   2.404   2.236  15.428  0.3616 -0.3465  0.0602
 7126TIP3    H242794   2.405   2.341  15.319  0.1798 -0.1442  0.2524
 7127TIP3   OH242795   5.200   3.651  14.690  0.3236  0.5789  0.3830
 7127TIP3    H142796   5.146   3.572  14.691 -1.1951  1.5720  1.1031
 7127TIP3    H242797   5.285   3.622  14.658 -0.8453 -0.9269 -1.6038
 7128TIP3   OH242798   1.654   0.931   0.813  0.5963  0.0353  0.8041
 7128TIP3    H142799   1.685   1.018   0.838 -0.0301 -0.0766  2.0594
 7128TIP3    H242800   1.567   0.925   0.852  0.5734 -1.0999  0.6073
 7129TIP3   OH242801   1.261   2.978   2.273  0.2035 -0.5962  0.1287
 7129TIP3    H142802   1.323   3.051   2.275  0.4057 -0.7688  0.2057
 7129TIP3    H242803   1.209   2.992   2.194  0.5188 -0.5951 -0.0821
 7130TIP3   OH242804   2.476   0.514  16.355 -0.7691  0.0126  0.2874
 7130TIP3    H142805   2.406   0.452  16.334  0.9800 -2.1580  0.5028
 7130TIP3    H242806   2.450   0.596  16.312 -3.1601 -0.8460 -0.0214
 7131TIP3   OH242807   1.531   4.519   3.618  0.2950 -0.5773 -0.2606
 7131TIP3    H142808   1.514   4.457   3.690 -2.0365  0.6107  0.2915
 7131TIP3    H242809   1.455   4.577   3.617  0.8904  0.2990 -2.8567
 7132TIP3   OH242810   5.313   4.986  15.639  0.2658 -0.6799  0.2896
 7132TIP3    H142811   5.222   4.962  15.657 -0.0333 -0.3870 -0.7007
 7132TIP3    H242812   5.366   4.928  15.693 -0.4866 -1.8166 -0.1625
 7133TIP3   OH242813   6.088   2.133  15.214 -0.0350 -0.5172  0.5247
 7133TIP3    H142814   6.021   2.186  15.257 -1.0256 -2.1371  1.0637
 7133TIP3    H242815   6.152   2.114  15.282 -0.2983 -0.9743  0.6522
 7134TIP3   OH242816   4.652   1.537  13.511  0.2771  0.5840  0.3250
 7134TIP3    H142817   4.590   1.524  13.582 -0.6997  0.1181 -0.5936
 7134TIP3    H242818   4.631   1.624  13.476 -0.9661 -0.2103 -1.0115
 7135TIP3   OH242819   1.484   2.296  13.145 -0.6256 -0.8591  0.2617
 7135TIP3    H142820   1.571   2.330  13.165 -0.9991  0.6811 -0.5896
 7135TIP3    H242821   1.435   2.305  13.227 -1.3313  2.7778 -0.3831
 7136TIP3   OH242822   3.163   3.651   3.417 -0.2160  0.2179  0.5317
 7136TIP3    H142823   3.147   3.710   3.343  1.6103  1.4057  1.0157
 7136TIP3    H242824   3.078   3.641   3.458 -0.5318  3.0104  0.7343
 7137TIP3   OH242825   4.271   2.151   5.966  0.3935 -0.3905  0.4561
 7137TIP3    H142826   4.205   2.212   5.932  1.2572 -0.3097 -1.2133
 7137TIP3    H242827   4.229   2.108   6.040 -0.8850  0.9297  0.5453
 7138TIP3   OH242828   1.764   2.441  13.433 -0.5851 -0.1065 -0.1462
 7138TIP3    H142829   1.723   2.475  13.353 -0.6233 -3.1443 -1.5604
 7138TIP3    H242830   1.845   2.400  13.403 -0.1512 -0.5507  1.5202
 7139TIP3   OH242831   5.200   5.051  13.235  0.0370  0.4067 -0.3763
 7139TIP3    H142832   5.149   5.090  13.306  1.7864  0.6413  0.8369
 7139TIP3    H242833   5.268   5.116  13.217 -0.5378  0.4772 -2.5124
 7140TIP3   OH242834   4.632   2.315  11.780 -0.3226  0.0921  0.1215
 7140TIP3    H142835   4.617   2.339  11.689  0.8536 -0.4620 -0.2405
 7140TIP3    H242836   4.577   2.238  11.793 -2.1971  1.4417  0.5625
 7141TIP3   OH242837   4.870   4.712   5.880 -0.3967 -0.3020 -0.1548
 7141TIP3    H142838   4.876   4.663   5.962  0.1428 -0.7434 -0.4473
 7141TIP3    H242839   4.936   4.671   5.823 -1.2183 -0.4440 -1.0287
 7142TIP3   OH242840   0.586   6.498  15.415 -0.1246  0.5397 -0.4432
 7142TIP3    H142841   0.638   6.570  15.452  0.0676  0.6233 -0.8740
 7142TIP3    H242842   0.539   6.462  15.491 -0.6250  1.4478 -0.3012
 7143TIP3   OH242843   6.294   3.741   1.122 -0.8211 -0.2333 -0.3419
 7143TIP3    H142844   6.217   3.693   1.092 -1.4202  0.8846 -0.6616
 7143TIP3    H242845   6.365   3.678   1.116 -2.1704 -2.4093  3.1379
 7144TIP3   OH242846   4.409   1.022  11.074 -0.1083 -0.0322  0.5075
 7144TIP3    H142847   4.363   0.939  11.064  1.1753 -0.9333  1.7404
 7144TIP3    H242848   4.435   1.046  10.985 -2.4316  0.2549 -0.1690
 7145TIP3   OH242849   1.720   1.626  11.023  0.1246 -0.6480  0.0387
 7145TIP3    H142850   1.720   1.644  10.929 -0.6206 -0.1454  0.1272
 7145TIP3    H242851   1.789   1.561  11.035  0.3954 -0.5295 -0.8192
 7146TIP3   OH242852   2.807   2.134   4.459 -0.0517  0.1720  0.0969
 7146TIP3    H142853   2.717   2.116   4.483 -0.2410 -0.7902 -1.2005
 7146TIP3    H242854   2.810   2.228   4.443 -0.6031  0.3457  0.9581
 7147TIP3   OH242855   6.767   1.123   5.933  0.1569  0.0521 -0.2036
 7147TIP3    H142856   6.776   1.030   5.953  3.5832  0.7014  2.1430
 7147TIP3    H242857   6.729   1.161   6.013  3.0094  1.1764  0.7264
 7148TIP3   OH242858   4.802   1.600   2.931 -0.0250 -0.2533 -0.6967
 7148TIP3    H142859   4.882   1.651   2.927  0.4359 -0.9964 -1.1433
 7148TIP3    H242860   4.787   1.584   3.024 -0.6299  1.3658 -0.4715
 7149TIP3   OH242861   0.131   4.263  12.409 -0.4754 -0.1914 -0.5980
 7149TIP3    H142862   0.145   4.237  12.500 -0.6894 -0.2938 -0.5937
 7149TIP3    H242863   0.036   4.270  12.400 -0.4503 -0.0612 -0.7806
 7150TIP3   OH242864   5.379   3.084   3.702 -0.5466 -0.5915  0.5431
 7150TIP3    H142865   5.339   3.107   3.785 -1.1139  1.1490 -0.1786
 7150TIP3    H242866   5.307   3.048   3.650 -0.6072  0.1148  0.1405
 7151TIP3   OH242867   2.793   1.398  16.465 -0.0132  0.4520  0.0168
 7151TIP3    H142868   2.808   1.450  16.544  0.1457 -0.9566  0.9557
 7151TIP3    H242869   2.708   1.357  16.479  1.0703 -1.7492  0.6349
 7152TIP3   OH242870   6.709   2.058  14.493 -0.1106  0.4454 -0.5408
 7152TIP3    H142871   6.695   2.067  14.399 -2.0318 -1.0984 -0.4565
 7152TIP3    H242872   6.625   2.082  14.533  0.5705  0.7492  0.7711
 7153TIP3   OH242873   1.872   4.845  11.846 -0.5671 -0.2646  0.9610
 7153TIP3    H142874   1.866   4.827  11.940 -1.0427  2.0897  1.4567
 7153TIP3    H242875   1.793   4.897  11.827 -0.0585  0.0069 -0.5536
 7154TIP3   OH242876   1.683   2.533  12.126  0.1736 -0.2801  0.0369
 7154TIP3    H142877   1.623   2.555  12.197  0.4232 -0.0415  0.1754
 7154TIP3    H242878   1.634   2.472  12.071 -0.6231  0.7623 -0.4576
 7155TIP3   OH242879   4.816   1.091  10.802  0.0954 -0.3584  0.0027
 7155TIP3    H142880   4.880   1.097  10.731 -0.4746 -0.3003 -0.5067
 7155TIP3    H242881   4.750   1.157  10.781  0.5584  0.5263  1.2446
 7156TIP3   OH242882   5.266   4.100  16.411  0.2209 -0.0622  0.0949
 7156TIP3    H142883   5.355   4.100  16.445  0.1894  0.6521  0.1969
 7156TIP3    H242884   5.264   4.172  16.347 -0.7521  1.1335  1.4063
 7157TIP3   OH242885   6.386   0.287   4.857  0.1272 -0.1299 -0.2647
 7157TIP3    H142886   6.296   0.310   4.879  0.7716  1.0286  1.4408
 7157TIP3    H242887   6.401   0.203   4.901  0.1214  0.0975  0.1803
 7158TIP3   OH242888   5.614   3.692   1.979 -0.1533  0.5036 -0.0730
 7158TIP3    H142889   5.645   3.773   1.939 -1.9907  1.2699 -0.0358
 7158TIP3    H242890   5.609   3.710   2.072 -0.3449  0.2832 -0.0373
 7159TIP3   OH242891   2.310   3.433   2.266  0.2777 -0.3072 -0.2579
 7159TIP3    H142892   2.226   3.459   2.303  0.6941 -1.7429  1.8995
 7159TIP3    H242893   2.375   3.486   2.313  0.7831 -1.7072  0.6861
 7160TIP3   OH242894   6.440   5.871   2.255  0.1012 -0.0203 -0.3268
 7160TIP3    H142895   6.358   5.864   2.206  0.2382  0.7551 -0.6706
 7160TIP3    H242896   6.508   5.843   2.194 -0.1194 -3.6797  0.8375
 7161TIP3   OH242897   1.142   4.439  12.278 -0.1052  0.4482  0.5648
 7161TIP3    H142898   1.101   4.438  12.192  1.0990 -0.3684 -0.0374
 7161TIP3    H242899   1.207   4.509  12.273 -0.6207  0.9719  1.1140
 7162TIP3   OH242900   3.176   3.664  13.495  0.7238  0.1627 -0.2181
 7162TIP3    H142901   3.226   3.662  13.413  0.6249  1.5904 -0.3385
 7162TIP3    H242902   3.223   3.725  13.551  0.3654 -0.2213  0.5150
 7163TIP3   OH242903   2.304   0.209  10.620 -0.4418  0.1499  0.0810
 7163TIP3    H142904   2.240   0.138  10.618 -1.0358  0.6791 -0.0132
 7163TIP3    H242905   2.367   0.187  10.552 -0.8364 -0.0921 -0.2092
 7164TIP3   OH242906   5.660   4.982  15.427  0.7734 -0.2645 -0.3434
 7164TIP3    H142907   5.637   4.978  15.520  0.9060 -0.6702 -0.3262
 7164TIP3    H242908   5.705   5.066  15.417  2.0338 -0.8443  0.2512
 7165TIP3   OH242909   3.381   4.818   2.535  0.0497 -0.0026  0.0765
 7165TIP3    H142910   3.394   4.808   2.441 -0.1894  0.6291 -0.0273
 7165TIP3    H242911   3.416   4.737   2.573  2.8054  0.8678 -0.3261
 7166TIP3   OH242912   2.145   4.738   5.432 -0.2902 -0.3383 -0.1107
 7166TIP3    H142913   2.198   4.810   5.468  0.0589  0.4472 -2.1028
 7166TIP3    H242914   2.055   4.760   5.456 -0.0222 -0.1729  0.7915
 7167TIP3   OH242915   4.602   4.837  13.582  0.5977 -0.3626  0.0075
 7167TIP3    H142916   4.638   4.912  13.535  0.8192 -0.1559  0.5052
 7167TIP3    H242917   4.678   4.797  13.625  0.2709 -0.0616  0.8734
 7168TIP3   OH242918   6.670   4.542   3.858 -0.2146  0.0716 -0.4225
 7168TIP3    H142919   6.677   4.533   3.763 -0.0452  2.4966 -0.6937
 7168TIP3    H242920   6.600   4.605   3.872 -1.3715 -1.4478  1.1856
 7169TIP3   OH242921   5.302   1.126  11.391  0.4356 -0.0375 -0.1742
 7169TIP3    H142922   5.236   1.063  11.420  1.1418 -1.0406 -0.6829
 7169TIP3    H242923   5.355   1.078  11.327  1.2208  0.9631 -0.3053
 7170TIP3   OH242924   5.716   1.202   5.285  0.0667  0.4581 -0.3721
 7170TIP3    H142925   5.758   1.177   5.368 -1.4687 -2.5053 -0.3585
 7170TIP3    H242926   5.638   1.147   5.280 -0.6586  1.5672 -3.1725
 7171TIP3   OH242927   3.687   4.536   3.956 -0.2213 -0.5749  0.3071
 7171TIP3    H142928   3.683   4.632   3.947  1.5609 -0.5507 -0.5217
 7171TIP3    H242929   3.772   4.520   3.998 -0.3295 -1.8216  0.0658
 7172TIP3   OH242930   0.020   0.542   5.065 -0.7293  0.1494 -0.7471
 7172TIP3    H142931   0.040   0.563   4.974  1.3065  0.7560 -0.2219
 7172TIP3    H242932  -0.071   0.569   5.077 -1.0253  0.0620 -2.5773
 7173TIP3   OH242933   1.960   5.620  16.254 -0.2240 -0.4268 -0.0182
 7173TIP3    H142934   1.917   5.555  16.198  1.4672 -0.3479 -1.4820
 7173TIP3    H242935   1.966   5.699  16.200 -0.5841  0.3893  1.0922
 7174TIP3   OH242936   2.272   4.831   0.297  0.1793  0.1364 -0.3537
 7174TIP3    H142937   2.265   4.816   0.203 -1.1823  2.6514 -0.7241
 7174TIP3    H242938   2.226   4.914   0.313 -0.2362 -0.5227  2.6345
 7175TIP3   OH242939   0.270   5.903  13.741  0.7010  0.3022  0.3489
 7175TIP3    H142940   0.342   5.840  13.732  1.0687  0.9085 -1.3209
 7175TIP3    H242941   0.313   5.986  13.763  0.9382  1.3452 -3.3447
 7176TIP3   OH242942   4.537   1.151   6.601  0.4049 -0.5286 -0.1779
 7176TIP3    H142943   4.472   1.219   6.619  0.4395 -0.8203  1.1372
 7176TIP3    H242944   4.592   1.188   6.531 -0.0845  0.4365 -0.0700
 7177TIP3   OH242945   5.572   0.048   4.656  0.1168 -0.2646  0.2247
 7177TIP3    H142946   5.480   0.068   4.638 -0.4614 -1.4441  1.6699
 7177TIP3    H242947   5.597  -0.014   4.587 -1.4266 -3.0603  1.9654
 7178TIP3   OH242948   4.832   5.443  17.128 -0.3543 -0.0898  0.0192
 7178TIP3    H142949   4.889   5.518  17.146  0.7658 -0.7707 -0.6263
 7178TIP3    H242950   4.879   5.368  17.163 -1.3666 -0.5438  0.4495
 7179TIP3   OH242951   6.331   2.091   3.916 -0.6536 -0.1516  0.0502
 7179TIP3    H142952   6.284   2.148   3.856 -1.0542  0.6799  1.1122
 7179TIP3    H242953   6.269   2.021   3.937 -1.9596  1.5580  2.3511
 7180TIP3   OH242954   3.623   1.370  11.561 -0.1653 -0.1897 -0.7028
 7180TIP3    H142955   3.529   1.377  11.546 -0.0499  1.8492 -0.8145
 7180TIP3    H242956   3.631   1.340  11.651 -0.9984  1.8714  0.1263
 7181TIP3   OH242957   1.150   1.805  16.547  0.2137 -0.1096  0.3749
 7181TIP3    H142958   1.120   1.889  16.582  1.5886  0.6093 -0.1207
 7181TIP3    H242959   1.069   1.761  16.520 -0.6513  0.4175  1.9681
 7182TIP3   OH242960   5.198   0.331  17.039  0.0746 -0.2695 -0.1525
 7182TIP3    H142961   5.196   0.394  17.111 -1.0221 -1.2795  0.7385
 7182TIP3    H242962   5.261   0.265  17.066 -0.9646 -1.0998  0.2975
 7183TIP3   OH242963   2.791   2.764   2.613 -0.8974 -0.2111 -0.2822
 7183TIP3    H142964   2.875   2.791   2.651 -0.6140 -0.5061 -0.6868
 7183TIP3    H242965   2.763   2.838   2.560 -1.9407  0.7275  1.5102
 7184TIP3   OH242966   5.706   1.509   2.241  0.1118  0.7703  0.2700
 7184TIP3    H142967   5.746   1.570   2.303  0.2565  2.0318 -1.0115
 7184TIP3    H242968   5.772   1.499   2.173 -0.9169  1.2372 -0.8207
 7185TIP3   OH242969   2.629   5.218   3.045  0.1305 -0.0960 -0.4435
 7185TIP3    H142970   2.572   5.295   3.052 -1.4749 -1.2916  0.5589
 7185TIP3    H242971   2.598   5.173   2.966 -0.3351 -0.7407  0.0944
 7186TIP3   OH242972   5.969   6.476   1.798 -0.3421  0.2375  0.1191
 7186TIP3    H142973   5.928   6.557   1.768  1.0879  0.4583 -1.3663
 7186TIP3    H242974   6.062   6.496   1.802 -0.2180 -0.5190  2.5477
 7187TIP3   OH242975   3.418   6.055  15.513 -0.1721  0.0206 -0.0048
 7187TIP3    H142976   3.494   6.017  15.557 -1.2881 -0.6682  1.4114
 7187TIP3    H242977   3.418   6.147  15.541  1.6460  0.7906 -2.2085
 7188TIP3   OH242978   1.783   1.036  14.355 -0.0149 -0.5349  0.4229
 7188TIP3    H142979   1.755   1.118  14.313 -1.4433 -1.1313  0.1465
 7188TIP3    H242980   1.769   0.969  14.288 -2.7014 -1.5638  1.8539
 7189TIP3   OH242981   0.805   0.757   5.873  0.0845  0.1432 -0.1103
 7189TIP3    H142982   0.761   0.692   5.819 -1.2372  2.1236 -1.5732
 7189TIP3    H242983   0.896   0.756   5.844  0.0379 -0.9065 -0.2350
 7190TIP3   OH242984   2.545   2.940  11.787  0.0435  0.3728 -0.2428
 7190TIP3    H142985   2.471   2.965  11.731 -0.6384 -0.3548  0.3251
 7190TIP3    H242986   2.553   3.012  11.850 -0.4876  0.2270 -0.0083
 7191TIP3   OH242987   0.187   3.264   1.191 -0.5759 -0.1408 -0.8214
 7191TIP3    H142988   0.223   3.308   1.114 -0.3055 -1.1642 -1.2977
 7191TIP3    H242989   0.191   3.171   1.170 -2.7204 -0.3647 -0.5578
 7192TIP3   OH242990   1.606   6.354   6.187  0.8323  0.3286 -0.0461
 7192TIP3    H142991   1.669   6.306   6.240  0.7063  0.7799  0.5189
 7192TIP3    H242992   1.650   6.438   6.168  0.2156  0.8574  0.7881
 7193TIP3   OH242993   5.045   1.203   3.517 -0.5592 -0.2454 -0.5624
 7193TIP3    H142994   5.087   1.117   3.528 -0.1261 -0.5798 -3.8151
 7193TIP3    H242995   4.972   1.202   3.579  0.7845 -1.9870  1.1207
 7194TIP3   OH242996   5.472   1.754  16.008 -0.5141 -0.3291  0.5677
 7194TIP3    H142997   5.556   1.756  16.053 -0.2547  1.6992  0.1004
 7194TIP3    H242998   5.425   1.681  16.048  2.4782 -3.4672 -1.1366
 7195TIP3   OH242999   5.028   3.721   3.464  0.2683  0.2277 -0.4508
 7195TIP3    H143000   4.941   3.683   3.455  0.8331 -1.5604  1.1473
 7195TIP3    H243001   5.085   3.665   3.411  0.7013  0.4716 -0.2577
 7196TIP3   OH243002   5.792   4.020  16.080  0.0730  0.1232 -0.3561
 7196TIP3    H143003   5.878   3.979  16.090 -0.5024 -1.9003 -2.7572
 7196TIP3    H243004   5.810   4.101  16.033  0.8386  0.8676  1.1323
 7197TIP3   OH243005   3.568   4.056   3.912 -0.2955 -0.1062 -0.0176
 7197TIP3    H143006   3.588   4.135   3.962  3.5870 -1.6918  1.2982
 7197TIP3    H243007   3.606   4.073   3.825  1.5562 -0.8150  0.6008
 7198TIP3   OH243008   5.604   5.409   5.086  0.1280 -0.1170  0.1746
 7198TIP3    H143009   5.653   5.437   5.162  0.8896  0.5395 -0.5396
 7198TIP3    H243010   5.512   5.424   5.110  0.3258 -0.3417  1.1105
 7199TIP3   OH243011   3.023   2.477  14.180 -0.1546  0.2197 -0.6713
 7199TIP3    H143012   3.110   2.439  14.197 -1.2834 -2.0354  0.5386
 7199TIP3    H243013   3.020   2.487  14.085  1.1438 -0.4221 -0.8074
 7200TIP3   OH243014   4.438   6.347  12.371  0.3447  0.4204 -0.5283
 7200TIP3    H143015   4.365   6.367  12.312  0.1923  1.1154 -0.1227
 7200TIP3    H243016   4.507   6.409  12.346  0.4162  0.4632 -0.2301
 7201TIP3   OH243017   2.041   2.202  13.714  0.0131 -0.2912  0.4439
 7201TIP3    H143018   1.999   2.141  13.774 -1.3352 -1.3114 -1.4444
 7201TIP3    H243019   1.974   2.268  13.696  0.7002  0.4952  0.7043
 7202TIP3   OH243020   2.273   0.122  11.562  0.2766 -0.5217  0.3847
 7202TIP3    H143021   2.244   0.049  11.617  0.6676 -0.1846  1.0477
 7202TIP3    H243022   2.333   0.171  11.617 -0.2336  0.4936  0.0613
 7203TIP3   OH243023   3.918   5.224   2.202  0.5793  0.3636 -0.4710
 7203TIP3    H143024   3.865   5.233   2.281 -0.0822 -0.2595 -0.8330
 7203TIP3    H243025   3.944   5.132   2.200 -2.5460 -0.6512 -2.8805
 7204TIP3   OH243026   4.666   1.493  11.513 -0.0835  0.0084 -0.0961
 7204TIP3    H143027   4.620   1.410  11.507 -0.7943  0.3492  0.3839
 7204TIP3    H243028   4.711   1.503  11.429 -1.7379  0.1410 -1.0170
 7205TIP3   OH243029   2.912   1.446  12.070 -0.1045 -0.4349 -0.1889
 7205TIP3    H143030   2.989   1.414  12.116  1.2415  2.3906 -0.2561
 7205TIP3    H243031   2.848   1.463  12.139 -0.3591 -1.8843 -0.0399
 7206TIP3   OH243032   2.234   2.531   2.743 -0.1051  0.1630  0.0738
 7206TIP3    H143033   2.236   2.449   2.793  0.0548  0.7053  0.9745
 7206TIP3    H243034   2.305   2.584   2.780  0.2415  0.4425 -0.9703
 7207TIP3   OH243035   0.521   2.549   6.451  0.0242 -0.1975 -0.3745
 7207TIP3    H143036   0.443   2.497   6.470  0.3506 -0.7169 -0.4465
 7207TIP3    H243037   0.512   2.626   6.507  0.1674 -0.9352  0.6786
 7208TIP3   OH243038   3.002   1.923  15.536  0.7085 -1.1175  0.0991
 7208TIP3    H143039   2.962   1.883  15.458 -1.0288  0.6153  0.0008
 7208TIP3    H243040   3.082   1.964  15.504 -0.5226  0.4951 -1.0868
 7209TIP3   OH243041   5.697   2.858  12.345 -0.1658  0.1993 -0.2502
 7209TIP3    H143042   5.754   2.825  12.414 -1.0750 -0.2357  0.3139
 7209TIP3    H243043   5.751   2.857  12.266  0.7823  0.3738  0.3843
 7210TIP3   OH243044   5.552   4.079   5.752 -0.0044  0.3650 -0.3508
 7210TIP3    H143045   5.476   4.107   5.700 -0.4844 -1.1930 -0.5367
 7210TIP3    H243046   5.514   4.025   5.822  1.0650 -2.6336 -1.9382
 7211TIP3   OH243047   2.573   0.174  16.671 -0.6310  0.0375 -0.0899
 7211TIP3    H143048   2.624   0.245  16.709  1.3535  0.0715 -2.5228
 7211TIP3    H243049   2.593   0.098  16.724  2.2576  0.0046 -1.0542
 7212TIP3   OH243050   4.454   5.189   5.579 -0.5346 -0.1399  0.0064
 7212TIP3    H143051   4.527   5.152   5.628 -1.8364 -0.4714  1.8005
 7212TIP3    H243052   4.424   5.263   5.633 -0.9256  0.6074 -1.1871
 7213TIP3   OH243053   2.704   4.668   4.077  0.2050  0.8706 -0.5469
 7213TIP3    H143054   2.695   4.739   4.140  0.8672  0.9402 -0.5154
 7213TIP3    H243055   2.788   4.685   4.033 -0.9211  1.6493 -2.5133
 7214TIP3   OH243056   5.090   5.559   1.911 -0.2342  0.1554  0.1158
 7214TIP3    H143057   5.055   5.647   1.927  3.4035  1.6908  0.4606
 7214TIP3    H243058   5.099   5.552   1.816  2.2971  1.4926  0.1837
 7215TIP3   OH243059   5.119   6.728   0.770 -0.5374 -0.6589  0.5943
 7215TIP3    H143060   5.189   6.781   0.731 -0.8920 -0.0812  0.7256
 7215TIP3    H243061   5.065   6.703   0.695 -0.3910 -0.8005  0.5358
 7216TIP3   OH243062   2.808   2.412  10.746  0.2760  0.3042  0.5337
 7216TIP3    H143063   2.896   2.417  10.784 -0.1385  0.9847  1.4498
 7216TIP3    H243064   2.820   2.362  10.665  1.4331  0.0438  0.8406
 7217TIP3   OH243065   1.190   3.482  10.881  0.5901  0.4603 -0.5349
 7217TIP3    H143066   1.253   3.549  10.856  1.3001 -0.6834 -1.9106
 7217TIP3    H243067   1.149   3.455  10.799 -0.3128 -0.1959  0.1056
 7218TIP3   OH243068   5.530   6.248   1.148 -0.0132 -0.2425  0.5470
 7218TIP3    H143069   5.521   6.203   1.232 -2.8833  1.3067  1.1878
 7218TIP3    H243070   5.572   6.331   1.171  0.1509 -0.2429  0.2534
 7219TIP3   OH243071   4.547   3.851   5.194  0.0357  0.1444  0.4394
 7219TIP3    H143072   4.505   3.935   5.213 -0.9598  0.0099 -1.0006
 7219TIP3    H243073   4.516   3.793   5.264 -0.3289  0.6382  0.6942
 7220TIP3   OH243074   6.171   3.187  16.083 -0.4052 -0.3537 -0.0898
 7220TIP3    H143075   6.085   3.157  16.113 -0.0271 -2.0310 -0.5434
 7220TIP3    H243076   6.185   3.139  16.002  0.4770  0.7936 -0.6386
 7221TIP3   OH243077   6.071   6.241  17.220 -0.0489 -0.2922 -0.1223
 7221TIP3    H143078   5.990   6.195  17.242  0.8120 -1.1493  1.4695
 7221TIP3    H243079   6.061   6.328  17.258  0.4788 -0.9961  1.7024
 7222TIP3   OH243080   1.645   2.123  14.628  1.0063  0.2502 -0.7094
 7222TIP3    H143081   1.634   2.127  14.533  1.7467 -0.1179 -0.8144
 7222TIP3    H243082   1.569   2.073  14.659 -0.6790  2.6079 -0.8159
 7223TIP3   OH243083   1.185   0.915  16.450 -0.3585  0.0600 -0.4198
 7223TIP3    H143084   1.228   0.989  16.407  2.7626 -1.6762 -0.5340
 7223TIP3    H243085   1.204   0.926  16.543 -2.5530  0.9513 -0.0050
 7224TIP3   OH243086   2.807   1.520  16.701 -0.3691  0.1359  0.6034
 7224TIP3    H143087   2.843   1.436  16.729  2.3638  1.2768  0.8524
 7224TIP3    H243088   2.862   1.586  16.745 -1.8538  2.0544 -0.2437
 7225TIP3   OH243089   2.121   1.804   4.396  0.0010  0.0736  0.2039
 7225TIP3    H143090   2.048   1.751   4.364 -1.1523  1.3882  0.5640
 7225TIP3    H243091   2.135   1.775   4.486  0.1619 -0.4050  0.0293
 7226TIP3   OH243092   5.236   1.561   6.591 -0.6580 -0.4507 -0.2137
 7226TIP3    H143093   5.268   1.534   6.505 -1.6100 -1.1084 -0.3867
 7226TIP3    H243094   5.192   1.644   6.575  1.9620  1.1128  0.2517
 7227TIP3   OH243095   1.308   5.772   5.819  0.3814  0.3162 -0.6787
 7227TIP3    H143096   1.262   5.856   5.825  0.2854  0.1770  2.0493
 7227TIP3    H243097   1.400   5.796   5.805  0.4860  0.9795  0.8951
 7228TIP3   OH243098   5.991   0.442   5.578  0.3644 -0.0845 -0.4842
 7228TIP3    H143099   5.948   0.426   5.662  0.3027 -0.0069 -0.5015
 7228TIP3    H243100   5.941   0.389   5.515  2.3723 -2.8294  0.0367
 7229TIP3   OH243101   2.074   2.551   4.640  0.5057 -0.1911  1.3285
 7229TIP3    H143102   2.040   2.463   4.656 -0.3629  0.0906  1.1328
 7229TIP3    H243103   2.165   2.549   4.670 -0.0976 -0.5776  3.2330
 7230TIP3   OH243104   6.474   6.258  16.321  0.7082 -0.4515  0.5040
 7230TIP3    H143105   6.450   6.349  16.337  3.1991  0.2517  0.6232
 7230TIP3    H243106   6.532   6.260  16.246 -0.4924 -2.1924 -0.5547
 7231TIP3   OH243107   4.976   3.077  17.011  0.0867 -0.0852 -0.6963
 7231TIP3    H143108   5.025   3.036  17.082  0.2312  0.7900 -0.2776
 7231TIP3    H243109   4.997   3.024  16.934 -0.1431 -1.0965 -0.0771
 7232TIP3   OH243110   0.379   5.672  16.689  0.1604 -0.0093  0.0774
 7232TIP3    H143111   0.422   5.729  16.753  0.9594 -3.0029  2.4947
 7232TIP3    H243112   0.298   5.718  16.665  2.1899  3.4824 -0.6884
 7233TIP3   OH243113   0.321   2.366   1.048 -0.2491 -0.3066 -0.0040
 7233TIP3    H143114   0.356   2.340   1.134  0.2246  1.1831  0.2712
 7233TIP3    H243115   0.398   2.379   0.994 -0.4033  1.3769  0.1307
 7234TIP3   OH243116   4.097   2.893   2.022  0.5878  0.0518  0.4290
 7234TIP3    H143117   4.189   2.909   2.000  1.0096 -0.5850  1.6520
 7234TIP3    H243118   4.053   2.975   2.001  1.8256  1.1342  1.8574
 7235TIP3   OH243119   5.404   1.086   1.426  0.1090 -0.0924 -0.3173
 7235TIP3    H143120   5.438   1.160   1.476  1.2997 -1.2092  0.5879
 7235TIP3    H243121   5.343   1.043   1.486  1.1087 -1.1056  0.0110
 7236TIP3   OH243122   5.564   6.685   4.395  0.4296 -0.6169 -0.0727
 7236TIP3    H143123   5.595   6.652   4.311  0.6507  0.6339 -0.5029
 7236TIP3    H243124   5.485   6.634   4.413  1.1856 -1.9149 -0.3048
 7237TIP3   OH243125   4.596   6.592   1.240  0.1075 -0.1551 -0.2804
 7237TIP3    H143126   4.507   6.594   1.205 -0.7764 -0.2266  1.8008
 7237TIP3    H243127   4.620   6.499   1.240 -0.4348 -0.3103  0.5104
 7238TIP3   OH243128   2.376   2.732  14.918  0.1428 -0.0697  0.2597
 7238TIP3    H143129   2.357   2.640  14.935 -1.8375 -0.0229 -1.2548
 7238TIP3    H243130   2.456   2.731  14.865  0.0592 -0.9366  0.1431
 7239TIP3   OH243131   1.720   3.746   3.240  0.6590 -0.7043 -0.4410
 7239TIP3    H143132   1.792   3.696   3.279  3.2856  2.3676 -0.9461
 7239TIP3    H243133   1.641   3.700   3.269  2.7000 -3.3381  1.5337
 7240TIP3   OH243134   3.395   3.255  12.764  0.1958 -0.3429 -0.4787
 7240TIP3    H143135   3.324   3.199  12.796  0.9228  0.1232  2.1354
 7240TIP3    H243136   3.350   3.331  12.727 -0.7831  0.6645  2.4765
 7241TIP3   OH243137   1.520   0.674  16.485 -0.3865 -0.2222 -0.4969
 7241TIP3    H143138   1.600   0.712  16.449  0.6051 -1.3344  0.4620
 7241TIP3    H243139   1.519   0.703  16.576 -1.3029  0.1057 -0.5966
 7242TIP3   OH243140   6.112   4.684  12.314 -0.3201 -0.3486 -0.2502
 7242TIP3    H143141   6.139   4.624  12.245 -0.7720 -1.4201  0.4670
 7242TIP3    H243142   6.163   4.657  12.390 -1.2582 -0.4987  0.3429
 7243TIP3   OH243143   1.095   3.326   4.778 -0.3666  0.2707  0.0398
 7243TIP3    H143144   1.118   3.382   4.852 -0.7609 -0.2437  0.5624
 7243TIP3    H243145   1.015   3.365   4.742  0.4009  1.1298 -0.7822
 7244TIP3   OH243146   6.076   3.502   4.475 -0.3224  0.3550  0.5836
 7244TIP3    H143147   6.011   3.499   4.545 -1.5820  0.3382 -0.5487
 7244TIP3    H243148   6.098   3.410   4.460 -1.1758  0.2386 -0.0339
 7245TIP3   OH243149   5.103   4.856  15.741 -0.1446 -0.2392  0.1910
 7245TIP3    H143150   5.117   4.762  15.742 -2.0572 -0.5542  0.1328
 7245TIP3    H243151   5.069   4.877  15.828 -0.4261  0.2809 -0.0375
 7246TIP3   OH243152   2.219   5.973  13.249 -0.2420 -0.3143 -0.3628
 7246TIP3    H143153   2.303   5.986  13.206 -0.2168 -0.3923 -0.3357
 7246TIP3    H243154   2.155   6.006  13.186 -0.1752 -0.0185 -0.2805
 7247TIP3   OH243155   1.668   4.366  14.718  0.4622 -0.4409 -0.5603
 7247TIP3    H143156   1.757   4.342  14.694  0.5085 -0.3829 -0.4518
 7247TIP3    H243157   1.679   4.424  14.794  0.3808  0.2982 -1.0934
 7248TIP3   OH243158   1.234   2.804  16.676  0.2915 -0.0312  0.0828
 7248TIP3    H143159   1.241   2.825  16.769 -1.1149  1.4137 -0.1060
 7248TIP3    H243160   1.321   2.770  16.653  1.0467  0.7333  1.6396
 7249TIP3   OH243161   5.883   6.451  16.735 -0.5441 -0.4334  0.2951
 7249TIP3    H143162   5.803   6.497  16.758  0.2985  1.1909  0.1118
 7249TIP3    H243163   5.911   6.491  16.653  1.9118  1.0434  1.7368
 7250TIP3   OH243164   1.716   4.212  16.096 -0.1612 -0.6305  0.0716
 7250TIP3    H143165   1.648   4.238  16.035 -0.3427  0.6837  0.8039
 7250TIP3    H243166   1.797   4.216  16.045 -0.2620  0.8277 -0.0227
 7251TIP3   OH243167   3.978   6.518  12.033 -0.1644  0.0784 -0.3526
 7251TIP3    H143168   3.895   6.553  12.067 -0.0217  2.2718 -2.0166
 7251TIP3    H243169   3.954   6.434  11.993 -1.2327 -0.1444  0.6942
 7252TIP3   OH243170   5.934   3.425  14.365  0.5818 -0.6892  0.1008
 7252TIP3    H143171   5.847   3.385  14.374 -0.1189  0.8936  0.7580
 7252TIP3    H243172   5.990   3.353  14.334 -0.9014 -1.8029 -0.1476
 7253TIP3   OH243173   5.919   4.379   6.610  0.2066 -0.6183 -0.1685
 7253TIP3    H143174   5.986   4.403   6.674 -1.2644 -1.2299  1.7277
 7253TIP3    H243175   5.857   4.453   6.613  0.1078 -0.6681 -0.8901
 7254TIP3   OH243176   4.628   2.421   2.781  0.2692  0.0299  0.3664
 7254TIP3    H143177   4.706   2.470   2.757 -1.2698  1.0917 -3.2016
 7254TIP3    H243178   4.648   2.330   2.759  0.7637  0.1634  0.2632
 7255TIP3   OH243179   1.224   4.689   0.551  0.1202 -0.2367  0.2470
 7255TIP3    H143180   1.231   4.648   0.465 -0.5507  1.6354 -0.7720
 7255TIP3    H243181   1.314   4.695   0.583  0.5090  0.0795 -0.8660
 7256TIP3   OH243182   4.833   5.855   3.654 -0.5914 -0.2857 -0.4891
 7256TIP3    H143183   4.866   5.770   3.682 -0.9881 -0.0070  0.8844
 7256TIP3    H243184   4.739   5.841   3.640 -0.6144 -0.1382 -0.4872
 7257TIP3   OH243185   1.310   6.193  13.941  0.1436  0.3261 -0.1675
 7257TIP3    H143186   1.309   6.286  13.922 -0.8607  0.7067  1.5405
 7257TIP3    H243187   1.228   6.160  13.904  1.1116 -0.1916 -1.9723
 7258TIP3   OH243188   3.430   0.432  12.813 -0.4329  0.0133  0.3282
 7258TIP3    H143189   3.358   0.401  12.867 -0.5640  1.6751  1.1797
 7258TIP3    H243190   3.494   0.466  12.876  0.7185 -0.6546 -0.4515
 7259TIP3   OH243191   2.042   2.241  15.559 -0.6068 -0.5985 -0.3587
 7259TIP3    H143192   2.064   2.316  15.614  0.1724 -2.0437  1.4170
 7259TIP3    H243193   1.949   2.227  15.573 -0.4767 -0.7619  0.3692
 7260TIP3   OH243194   5.988   5.320  13.610  0.6883  0.2523 -0.0633
 7260TIP3    H143195   5.912   5.369  13.578  0.1253 -0.6305 -0.1128
 7260TIP3    H243196   6.007   5.359  13.695  0.0938  0.3987  0.0075
 7261TIP3   OH243197   2.190   6.133  12.549  0.2691  0.0435 -0.1779
 7261TIP3    H143198   2.098   6.105  12.548  0.2153  0.2420 -0.8101
 7261TIP3    H243199   2.230   6.079  12.618 -0.8168  1.5627  1.7505
 7262TIP3   OH243200   4.948   0.540  16.407 -0.5393  0.5761 -0.4770
 7262TIP3    H143201   4.861   0.573  16.429 -0.2231 -0.0232  1.9599
 7262TIP3    H243202   5.007   0.584  16.468  0.6493 -0.2330 -0.9984
 7263TIP3   OH243203   5.816   2.347   2.836 -0.0294 -0.0797  0.3200
 7263TIP3    H143204   5.760   2.270   2.850 -0.8709  0.5767  0.6418
 7263TIP3    H243205   5.806   2.399   2.916  0.7918  0.2022  0.2421
 7264TIP3   OH243206   2.076   3.168  11.424  0.6671  0.1449  0.2823
 7264TIP3    H143207   2.111   3.250  11.387 -0.6320  0.3042 -0.6749
 7264TIP3    H243208   1.987   3.191  11.451  0.4900 -0.8192  0.5278
 7265TIP3   OH243209   1.051   2.481  11.103 -0.0202 -0.1972  0.1503
 7265TIP3    H143210   1.048   2.392  11.066  1.2074  0.1123 -0.7607
 7265TIP3    H243211   1.142   2.491  11.132 -0.0920  0.8374  0.0309
 7266TIP3   OH243212   2.964   3.423   1.956 -0.8277  0.5014  0.5453
 7266TIP3    H143213   3.027   3.429   2.028  0.8055  0.9623 -0.8763
 7266TIP3    H243214   2.929   3.512   1.947 -0.3649  0.6503  0.1963
 7267TIP3   OH243215   4.357   2.952   2.398 -0.9719  0.2319  0.2077
 7267TIP3    H143216   4.405   2.972   2.478  0.3421 -1.3391 -0.1377
 7267TIP3    H243217   4.270   2.926   2.428 -0.6121  0.0270  1.1034
 7268TIP3   OH243218   1.772   5.245  11.580  0.1717  0.0482 -0.0573
 7268TIP3    H143219   1.688   5.253  11.535  0.3799  0.4456 -0.3880
 7268TIP3    H243220   1.778   5.325  11.632 -1.0569 -1.3521  2.4328
 7269TIP3   OH243221   2.683   4.204   5.679  0.3066 -0.2177 -0.1619
 7269TIP3    H143222   2.597   4.184   5.644  1.0558 -2.3707 -0.8960
 7269TIP3    H243223   2.711   4.283   5.632  0.1279 -1.4446 -2.4470
 7270TIP3   OH243224   5.275   2.713   4.472  0.3800 -0.1981  0.2055
 7270TIP3    H143225   5.247   2.791   4.424  0.0253 -1.4603 -1.7126
 7270TIP3    H243226   5.287   2.744   4.562 -2.5504  1.4586  0.1395
 7271TIP3   OH243227   1.367   2.317   2.090 -0.4719 -0.2050  0.2835
 7271TIP3    H143228   1.304   2.386   2.111 -1.2594 -1.0798  0.8934
 7271TIP3    H243229   1.398   2.287   2.175 -1.6774 -1.9734  0.1442
 7272TIP3   OH243230   0.333   4.950  14.828 -0.1555 -0.4541 -0.5289
 7272TIP3    H143231   0.402   4.968  14.764  0.5187  1.6490  0.6728
 7272TIP3    H243232   0.370   4.882  14.885  0.3015 -0.4358 -0.8005
 7273TIP3   OH243233   4.802   4.568   0.934  0.2679 -0.2148 -0.5072
 7273TIP3    H143234   4.838   4.543   0.849 -0.7977 -1.0987 -0.7302
 7273TIP3    H243235   4.799   4.485   0.983  0.9423  0.2976  0.4273
 7274TIP3   OH243236   2.871   0.179   4.782  0.0042  0.0767  0.2645
 7274TIP3    H143237   2.826   0.097   4.805 -1.0126 -0.0131 -1.7785
 7274TIP3    H243238   2.851   0.191   4.689 -0.2018  2.8708  0.6048
 7275TIP3   OH243239   4.645   1.064  13.362 -0.2485 -0.1668 -0.4131
 7275TIP3    H143240   4.713   1.121  13.398 -0.7099 -0.2760  0.6853
 7275TIP3    H243241   4.665   0.977  13.397 -0.6863 -0.2905 -0.4642
 7276TIP3   OH243242   2.782   3.895  15.283  0.1175  0.0217 -0.8441
 7276TIP3    H143243   2.816   3.967  15.337 -1.2006  1.5867 -1.9950
 7276TIP3    H243244   2.690   3.887  15.310 -0.0916 -0.3372 -1.6487
 7277TIP3   OH243245   3.186   6.516  15.500  0.4601  0.3365  0.2147
 7277TIP3    H143246   3.192   6.529  15.405  0.8051 -2.0862 -0.1462
 7277TIP3    H243247   3.188   6.422  15.512 -0.8893  0.5304  2.5823
 7278TIP3   OH243248   0.771   1.188  16.044 -0.7309 -0.2461  0.1532
 7278TIP3    H143249   0.761   1.098  16.015  0.1102 -0.2314 -0.1984
 7278TIP3    H243250   0.752   1.241  15.967 -1.0892 -0.1209  0.3237
 7279TIP3   OH243251   1.919   6.153   5.244  0.7428 -0.6841 -0.3245
 7279TIP3    H143252   1.920   6.176   5.337  0.7003 -0.7614 -0.3055
 7279TIP3    H243253   1.834   6.182   5.213  1.4305  1.0064 -0.7468
 7280TIP3   OH243254   4.102   0.114   0.185 -0.3900 -0.2942 -0.6085
 7280TIP3    H143255   4.036   0.172   0.223 -0.4301 -0.4276 -0.4727
 7280TIP3    H243256   4.175   0.172   0.165 -0.2588 -0.2651 -0.0706
 7281TIP3   OH243257   2.188   4.132  11.952  0.3000  0.4720 -0.0186
 7281TIP3    H143258   2.134   4.150  12.029 -0.1230 -0.8715  0.0249
 7281TIP3    H243259   2.272   4.103  11.988  1.0773  2.4651 -0.0867
 7282TIP3   OH243260   2.667   4.010   2.035  0.1395  0.1916  0.3765
 7282TIP3    H143261   2.656   4.006   1.940  0.8621  0.7963  0.2597
 7282TIP3    H243262   2.610   3.940   2.068 -1.0077  0.7154 -0.4136
 7283TIP3   OH243263   4.121   2.285   6.495  0.2044  0.7939  0.0349
 7283TIP3    H143264   4.111   2.260   6.587  0.3804  0.0781 -0.1317
 7283TIP3    H243265   4.042   2.335   6.475  0.1741  0.9696  0.5818
 7284TIP3   OH243266   0.897   4.522   0.483 -0.2119  0.1034 -0.0100
 7284TIP3    H143267   0.887   4.588   0.552 -3.8268 -0.9542  0.6972
 7284TIP3    H243268   0.861   4.442   0.522  1.9707 -1.7819 -1.6069
 7285TIP3   OH243269   4.665   1.315  15.105 -0.1649 -0.2854  0.0095
 7285TIP3    H143270   4.622   1.393  15.139 -0.2713 -0.8164  1.1485
 7285TIP3    H243271   4.702   1.273  15.183 -0.5807 -1.6569 -0.5192
 7286TIP3   OH243272   4.221   4.263   7.036 -0.1175  0.6192  0.2941
 7286TIP3    H143273   4.133   4.300   7.046  0.4217  2.1698 -0.4261
 7286TIP3    H243274   4.248   4.288   6.948  1.2421  0.6125  0.6929
 7287TIP3   OH243275   0.787   2.786   0.645 -0.4457  0.1785 -0.1120
 7287TIP3    H143276   0.735   2.778   0.725 -0.0282 -1.1510  0.0632
 7287TIP3    H243277   0.878   2.776   0.675 -0.2402  0.3975 -0.6552
 7288TIP3   OH243278   6.578   6.027  13.291 -0.1537  0.1760 -0.1353
 7288TIP3    H143279   6.668   6.023  13.261  0.2349 -2.1714  1.1188
 7288TIP3    H243280   6.527   5.986  13.220 -0.2101  1.1798 -0.6861
 7289TIP3   OH243281   0.580   5.006   0.552 -0.4863  0.1382 -0.1762
 7289TIP3    H143282   0.565   4.933   0.613 -0.6835 -0.5620 -1.0394
 7289TIP3    H243283   0.533   4.981   0.473  0.6876  0.4931 -1.0173
 7290TIP3   OH243284   0.900   6.484  11.605  0.0756  0.2217 -0.1615
 7290TIP3    H143285   0.914   6.414  11.669  0.3600  0.6268  0.2290
 7290TIP3    H243286   0.870   6.439  11.526 -1.1140 -0.1998  0.5196
 7291TIP3   OH243287   5.355   3.645   2.844 -0.3193 -0.0824 -0.2827
 7291TIP3    H143288   5.364   3.655   2.939  0.8280  0.1160 -0.4020
 7291TIP3    H243289   5.264   3.666   2.827 -0.8042 -1.0545  0.8916
 7292TIP3   OH243290   3.025   0.853  12.257  0.0971  0.2740  0.4751
 7292TIP3    H143291   3.018   0.928  12.197  1.4857 -0.2058 -0.3457
 7292TIP3    H243292   3.116   0.825  12.248  0.1145 -0.3269  2.2222
 7293TIP3   OH243293   4.310   0.180   1.678  0.1496  0.6030  0.4524
 7293TIP3    H143294   4.234   0.197   1.623  0.0422  0.4977  0.5670
 7293TIP3    H243295   4.385   0.190   1.619 -0.0690 -2.7621 -0.5818
 7294TIP3   OH243296   3.206   0.752   4.751 -0.2016  0.3411 -0.0486
 7294TIP3    H143297   3.192   0.661   4.723  2.1176 -0.2867  0.6309
 7294TIP3    H243298   3.177   0.754   4.842  3.2266 -0.8373  1.2148
 7295TIP3   OH243299   4.113   6.248  14.516 -0.2089  0.0825  0.3271
 7295TIP3    H143300   4.200   6.281  14.492 -0.1896 -0.5727 -0.5704
 7295TIP3    H243301   4.060   6.262  14.437 -0.9677  0.6353  0.9274
 7296TIP3   OH243302   2.979   1.691  16.862  0.2234  0.1497 -0.1198
 7296TIP3    H143303   2.971   1.670  16.955  1.1589 -1.1368 -0.3128
 7296TIP3    H243304   3.067   1.661  16.837 -0.1669  0.0788 -1.5166
 7297TIP3   OH243305   3.293   5.729   0.947 -0.0695  0.1460  0.5129
 7297TIP3    H143306   3.353   5.753   0.877 -0.5861 -3.2937 -1.3370
 7297TIP3    H243307   3.214   5.698   0.902 -1.9189  1.2060  2.7617
 7298TIP3   OH243308   4.799   1.779  15.006 -0.1863  0.2157 -0.5139
 7298TIP3    H143309   4.848   1.832  14.944  0.7513 -1.0961 -0.9582
 7298TIP3    H243310   4.740   1.840  15.050 -0.4205  1.2954 -2.2317
 7299TIP3   OH243311   0.275   4.311   3.746  0.7334 -0.1507 -0.4417
 7299TIP3    H143312   0.252   4.402   3.765 -0.2718 -0.2707 -1.0071
 7299TIP3    H243313   0.369   4.313   3.730  0.8341  0.6786  0.1759
 7300TIP3   OH243314   3.173   5.307   4.615  0.1602 -0.6976 -0.1355
 7300TIP3    H143315   3.220   5.269   4.540  1.0440 -0.4782  0.3029
 7300TIP3    H243316   3.159   5.233   4.674 -2.1448 -1.2778 -1.2681
 7301TIP3   OH243317   4.787   5.410   0.436 -0.1379 -0.2191  0.0482
 7301TIP3    H143318   4.695   5.434   0.431 -0.1971 -0.6489 -2.4897
 7301TIP3    H243319   4.813   5.431   0.525 -2.5175  0.4921  0.6427
 7302TIP3   OH243320   1.648   0.731  13.680 -0.3857 -0.5237  0.4873
 7302TIP3    H143321   1.592   0.657  13.703 -1.2323  0.3784  1.3883
 7302TIP3    H243322   1.610   0.766  13.600 -0.5994 -0.4373  0.6262
 7303TIP3   OH243323   4.185   2.794  12.700  0.5016  0.0887  0.0918
 7303TIP3    H143324   4.223   2.711  12.671  1.4778  0.1779  1.0403
 7303TIP3    H243325   4.249   2.860  12.673  0.0798  0.4607 -0.0088
 7304TIP3   OH243326   6.546   6.320  13.421  0.2600  0.2402  0.0795
 7304TIP3    H143327   6.625   6.360  13.385 -0.2710 -0.0303 -1.4345
 7304TIP3    H243328   6.561   6.318  13.516  1.3405  1.7409 -0.0282
 7305TIP3   OH243329   0.143   6.268  15.065  0.0878  0.0925 -0.0953
 7305TIP3    H143330   0.171   6.186  15.025 -0.6892  0.8705 -2.4293
 7305TIP3    H243331   0.070   6.243  15.122 -0.6115 -0.7903 -1.3232
 7306TIP3   OH243332   1.403   0.271  11.727 -0.1578  0.1539 -0.2341
 7306TIP3    H143333   1.451   0.246  11.806 -0.3032 -0.2918 -0.2852
 7306TIP3    H243334   1.451   0.347  11.694 -0.4614  0.7309  0.6178
 7307TIP3   OH243335   3.100   5.361  16.303  0.7232  0.0838  0.2193
 7307TIP3    H143336   3.091   5.410  16.385  1.0101  1.9037 -0.7692
 7307TIP3    H243337   3.194   5.343  16.296  0.8219  0.6756 -0.0858
 7308TIP3   OH243338   5.386   3.429  16.611 -0.5486 -0.3521  0.3971
 7308TIP3    H143339   5.468   3.405  16.653  0.0068  0.7780  0.0030
 7308TIP3    H243340   5.386   3.525  16.611 -1.0742 -0.3146 -1.0875
 7309TIP3   OH243341   3.330   4.829  14.651 -0.7863  0.2073 -0.3276
 7309TIP3    H143342   3.242   4.797  14.673 -0.4640  1.4029  3.2718
 7309TIP3    H243343   3.389   4.776  14.705  0.3782  1.7628  0.0007
 7310TIP3   OH243344   1.438   2.093   4.944  0.4774 -0.5439  0.1537
 7310TIP3    H143345   1.387   2.051   4.874 -0.3889 -1.4779  1.3082
 7310TIP3    H243346   1.512   2.133   4.898  0.5052 -2.0160 -1.1897
 7311TIP3   OH243347   4.653   4.576   5.724 -0.2175 -0.2172 -0.0078
 7311TIP3    H143348   4.678   4.508   5.786 -1.3396 -0.7104 -0.0798
 7311TIP3    H243349   4.735   4.621   5.704  0.2825 -0.5166  1.2644
 7312TIP3   OH243350   2.177   2.993   1.199 -0.0873  0.4776 -0.1193
 7312TIP3    H143351   2.149   2.952   1.117 -0.9805  0.5757  0.1302
 7312TIP3    H243352   2.115   2.962   1.265  0.4446  0.6306  0.4700
 7313TIP3   OH243353   6.620   5.394   2.473  0.2620  0.2978  0.3101
 7313TIP3    H143354   6.576   5.476   2.451 -2.4073 -1.0002  0.4907
 7313TIP3    H243355   6.690   5.420   2.533  1.3885  2.7238 -1.8615
 7314TIP3   OH243356   0.752   1.885   4.961  0.0312  0.1831  0.3851
 7314TIP3    H143357   0.717   1.965   5.000  0.5217  0.9329 -0.6942
 7314TIP3    H243358   0.844   1.884   4.986  0.6413  1.2746 -1.6671
 7315TIP3   OH243359   2.537   0.155   2.227 -0.2310  0.1952 -0.5491
 7315TIP3    H143360   2.587   0.181   2.305  2.4364 -2.2615 -1.2582
 7315TIP3    H243361   2.502   0.238   2.194  1.9884  1.9151  0.9965
 7316TIP3   OH243362   2.317   1.232  15.166 -0.4424 -0.3876  0.0525
 7316TIP3    H143363   2.239   1.182  15.140 -1.6715  1.0927  0.7686
 7316TIP3    H243364   2.317   1.308  15.108  1.3712 -1.1162 -0.9726
 7317TIP3   OH243365   4.764   6.730  12.054  0.0881 -0.5439 -0.3413
 7317TIP3    H143366   4.825   6.769  12.116 -1.3795  1.4009  0.0037
 7317TIP3    H243367   4.734   6.650  12.096  0.3356 -0.0810  0.7467
 7318TIP3   OH243368   4.622   2.057  14.092 -0.1840 -0.4236  0.0251
 7318TIP3    H143369   4.617   1.984  14.153 -1.9920  0.6567  1.2918
 7318TIP3    H243370   4.687   2.116  14.131  0.4184 -0.8157 -0.3785
 7319TIP3   OH243371   2.900   4.889   1.662  0.4318  0.4453  0.0050
 7319TIP3    H143372   2.814   4.920   1.690  1.3386  0.2961  3.2849
 7319TIP3    H243373   2.934   4.960   1.606 -0.9323  1.4830  0.4493
 7320TIP3   OH243374   4.375   1.000  13.348  0.1448  0.2760 -0.0029
 7320TIP3    H143375   4.328   1.006  13.431 -0.5401  0.6421 -0.4098
 7320TIP3    H243376   4.461   1.037  13.367  0.3331 -0.5127  0.7793
 7321TIP3   OH243377   3.522   1.677   6.041  0.6349 -0.0483 -0.3518
 7321TIP3    H143378   3.574   1.660   5.963  0.0175 -1.2420 -0.5220
 7321TIP3    H243379   3.563   1.625   6.110  0.6208  0.2749 -0.0923
 7322TIP3   OH243380   4.282   4.684  16.911  0.1154 -0.4446 -0.3524
 7322TIP3    H143381   4.260   4.763  16.961 -1.2273 -0.5303 -0.7900
 7322TIP3    H243382   4.223   4.685  16.836  0.2756 -1.7230 -0.5179
 7323TIP3   OH243383   0.614   2.992  10.496 -0.0175 -0.6804  0.8892
 7323TIP3    H143384   0.595   2.973  10.405  1.7829 -0.8677  0.5228
 7323TIP3    H243385   0.630   2.907  10.536 -0.0947 -0.5484  1.2050
 7324TIP3   OH243386   1.977   0.959   0.594 -0.4252  0.1717 -0.0832
 7324TIP3    H143387   1.885   0.977   0.576 -0.7993  0.5516  1.9480
 7324TIP3    H243388   1.994   0.875   0.552 -1.9925 -0.3990  0.3849
 7325TIP3   OH243389   3.717   2.434  12.572 -0.1930 -0.0703 -0.0054
 7325TIP3    H143390   3.704   2.341  12.593 -0.8652  0.3930  1.8320
 7325TIP3    H243391   3.629   2.466  12.552 -0.2714  0.5684  1.2559
 7326TIP3   OH243392   5.990   5.341   0.808  0.3257  0.0350 -0.6031
 7326TIP3    H143393   5.952   5.272   0.863 -1.7301  1.1264 -0.5515
 7326TIP3    H243394   6.028   5.294   0.734 -0.8409 -1.1948 -0.4744
 7327TIP3   OH243395   4.397   2.872  13.866 -0.2336  0.1351  0.0793
 7327TIP3    H143396   4.435   2.831  13.943  0.1074  1.7230  0.8065
 7327TIP3    H243397   4.400   2.805  13.798  2.9879 -0.1552  0.3601
 7328TIP3   OH243398   5.046   6.713   5.536 -0.2869 -0.1704 -0.5115
 7328TIP3    H143399   4.978   6.653   5.505 -1.3068  0.7897 -0.1827
 7328TIP3    H243400   5.106   6.723   5.462 -0.9806 -0.3408 -1.0992
 7329TIP3   OH243401   2.444   2.881   1.295  0.9548  0.2264  0.2425
 7329TIP3    H143402   2.485   2.842   1.372 -1.2051 -0.3031  1.1821
 7329TIP3    H243403   2.432   2.973   1.317  2.7335  0.7037 -0.5600
 7330TIP3   OH243404   2.555   2.501  13.842  0.1899 -0.2350  0.3049
 7330TIP3    H143405   2.520   2.508  13.930  0.3896  0.6824  0.3166
 7330TIP3    H243406   2.563   2.406  13.827  1.4888 -0.4056  1.8046
 7331TIP3   OH243407   4.364   2.428   2.700  0.1662 -0.0990  0.2904
 7331TIP3    H143408   4.409   2.379   2.630  0.1150  0.6729 -0.2939
 7331TIP3    H243409   4.428   2.432   2.771  1.1797  1.2393 -0.6374
 7332TIP3   OH243410   6.539   3.982  10.517 -0.4776  0.1213  1.0769
 7332TIP3    H143411   6.484   3.979  10.595  0.8304  1.0884  2.0843
 7332TIP3    H243412   6.572   4.072  10.514 -0.9022  0.2505 -0.9053
 7333TIP3   OH243413   2.843   4.341   2.558 -0.1950  0.4493 -0.2795
 7333TIP3    H143414   2.856   4.396   2.636 -0.6052 -0.4148  0.4245
 7333TIP3    H243415   2.849   4.401   2.484 -2.8146  1.9050  0.5325
 7334TIP3   OH243416   5.766   0.054  12.424 -0.4386 -0.1109  0.0857
 7334TIP3    H143417   5.726  -0.028  12.452 -0.2450 -0.4796 -0.7072
 7334TIP3    H243418   5.828   0.075  12.494 -1.4831  0.1151  0.9936
 7335TIP3   OH243419   1.786   3.469  12.558  0.2380 -0.1470 -0.0075
 7335TIP3    H143420   1.778   3.388  12.506 -0.7193  0.2905 -0.5712
 7335TIP3    H243421   1.841   3.526  12.504  0.3866 -0.1959  0.0939
 7336TIP3   OH243422   6.022   3.015   5.032 -0.2936 -0.0390 -0.0948
 7336TIP3    H143423   5.954   3.008   5.099  0.0873 -0.6730  0.2342
 7336TIP3    H243424   6.052   2.925   5.018  0.1089  0.1696 -0.6223
 7337TIP3   OH243425   2.820   2.633  17.230 -0.0399 -0.1982  0.0478
 7337TIP3    H143426   2.757   2.565  17.208 -0.4252 -0.5974  2.2131
 7337TIP3    H243427   2.767   2.704  17.268  0.4032  1.1584 -1.7237
 7338TIP3   OH243428   2.158   1.971   4.767 -0.2567  0.1536  0.0287
 7338TIP3    H143429   2.107   1.900   4.806 -0.7432 -0.0410 -0.9268
 7338TIP3    H243430   2.122   1.980   4.679  1.5336 -0.1577 -0.7807
 7339TIP3   OH243431   5.393   2.727  15.828  0.4330  0.5650  0.1127
 7339TIP3    H143432   5.462   2.734  15.894 -0.8043  0.1732  1.4952
 7339TIP3    H243433   5.425   2.659  15.768  1.2563  0.3887  0.7297
 7340TIP3   OH243434   3.800   3.021  16.677  0.0708  0.0339 -0.3885
 7340TIP3    H143435   3.777   3.011  16.769 -1.1801  1.8193 -0.4522
 7340TIP3    H243436   3.728   2.978  16.630  0.2321 -0.0792 -0.5291
 7341TIP3   OH243437   4.302   4.941  12.006 -0.3982  0.1622 -0.1358
 7341TIP3    H143438   4.235   4.885  12.046 -0.7836 -0.3812 -1.4817
 7341TIP3    H243439   4.266   4.965  11.921  0.3951  1.2835 -0.1714
 7342TIP3   OH243440   0.008   4.019   2.340  0.1219  0.2449 -0.3441
 7342TIP3    H143441   0.067   3.993   2.269  2.1027  0.7182  1.0419
 7342TIP3    H243442   0.022   3.953   2.408 -2.3945 -0.6994 -0.6276
 7343TIP3   OH243443   0.152   5.139   5.303 -0.3407  0.1464 -0.0203
 7343TIP3    H143444   0.184   5.096   5.382 -1.1504  1.4902  1.0785
 7343TIP3    H243445   0.081   5.082   5.273 -0.3836 -0.0980  0.5247
 7344TIP3   OH243446   3.233   5.066  16.553 -0.1892  0.6424 -0.4488
 7344TIP3    H143447   3.324   5.068  16.522 -0.8357 -2.0707 -2.9635
 7344TIP3    H243448   3.239   5.031  16.642  1.2727  1.4122 -0.2171
 7345TIP3   OH243449   4.475   5.573   4.971 -0.8566 -0.1665 -0.5346
 7345TIP3    H143450   4.442   5.489   5.001 -0.2024 -0.4077 -0.4861
 7345TIP3    H243451   4.568   5.559   4.956 -0.3889  0.9760  1.0824
 7346TIP3   OH243452   1.438   0.149  12.179 -0.6611  0.0812  0.2130
 7346TIP3    H143453   1.510   0.094  12.148 -0.7175 -0.1150  0.4292
 7346TIP3    H243454   1.479   0.213  12.237 -0.7800 -0.6347  1.1151
 7347TIP3   OH243455   1.485   6.016   4.612 -0.0185  0.0940 -0.1901
 7347TIP3    H143456   1.474   6.048   4.523  0.8071 -0.9087 -0.6702
 7347TIP3    H243457   1.528   6.089   4.658  0.0159  0.4290 -0.7426
 7348TIP3   OH243458   0.287   5.282   0.262  0.5287  0.0029  0.4372
 7348TIP3    H143459   0.380   5.279   0.240  0.1053  0.4066 -1.6776
 7348TIP3    H243460   0.265   5.375   0.264 -0.0427 -0.1057 -0.1995
 7349TIP3   OH243461   5.291   4.183   0.469  0.8191  0.5875 -0.0997
 7349TIP3    H143462   5.319   4.184   0.378  1.5214  0.2354  0.1072
 7349TIP3    H243463   5.360   4.229   0.516  0.8971 -0.0133  0.3766
 7350TIP3   OH243464   1.020   4.615  15.755 -0.5735  0.1418  0.0270
 7350TIP3    H143465   1.026   4.604  15.660 -1.6696  0.4714 -0.0966
 7350TIP3    H243466   0.955   4.684  15.767 -1.0297 -0.4356  1.0351
 7351TIP3   OH243467   0.483   1.409   5.598  0.2750 -0.6875  0.0536
 7351TIP3    H143468   0.546   1.439   5.663 -0.0330  0.7274 -0.2713
 7351TIP3    H243469   0.473   1.315   5.615 -0.8961 -0.1241  3.0056
 7352TIP3   OH243470   0.737   6.541  12.683 -0.2496  0.3306  0.2656
 7352TIP3    H143471   0.708   6.558  12.772 -0.4718 -0.5256  0.3648
 7352TIP3    H243472   0.793   6.615  12.661  0.2456  0.2890  1.3123
 7353TIP3   OH243473   0.242   4.908   1.471 -1.2738  0.5908  0.1685
 7353TIP3    H143474   0.284   4.932   1.553 -0.7229  1.3275 -0.3203
 7353TIP3    H243475   0.310   4.861   1.422 -1.4798  0.4929 -0.0292
 7354TIP3   OH243476   0.393   0.564   0.236  0.5747 -0.2075  0.6781
 7354TIP3    H143477   0.364   0.620   0.164  0.2939  0.1995  1.1022
 7354TIP3    H243478   0.407   0.478   0.196 -0.3946 -0.2018  0.2958
 7355TIP3   OH243479   5.910   4.447  16.909 -0.2117 -0.6426  0.0151
 7355TIP3    H143480   5.874   4.415  16.826  0.7434  1.2289 -1.1886
 7355TIP3    H243481   5.988   4.496  16.884 -0.5405  0.9758  1.9082
 7356TIP3   OH243482   4.573   4.937  14.676 -1.2534  0.1833  0.0369
 7356TIP3    H143483   4.491   4.921  14.630 -1.3023 -1.2213  0.5575
 7356TIP3    H243484   4.547   4.969  14.762 -1.2075  1.1098 -0.2866
 7357TIP3   OH243485   2.974   2.355  16.772  0.4761 -0.3417 -0.1152
 7357TIP3    H143486   3.055   2.377  16.727  0.7198  0.7816  0.8307
 7357TIP3    H243487   2.916   2.429  16.755  0.1836 -0.4303  0.4488
 7358TIP3   OH243488   6.751   6.184  15.443 -0.3134  0.4076  0.1781
 7358TIP3    H143489   6.843   6.165  15.463  0.3806  1.8157 -1.4305
 7358TIP3    H243490   6.714   6.099  15.419  0.1168 -0.4491  2.3203
 7359TIP3   OH243491   4.090   4.402  14.226 -0.2394  0.2280 -0.2484
 7359TIP3    H143492   4.082   4.446  14.142  2.7203  0.7728 -0.3582
 7359TIP3    H243493   4.163   4.447  14.270 -0.8786 -0.8547  2.0776
 7360TIP3   OH243494   2.496   3.637   4.396 -0.3450  0.2639 -0.0527
 7360TIP3    H143495   2.586   3.629   4.364 -1.0323 -0.4668 -1.9069
 7360TIP3    H243496   2.470   3.725   4.370  0.2525  1.0456  1.7738
 7361TIP3   OH243497   2.547   1.935   5.705  0.4796  0.3244 -1.0251
 7361TIP3    H143498   2.493   2.011   5.728 -0.1784 -0.1458 -0.9957
 7361TIP3    H243499   2.572   1.950   5.614  1.9150  1.4949 -0.4755
 7362TIP3   OH243500   0.162   0.079   0.873  0.4115  0.3924  0.5242
 7362TIP3    H143501   0.130   0.148   0.815 -1.2618 -0.8024 -0.0633
 7362TIP3    H243502   0.090   0.062   0.933  0.3419 -1.5471 -0.0300
 7363TIP3   OH243503   6.371   2.782  15.208  0.1891 -0.0936  0.5093
 7363TIP3    H143504   6.397   2.690  15.204 -3.3101 -1.2367  1.0585
 7363TIP3    H243505   6.276   2.781  15.207 -0.0321  3.6416 -0.7442
 7364TIP3   OH243506   4.848   1.532  15.574 -0.0118 -0.6227 -0.4155
 7364TIP3    H143507   4.891   1.489  15.500  2.4486  0.0419  0.5247
 7364TIP3    H243508   4.888   1.619  15.579 -1.6782  0.1640  0.4227
 7365TIP3   OH243509   4.746   5.816  10.807  0.2628  0.1308 -0.3161
 7365TIP3    H143510   4.787   5.736  10.839 -1.3800 -0.0753  1.4296
 7365TIP3    H243511   4.727   5.799  10.715  0.9168 -1.0503 -0.2470
 7366TIP3   OH243512   6.131   0.247   4.717 -0.2340 -0.9783 -0.3587
 7366TIP3    H143513   6.169   0.169   4.759  1.0307 -0.8513 -1.2096
 7366TIP3    H243514   6.058   0.272   4.774 -0.0088 -2.1684  0.4895
 7367TIP3   OH243515   4.959   5.335  13.212  0.3267 -0.5000  0.0903
 7367TIP3    H143516   4.995   5.262  13.263  1.6138  0.3531  0.4418
 7367TIP3    H243517   4.941   5.403  13.277 -3.2256 -1.2775  0.1466
 7368TIP3   OH243518   3.622   4.136  14.561 -0.2351 -0.4841 -0.1826
 7368TIP3    H143519   3.621   4.164  14.469  0.9965  1.2986  0.2975
 7368TIP3    H243520   3.531   4.114  14.580 -0.4501 -1.3599 -1.9410
 7369TIP3   OH243521   6.372   3.552  16.208  0.1092 -0.5901 -0.7533
 7369TIP3    H143522   6.423   3.471  16.208 -0.2645 -0.9883  3.1168
 7369TIP3    H243523   6.290   3.529  16.252 -0.1024  1.8352  0.2653
 7370TIP3   OH243524   5.112   4.171   4.671  0.1295  0.8566  0.2569
 7370TIP3    H143525   5.171   4.195   4.599 -2.4651  1.3484 -1.8843
 7370TIP3    H243526   5.025   4.192   4.637 -1.3047  0.1060  3.2160
 7371TIP3   OH243527   4.201   2.481   5.842 -0.0755  0.2291 -0.1051
 7371TIP3    H143528   4.210   2.576   5.832  1.3268  0.0435 -0.8835
 7371TIP3    H243529   4.207   2.466   5.937  2.8649  0.6900 -0.1415
 7372TIP3   OH243530   1.788   3.322   3.263  0.2401  0.3973  0.3959
 7372TIP3    H143531   1.760   3.408   3.296  0.7872  0.6627  0.1840
 7372TIP3    H243532   1.866   3.341   3.212  0.5433 -0.2730  0.6070
 7373TIP3   OH243533   4.744   3.163   5.081 -1.1878  0.8403 -0.7006
 7373TIP3    H143534   4.713   3.196   4.997 -1.5731  0.0728 -0.8668
 7373TIP3    H243535   4.715   3.072   5.084  0.8311  0.1354 -0.7727
 7374TIP3   OH243536   1.681   2.542   2.857 -0.3696  0.4533 -0.6125
 7374TIP3    H143537   1.671   2.621   2.910 -2.1410 -0.6466  0.8192
 7374TIP3    H243538   1.769   2.510   2.876 -1.2009 -0.3615  2.4840
 7375TIP3   OH243539   5.685   4.862  10.417 -0.1773 -0.0450 -0.1803
 7375TIP3    H143540   5.658   4.918  10.490 -1.6797 -0.4046 -0.4252
 7375TIP3    H243541   5.650   4.776  10.438 -0.3019 -0.2408 -1.1400
 7376TIP3   OH243542   4.253   1.905   5.148 -0.7479  0.1058 -0.7295
 7376TIP3    H143543   4.268   1.926   5.240 -0.4837 -0.6323 -0.6030
 7376TIP3    H243544   4.340   1.881   5.114 -0.9216 -0.0706 -1.0554
 7377TIP3   OH243545   0.321   6.465  15.831 -0.5724  0.1010 -0.5056
 7377TIP3    H143546   0.293   6.550  15.796 -0.7910  0.1054 -0.3192
 7377TIP3    H243547   0.269   6.453  15.910 -1.5329 -0.8189 -1.2365
 7378TIP3   OH243548   6.776   3.789   0.705 -0.0334  0.1014 -0.1045
 7378TIP3    H143549   6.713   3.760   0.771  0.4849 -0.5788  0.1008
 7378TIP3    H243550   6.860   3.758   0.737  0.1592 -0.7239 -1.3630
 7379TIP3   OH243551   5.889   2.555   1.194 -0.0829 -0.0433 -0.0654
 7379TIP3    H143552   5.922   2.474   1.232  0.0077  0.0386  0.0306
 7379TIP3    H243553   5.874   2.613   1.269  0.6463  0.3226 -0.1920
 7380TIP3   OH243554   0.370   6.505   3.983 -0.3631  0.3438  0.2941
 7380TIP3    H143555   0.351   6.437   3.919 -1.0736  0.7868  0.0147
 7380TIP3    H243556   0.301   6.495   4.049  0.2977 -0.0384  0.9317
 7381TIP3   OH243557   3.753   3.730   4.932  0.3198 -0.1490  0.2954
 7381TIP3    H143558   3.672   3.692   4.897  0.0737  0.7070 -0.0886
 7381TIP3    H243559   3.823   3.681   4.889  0.0137  0.4458 -0.9326
 7382TIP3   OH243560   6.716   4.980  14.692 -0.6749  0.2072 -0.0703
 7382TIP3    H143561   6.625   4.999  14.713 -0.8574  0.8254 -1.3018
 7382TIP3    H243562   6.724   4.885  14.699 -1.0748  0.2487  1.2504
 7383TIP3   OH243563   0.648   1.838  11.937 -0.0338  0.1082  0.3000
 7383TIP3    H143564   0.632   1.835  11.842  0.4011  2.4659  0.0982
 7383TIP3    H243565   0.663   1.746  11.961 -3.7282 -1.1121 -1.2059
 7384TIP3   OH243566   2.457   3.970  16.899  0.1787 -0.1641 -0.0457
 7384TIP3    H143567   2.510   4.031  16.848 -0.7234 -0.9723 -2.0301
 7384TIP3    H243568   2.520   3.922  16.953  1.0785  1.1813  0.1361
 7385TIP3   OH243569   0.423   1.758   1.990  0.0386 -0.0615 -0.1232
 7385TIP3    H143570   0.352   1.761   2.055  0.8240  1.0661  0.7129
 7385TIP3    H243571   0.382   1.787   1.908 -0.7186 -0.4825  0.0972
 7386TIP3   OH243572   0.039   3.859  10.543 -0.5384 -0.9358  0.5933
 7386TIP3    H143573  -0.049   3.839  10.512 -0.9819 -0.4579  1.4929
 7386TIP3    H243574   0.054   3.797  10.615 -1.1806  0.5971  2.1388
 7387TIP3   OH243575   6.719   2.134   0.297 -0.4046 -0.0711 -0.2210
 7387TIP3    H143576   6.687   2.194   0.229  0.0299  0.6685  0.2164
 7387TIP3    H243577   6.708   2.047   0.259  0.9076  0.3774 -1.7246
 7388TIP3   OH243578   3.234   1.194  15.777  0.0045  0.0320 -0.1887
 7388TIP3    H143579   3.190   1.218  15.858 -0.0686 -2.4759  0.5843
 7388TIP3    H243580   3.318   1.239  15.781  0.8787 -1.6298  2.3534
 7389TIP3   OH243581   5.373   1.967  14.868 -0.1168 -0.5887 -0.2010
 7389TIP3    H143582   5.353   1.909  14.941  1.0531 -1.8871 -0.8702
 7389TIP3    H243583   5.290   2.010  14.849 -0.8293 -1.4386  0.8399
 7390TIP3   OH243584   1.206   0.525  13.529 -0.1486  0.3490  0.0362
 7390TIP3    H143585   1.207   0.441  13.575  0.8050  1.4511  2.2058
 7390TIP3    H243586   1.262   0.512  13.453 -0.1744 -1.0240  0.2277
 7391TIP3   OH243587   4.753   0.783   0.633  0.6597  0.2340  0.3766
 7391TIP3    H143588   4.744   0.769   0.539 -1.2339 -0.6509  0.6457
 7391TIP3    H243589   4.793   0.703   0.667 -0.5274 -0.2922  0.5675
 7392TIP3   OH243590   5.742   3.087  14.103 -0.1116 -0.7353  0.9101
 7392TIP3    H143591   5.703   3.007  14.068 -0.5265  0.0491 -0.4761
 7392TIP3    H243592   5.756   3.067  14.196 -2.3799 -1.6102  1.1279
 7393TIP3   OH243593   2.604   4.344   3.778  0.6568  0.9696 -0.6455
 7393TIP3    H143594   2.647   4.406   3.836  2.3870  0.4215 -1.2648
 7393TIP3    H243595   2.522   4.386   3.753  0.6250  1.8840  0.9125
 7394TIP3   OH243596   2.669   3.665  13.150  0.2338  0.3411 -0.7807
 7394TIP3    H143597   2.594   3.694  13.203  0.4378 -2.9441  1.6098
 7394TIP3    H243598   2.745   3.702  13.194  0.2068  0.7479 -1.0746
 7395TIP3   OH243599   6.073   0.056   5.960 -0.5390 -0.0137 -0.7211
 7395TIP3    H143600   6.112  -0.023   5.997  0.4552  0.7818 -0.0264
 7395TIP3    H243601   6.104   0.127   6.016  0.5191  1.1602 -2.7082
 7396TIP3   OH243602   2.311   6.446   3.523  0.2675 -0.1314  0.2979
 7396TIP3    H143603   2.265   6.363   3.507  0.7681 -0.4458  0.4552
 7396TIP3    H243604   2.244   6.504   3.559  0.2669 -1.0038  1.8057
 7397TIP3   OH243605   5.097   2.640   3.702 -0.7193 -0.2139  0.3276
 7397TIP3    H143606   5.052   2.586   3.767  0.8918 -1.1817  0.7282
 7397TIP3    H243607   5.089   2.591   3.620 -0.1338 -0.5753  0.4759
 7398TIP3   OH243608   1.641   1.332  17.075  0.1299  0.5148 -0.1952
 7398TIP3    H143609   1.652   1.407  17.018  3.1528 -1.2736 -2.2581
 7398TIP3    H243610   1.681   1.359  17.158  1.7236  1.0391 -1.0959
 7399TIP3   OH243611   0.845   6.761   4.224 -0.3955 -0.3355 -0.1032
 7399TIP3    H143612   0.778   6.693   4.213  0.3156 -1.0224 -0.2386
 7399TIP3    H243613   0.924   6.723   4.187  0.0369  0.5389 -0.0959
 7400TIP3   OH243614   2.038   5.002  13.828 -0.4951  0.0477 -0.1263
 7400TIP3    H143615   2.130   5.028  13.835 -0.8341  1.0376  0.8036
 7400TIP3    H243616   2.000   5.065  13.767 -0.7474  0.1907  0.1742
 7401TIP3   OH243617   4.270   5.293   4.669  0.1129 -0.5046 -0.6028
 7401TIP3    H143618   4.332   5.366   4.677 -0.2516 -0.0023 -1.9615
 7401TIP3    H243619   4.242   5.296   4.577 -0.2756 -2.0714 -0.5580
 7402TIP3   OH243620   3.871   2.464   1.754  0.3489  0.0871  0.3461
 7402TIP3    H143621   3.896   2.545   1.709  2.6313 -0.1417  1.0637
 7402TIP3    H243622   3.847   2.404   1.684  1.4284  0.5121 -0.4097
 7403TIP3   OH243623   2.117   2.379   3.330  0.7731 -0.1197 -0.1172
 7403TIP3    H143624   2.152   2.305   3.380  1.0406 -0.0329 -0.1741
 7403TIP3    H243625   2.084   2.340   3.250  0.5075 -0.2362  0.0474
 7404TIP3   OH243626   4.893   6.345  13.435 -0.2255  0.4831 -0.3051
 7404TIP3    H143627   4.861   6.404  13.367  0.4868  1.1671 -0.0559
 7404TIP3    H243628   4.890   6.396  13.516 -0.7538 -0.2201  0.1386
 7405TIP3   OH243629   0.658   1.346  14.971  0.3866  0.3115 -0.4360
 7405TIP3    H143630   0.633   1.355  14.879  0.1679  0.3202 -0.3753
 7405TIP3    H243631   0.659   1.251  14.986  0.0762  0.3189 -0.3535
 7406TIP3   OH243632   1.659   0.704  14.653  0.3187  0.1263 -0.1556
 7406TIP3    H143633   1.703   0.684  14.736  1.1319 -0.4196 -0.7050
 7406TIP3    H243634   1.583   0.757  14.679  0.2667 -0.4593  0.9870
 7407TIP3   OH243635   6.236   6.210  16.554 -0.0797 -0.4229  0.0262
 7407TIP3    H143636   6.315   6.257  16.580 -1.2014  0.5984  1.7970
 7407TIP3    H243637   6.236   6.214  16.459  1.0623  1.1732  0.0456
 7408TIP3   OH243638   0.491   3.447   4.215 -0.1209 -0.2518  0.6485
 7408TIP3    H143639   0.561   3.407   4.164 -0.2452 -0.2952  0.5101
 7408TIP3    H243640   0.426   3.377   4.226 -0.7775  0.1683 -0.4067
 7409TIP3   OH243641   2.120   0.711   2.985  0.1680  0.2799  0.1728
 7409TIP3    H143642   2.071   0.654   3.044 -0.7991  0.1507 -0.7147
 7409TIP3    H243643   2.080   0.798   2.998 -1.4847 -0.1150 -1.7088
 7410TIP3   OH243644   3.916   1.186  13.519 -0.1287  0.2420  0.0509
 7410TIP3    H143645   3.914   1.269  13.567  0.7021 -0.4839  1.3812
 7410TIP3    H243646   3.873   1.123  13.577 -1.1833 -0.1875 -1.1436
 7411TIP3   OH243647   2.518   1.375   6.454  0.6758 -0.0032  0.5548
 7411TIP3    H143648   2.431   1.351   6.484  0.2781  0.8598  0.1100
 7411TIP3    H243649   2.525   1.469   6.471  0.5400  0.4820 -1.6863
 7412TIP3   OH243650   6.073   3.855  12.877  0.1102 -0.8533 -0.3079
 7412TIP3    H143651   6.059   3.938  12.922 -0.4975 -0.7661 -0.6477
 7412TIP3    H243652   6.156   3.866  12.831 -0.1858 -0.2763 -0.7065
 7413TIP3   OH243653   2.531   3.914  12.279 -0.8010  0.4328  0.1241
 7413TIP3    H143654   2.593   3.972  12.235  0.6294 -2.4672 -1.9642
 7413TIP3    H243655   2.446   3.936  12.240  0.0350 -0.1736 -2.1498
 7414TIP3   OH243656   4.636   6.168  13.176 -0.3981  0.0165 -0.1417
 7414TIP3    H143657   4.690   6.141  13.251 -2.5374  0.6564  1.7474
 7414TIP3    H243658   4.636   6.093  13.118  1.4184 -0.4758  0.4128
 7415TIP3   OH243659   3.350   3.448  15.023 -0.1298  0.0062 -0.0134
 7415TIP3    H143660   3.290   3.482  15.089 -1.4557  2.9141 -2.4933
 7415TIP3    H243661   3.299   3.382  14.975 -0.8875  1.3210 -1.0864
 7416TIP3   OH243662   1.364   1.558  14.997  0.2954  0.2618 -0.0326
 7416TIP3    H143663   1.378   1.620  15.069 -0.5286  1.0189 -0.5004
 7416TIP3    H243664   1.296   1.499  15.029  0.5846  0.0216  0.1482
 7417TIP3   OH243665   4.640   4.379  16.043 -0.3680 -0.0979 -0.2224
 7417TIP3    H143666   4.724   4.425  16.035  1.1006 -2.8460 -2.7247
 7417TIP3    H243667   4.642   4.339  16.130  0.2140  1.0855  0.3231
 7418TIP3   OH243668   6.703   6.046   2.906 -0.8774  0.3041 -0.1200
 7418TIP3    H143669   6.770   6.008   2.963 -3.4595 -1.5749  1.9033
 7418TIP3    H243670   6.745   6.051   2.820  1.7458 -0.9868  0.9669
 7419TIP3   OH243671   0.269   4.043  14.359 -0.4370  0.0616 -0.1484
 7419TIP3    H143672   0.186   4.090  14.370 -1.0433 -1.2181  1.0204
 7419TIP3    H243673   0.243   3.951  14.348  0.8225 -1.0639  4.1535
 7420TIP3   OH243674   2.469   2.287   5.407  0.2831  0.1981  0.2372
 7420TIP3    H143675   2.395   2.343   5.383  0.1123  0.2178  0.7951
 7420TIP3    H243676   2.531   2.346   5.451  1.5965  0.6341 -2.0306
 7421TIP3   OH243677   5.937   6.787  14.887 -0.0018  0.2070 -0.2746
 7421TIP3    H143678   5.895   6.739  14.959 -0.0301 -0.9711 -1.0455
 7421TIP3    H243679   5.869   6.793  14.819 -0.0851  1.6099 -0.1046
 7422TIP3   OH243680   1.621   2.220   2.961  0.1995 -0.6641 -0.1290
 7422TIP3    H143681   1.595   2.284   2.895 -1.0450 -1.6476 -0.6249
 7422TIP3    H243682   1.637   2.272   3.040 -0.2751  0.3042 -0.6578
 7423TIP3   OH243683   5.740   4.803  11.064  0.1358  0.4216  0.1657
 7423TIP3    H143684   5.817   4.750  11.083  0.2119  0.6856  0.6090
 7423TIP3    H243685   5.666   4.748  11.090  0.1714  0.1657 -0.2666
 7424TIP3   OH243686   2.196   0.201  12.549 -0.0675  0.3228 -0.5045
 7424TIP3    H143687   2.259   0.263  12.585  0.7781 -0.6718 -0.2175
 7424TIP3    H243688   2.147   0.252  12.484 -1.8374  2.2459  2.1686
 7425TIP3   OH243689   6.193   5.362   3.344  0.3221  0.1816 -0.1654
 7425TIP3    H143690   6.283   5.332   3.354  0.3550 -0.4687 -2.0779
 7425TIP3    H243691   6.149   5.333   3.425  1.4277 -0.9534  0.0575
 7426TIP3   OH243692   2.057   1.335   1.124  0.8616  0.0381 -0.1008
 7426TIP3    H143693   2.026   1.259   1.075 -1.3604  1.3339 -0.8531
 7426TIP3    H243694   2.103   1.298   1.199 -0.2283 -2.0440 -0.3931
 7427TIP3   OH243695   3.800   2.828  14.980  0.2321 -0.1303 -0.7708
 7427TIP3    H143696   3.819   2.860  14.892  0.6606  0.1623 -0.5747
 7427TIP3    H243697   3.705   2.836  14.988 -0.1430 -2.4337 -2.0805
 7428TIP3   OH243698   6.066   4.937   4.252  0.5381 -0.0077 -0.0647
 7428TIP3    H143699   6.044   4.985   4.331 -0.2276  1.0850 -0.9228
 7428TIP3    H243700   6.161   4.947   4.243  0.7205 -0.6188  0.9939
 7429TIP3   OH243701   6.780   4.703  15.648 -0.0335 -0.3947  0.2594
 7429TIP3    H143702   6.822   4.627  15.608  0.3022  0.2888 -0.7278
 7429TIP3    H243703   6.707   4.667  15.697 -0.4692 -1.2835 -0.9922
 7430TIP3   OH243704   1.564   0.850   2.744  0.3068  0.2883  0.8263
 7430TIP3    H143705   1.482   0.885   2.777  1.1506  2.7611  0.4777
 7430TIP3    H243706   1.630   0.878   2.808  1.0591 -0.7276  0.5348
 7431TIP3   OH243707   2.973   0.448  10.518  0.1459 -0.3354  0.1428
 7431TIP3    H143708   2.961   0.362  10.559  2.3294 -1.4941 -1.4318
 7431TIP3    H243709   2.970   0.430  10.424 -1.4004  1.6920 -0.2608
 7432TIP3   OH243710   2.222   2.241   0.280  0.1994  0.3106 -0.5776
 7432TIP3    H143711   2.303   2.198   0.307 -1.4632 -2.0473  1.0436
 7432TIP3    H243712   2.152   2.185   0.314 -2.1735  3.1310 -0.3673
 7433TIP3   OH243713   6.053   5.222  11.339 -0.6385  0.1495  0.0872
 7433TIP3    H143714   5.964   5.203  11.370 -0.1536 -0.2294  1.2684
 7433TIP3    H243715   6.088   5.284  11.402 -0.2686  0.7813 -0.7208
 7434TIP3   OH243716   0.527   3.809  15.955 -0.1201  0.4478 -0.6753
 7434TIP3    H143717   0.540   3.873  15.885 -0.5552  1.6066  0.2825
 7434TIP3    H243718   0.507   3.861  16.032  3.7366 -0.5321  1.2360
 7435TIP3   OH243719   4.816   1.361  12.173 -0.0455 -0.0376  0.7916
 7435TIP3    H143720   4.853   1.436  12.125 -0.5288  2.1804  3.6372
 7435TIP3    H243721   4.892   1.305  12.190  0.5059  0.2580 -0.5241
 7436TIP3   OH243722   0.208   0.322  11.651  0.0020 -0.0130 -0.3946
 7436TIP3    H143723   0.189   0.277  11.568 -0.9511 -2.8291  1.2296
 7436TIP3    H243724   0.293   0.363  11.636 -0.4101  0.0981 -2.9476
 7437TIP3   OH243725   2.471   5.467  12.389  0.2436 -0.5112  0.1438
 7437TIP3    H143726   2.566   5.465  12.396  0.1030 -1.7117  3.1439
 7437TIP3    H243727   2.440   5.458  12.479 -2.7307  0.8029 -0.6291
 7438TIP3   OH243728   5.586   2.087   4.484  0.0764 -0.1610 -0.4525
 7438TIP3    H143729   5.580   2.128   4.570  0.2195 -2.5729  0.7875
 7438TIP3    H243730   5.675   2.052   4.480 -0.5083 -1.6935 -0.7639
 7439TIP3   OH243731   0.949   4.786  13.501 -0.4137 -0.0272 -0.1372
 7439TIP3    H143732   0.901   4.739  13.570 -0.4475 -1.1081 -0.8660
 7439TIP3    H243733   0.891   4.858  13.477 -1.2995 -0.8005 -0.3935
 7440TIP3   OH243734   0.075   3.429   5.356  0.0009  0.3743 -0.4603
 7440TIP3    H143735   0.052   3.378   5.278 -1.1975  1.0322 -0.5519
 7440TIP3    H243736  -0.009   3.455   5.394  0.5765  0.8172  0.5648
 7441TIP3   OH243737   4.819   3.594  11.667  1.0302  0.0231 -0.6723
 7441TIP3    H143738   4.910   3.624  11.669  0.8636  0.5104 -0.1147
 7441TIP3    H243739   4.768   3.674  11.649  0.4872  0.3516  1.9659
 7442TIP3   OH243740   3.009   1.439  11.806 -0.2982 -0.1801 -0.3047
 7442TIP3    H143741   2.979   1.436  11.897 -1.9540 -0.7519 -0.8263
 7442TIP3    H243742   3.028   1.347  11.784 -0.4069 -0.1134 -0.6854
 7443TIP3   OH243743   0.307   3.655   0.039  0.4667  0.5155  0.1860
 7443TIP3    H143744   0.322   3.666  -0.055  2.1044  1.5209  0.5296
 7443TIP3    H243745   0.215   3.677   0.051  0.6654  2.1347 -0.9420
 7444TIP3   OH243746   5.026   3.626   5.546 -0.2178 -0.0075  0.4562
 7444TIP3    H143747   5.107   3.611   5.496 -0.6872 -0.3397 -0.2316
 7444TIP3    H243748   4.976   3.545   5.535 -0.3637 -0.0529  1.4243
 7445TIP3   OH243749   4.513   6.309   2.258 -0.2156 -0.0359  0.7048
 7445TIP3    H143750   4.423   6.297   2.229 -0.9130 -0.6569  2.9272
 7445TIP3    H243751   4.524   6.404   2.265 -0.0568  0.1324 -1.2980
 7446TIP3   OH243752   4.037   0.987   5.857  0.8141  0.2132  0.3325
 7446TIP3    H143753   4.083   1.070   5.844  0.2439  0.2594 -1.8296
 7446TIP3    H243754   3.956   1.011   5.902  0.8529  0.7840  0.1040
 7447TIP3   OH243755   0.039   4.106  14.908 -0.2902 -0.0870 -0.5550
 7447TIP3    H143756   0.070   4.048  14.978 -0.9374  1.0058  0.6651
 7447TIP3    H243757  -0.012   4.049  14.851 -1.4703 -0.6280  0.9760
 7448TIP3   OH243758   1.934   2.315   4.707 -0.8285 -0.1261 -0.0243
 7448TIP3    H143759   1.980   2.260   4.644  0.0139 -1.0743  1.3448
 7448TIP3    H243760   1.860   2.351   4.659 -2.0533 -3.2885 -0.7719
 7449TIP3   OH243761   2.439   2.448  14.120  0.1098  0.2505  0.1448
 7449TIP3    H143762   2.456   2.495  14.202 -1.5154  0.5665  0.3269
 7449TIP3    H243763   2.489   2.367  14.129 -2.3837 -1.1778  2.8553
 7450TIP3   OH243764   1.522   6.316   4.393  0.0742 -0.0746  0.2451
 7450TIP3    H143765   1.556   6.242   4.343 -0.2772 -1.3928  1.8654
 7450TIP3    H243766   1.598   6.373   4.404  0.7958 -1.0382  0.4382
 7451TIP3   OH243767   3.528   0.483   5.823 -0.0589 -0.0433 -1.4771
 7451TIP3    H143768   3.589   0.411   5.808  1.2270  0.2536  1.5351
 7451TIP3    H243769   3.538   0.540   5.747  0.8351 -1.7357 -2.6851
 7452TIP3   OH243770   1.489   2.390  14.748  0.1275  0.0137  0.3207
 7452TIP3    H143771   1.524   2.319  14.694  0.4666  0.6271 -0.2887
 7452TIP3    H243772   1.565   2.429  14.790 -0.0882 -0.1629  0.8765
 7453TIP3   OH243773   4.497   1.917   4.219 -0.6662 -0.1461  0.3476
 7453TIP3    H143774   4.415   1.966   4.228 -1.2564 -1.3285  2.2559
 7453TIP3    H243775   4.550   1.969   4.160 -3.2550  0.0585 -2.0104
 7454TIP3   OH243776   6.261   3.162   3.919 -0.1949  0.0721  0.1399
 7454TIP3    H143777   6.246   3.243   3.969 -0.6138  0.3832 -0.4898
 7454TIP3    H243778   6.176   3.141   3.881  0.0084 -0.4521 -0.0227
 7455TIP3   OH243779   1.646   6.251   5.351 -0.4974  0.4845 -0.7621
 7455TIP3    H143780   1.710   6.318   5.374 -0.5693  0.3934 -0.2847
 7455TIP3    H243781   1.670   6.175   5.405  0.3963 -0.3289 -2.2419
 7456TIP3   OH243782   2.263   0.526  15.245  0.5164  0.8535  0.5704
 7456TIP3    H143783   2.228   0.537  15.333 -2.0110  0.9233 -0.3526
 7456TIP3    H243784   2.321   0.601  15.232  0.6072  1.0576  1.9922
 7457TIP3   OH243785   3.530   4.845  12.024 -0.1524 -0.5207 -0.2890
 7457TIP3    H143786   3.510   4.772  12.083  0.2268 -0.0388  0.4489
 7457TIP3    H243787   3.444   4.878  11.997 -0.4640  1.0718  2.2902
 7458TIP3   OH243788   5.240   3.468   6.527  0.0981 -0.4378 -0.0825
 7458TIP3    H143789   5.181   3.393   6.533  0.7548 -0.9625 -0.0678
 7458TIP3    H243790   5.311   3.447   6.587  0.1195  0.3590  0.1848
 7459TIP3   OH243791   4.626   1.910   1.379  0.2030 -0.1894 -0.1917
 7459TIP3    H143792   4.699   1.959   1.417 -0.6081  0.0389  1.1417
 7459TIP3    H243793   4.613   1.837   1.440 -0.5842 -0.3119 -0.5014
 7460TIP3   OH243794   0.341   1.940  13.738 -0.2163 -0.3791 -0.6538
 7460TIP3    H143795   0.354   1.884  13.815 -0.1256  0.5058 -0.0062
 7460TIP3    H243796   0.288   2.013  13.770  0.2138  0.2443 -1.3169
 7461TIP3   OH243797   1.083   2.106   5.456 -0.0051 -0.9984 -0.3547
 7461TIP3    H143798   1.003   2.056   5.468 -0.7437 -0.0075 -0.9623
 7461TIP3    H243799   1.062   2.194   5.489  1.1014 -0.9309  0.2585
 7462TIP3   OH243800   2.124   3.760   3.324 -0.3038  0.0640  0.2937
 7462TIP3    H143801   2.145   3.705   3.399  1.6194  1.4892  0.9070
 7462TIP3    H243802   2.109   3.847   3.362 -1.7397  0.3110 -0.7697
 7463TIP3   OH243803   2.964   0.557   2.286  0.0383 -0.8596  0.5941
 7463TIP3    H143804   2.975   0.570   2.380 -0.8093  3.0945  0.3264
 7463TIP3    H243805   3.037   0.605   2.246 -0.4735 -1.1541 -0.7598
 7464TIP3   OH243806   5.534   0.420   1.149 -0.3178  0.1180  0.1301
 7464TIP3    H143807   5.584   0.433   1.230  2.5542 -0.2250 -1.4444
 7464TIP3    H243808   5.538   0.325   1.134  0.0029  0.2702 -0.8469
 7465TIP3   OH243809   0.259   1.419  17.144 -0.0875  0.1112 -0.2574
 7465TIP3    H143810   0.166   1.429  17.123 -0.7539  0.2943  2.3596
 7465TIP3    H243811   0.285   1.506  17.175 -0.2027 -0.8102  2.7735
 7466TIP3   OH243812   4.622   4.037  12.186  0.1368 -0.4800  0.1465
 7466TIP3    H143813   4.707   3.992  12.189 -0.2046 -1.1154  0.5107
 7466TIP3    H243814   4.616   4.070  12.096  0.3731 -1.2169 -0.1499
 7467TIP3   OH243815   0.614   0.350   6.872 -0.2701 -0.2178 -0.0297
 7467TIP3    H143816   0.636   0.377   6.961 -0.2788 -0.6990  0.1199
 7467TIP3    H243817   0.697   0.325   6.832 -0.4809 -1.7125  0.4274
 7468TIP3   OH243818   1.082   0.554  16.916  0.4790  1.0031 -0.3783
 7468TIP3    H143819   1.108   0.464  16.936  1.2333  1.2572 -0.1816
 7468TIP3    H243820   1.148   0.585  16.855 -0.6246  0.9430 -1.6442
 7469TIP3   OH243821   5.504   4.169  15.348  0.1873 -0.2075  0.2605
 7469TIP3    H143822   5.569   4.129  15.406  0.0161 -1.2054 -0.2194
 7469TIP3    H243823   5.420   4.138  15.380 -0.0245  0.6505  0.5489
 7470TIP3   OH243824   0.834   5.982  15.558 -0.7231  0.6117 -0.0108
 7470TIP3    H143825   0.777   5.977  15.481 -0.8603  2.4473 -0.0706
 7470TIP3    H243826   0.845   6.076  15.574  1.0307  0.2944  0.9381
 7471TIP3   OH243827   1.805   0.329   0.719  0.1244 -0.0253 -0.3164
 7471TIP3    H143828   1.796   0.349   0.626 -0.2448 -0.4267 -0.3694
 7471TIP3    H243829   1.825   0.236   0.722  0.3906  0.0410 -0.0043
 7472TIP3   OH243830   0.497   5.569   1.041  0.5889  0.3123 -0.2273
 7472TIP3    H143831   0.409   5.565   1.077  0.6451  1.0820  0.0217
 7472TIP3    H243832   0.529   5.656   1.066  2.4996 -0.9828  2.2476
 7473TIP3   OH243833   4.425   6.506  16.577 -0.1550  0.4415  0.3479
 7473TIP3    H143834   4.347   6.546  16.538  0.9939  0.2931 -2.3595
 7473TIP3    H243835   4.402   6.414  16.589 -0.0266  0.0843 -1.7588
 7474TIP3   OH243836   4.895   3.166   1.496  0.1865  0.1509 -0.9557
 7474TIP3    H143837   4.812   3.119   1.506  0.0706 -0.2386 -3.2737
 7474TIP3    H243838   4.945   3.144   1.574 -0.4945 -2.5709 -1.2058
 7475TIP3   OH243839   0.722   5.374  16.396 -0.1309 -0.3511 -0.4434
 7475TIP3    H143840   0.646   5.432  16.396  1.3200  1.7123  1.0882
 7475TIP3    H243841   0.732   5.347  16.487  1.7126  0.5395 -0.3387
 7476TIP3   OH243842   5.455   1.032   4.316 -0.2279  0.4547  0.4919
 7476TIP3    H143843   5.404   0.965   4.272  0.8034  0.7595 -1.2621
 7476TIP3    H243844   5.492   1.086   4.246  0.0888  2.0425  1.7833
 7477TIP3   OH243845   3.875   6.691   3.441 -0.7822 -0.6186 -0.0762
 7477TIP3    H143846   3.837   6.757   3.383  0.9379  1.0331  0.5586
 7477TIP3    H243847   3.920   6.630   3.382  0.6996  0.8767 -0.5702
 7478TIP3   OH243848   4.188   0.778   3.728  0.5275  0.1256 -0.5380
 7478TIP3    H143849   4.259   0.713   3.725 -1.1377 -1.9926  1.6529
 7478TIP3    H243850   4.122   0.738   3.785 -1.1013  3.3440  0.0334
 7479TIP3   OH243851   2.951   4.802  12.909 -0.1092  0.0419 -0.1350
 7479TIP3    H143852   3.008   4.744  12.959 -0.7179 -0.1141  0.3927
 7479TIP3    H243853   2.932   4.754  12.829  0.2974 -0.0069 -0.2035
 7480TIP3   OH243854   0.537   1.567   2.280  0.1616 -0.3426 -0.0578
 7480TIP3    H143855   0.469   1.570   2.348  0.7647 -0.3552  0.5498
 7480TIP3    H243856   0.546   1.658   2.253  1.0775 -0.0804  1.0516
 7481TIP3   OH243857   4.269   4.293   6.772  0.4239 -0.2884  0.0182
 7481TIP3    H143858   4.227   4.366   6.728  1.1960  0.8855  1.1595
 7481TIP3    H243859   4.343   4.270   6.715 -0.8052 -1.3410 -1.2033
 7482TIP3   OH243860   5.829   4.553  14.086 -0.1443 -0.3809  0.4332
 7482TIP3    H143861   5.752   4.591  14.129  0.7561  0.3394  1.4929
 7482TIP3    H243862   5.865   4.491  14.150  0.5493 -0.1782  0.2578
 7483TIP3   OH243863   2.952   2.545   0.212  0.7033 -0.2436  0.3948
 7483TIP3    H143864   2.908   2.551   0.126 -0.3638  1.3410  1.0041
 7483TIP3    H243865   3.045   2.548   0.191  0.4698  1.8025 -0.6637
 7484TIP3   OH243866   4.734   0.447  11.989  0.4563 -0.7562 -0.1661
 7484TIP3    H143867   4.790   0.518  11.957  2.5878 -2.2300  0.1095
 7484TIP3    H243868   4.788   0.369  11.982 -1.8640 -2.4215 -0.5822
 7485TIP3   OH243869   4.533   1.361  15.598  0.1139 -0.0570 -0.2054
 7485TIP3    H143870   4.550   1.455  15.594 -1.2085  0.1977 -0.2566
 7485TIP3    H243871   4.619   1.320  15.593  0.7594  1.1755  0.5733
 7486TIP3   OH243872   2.322   1.141  14.550  0.3331 -0.0523  0.3612
 7486TIP3    H143873   2.319   1.051  14.583 -0.4603 -0.1719 -0.0133
 7486TIP3    H243874   2.317   1.131  14.455 -0.0029  0.3914  0.3308
 7487TIP3   OH243875   6.053   2.389  13.602  0.3733 -0.5427  0.1749
 7487TIP3    H143876   6.092   2.467  13.562 -2.4398  0.2138 -1.3619
 7487TIP3    H243877   6.086   2.388  13.692  2.8864  0.6391 -0.6533
 7488TIP3   OH243878   0.745   5.041  15.679  0.1458  0.1654 -0.0326
 7488TIP3    H143879   0.805   5.100  15.632  0.6764 -0.3456  0.0011
 7488TIP3    H243880   0.688   5.100  15.728  1.8630  0.6412  1.4915
 7489TIP3   OH243881   4.009   0.890   2.544 -0.4881  1.1967  0.0092
 7489TIP3    H143882   4.087   0.904   2.491 -0.4055  1.4031  0.1827
 7489TIP3    H243883   4.042   0.873   2.632 -0.6589  1.9604  0.2258
 7490TIP3   OH243884   6.120   1.638   0.746 -0.0090 -0.2900 -0.9497
 7490TIP3    H143885   6.056   1.701   0.713  0.1991  0.3465 -0.1662
 7490TIP3    H243886   6.205   1.681   0.733  0.2598 -0.9970 -1.6954
 7491TIP3   OH243887   3.842   3.128  12.832  0.3217  0.6887  0.2795
 7491TIP3    H143888   3.919   3.100  12.781  0.1199  0.3851  0.1337
 7491TIP3    H243889   3.768   3.097  12.780  0.0447  2.4473 -0.4478
 7492TIP3   OH243890   5.036   0.762   0.814  0.0567 -0.8445 -0.0486
 7492TIP3    H143891   4.977   0.689   0.794 -0.7358 -0.0915 -0.5365
 7492TIP3    H243892   5.124   0.724   0.811 -0.3949 -2.0233  0.8505
 7493TIP3   OH243893   2.570   5.299  12.659 -0.6633 -0.2321  0.1611
 7493TIP3    H143894   2.617   5.309  12.742  1.4819 -0.9807 -0.8829
 7493TIP3    H243895   2.621   5.351  12.597 -0.6899 -1.7553 -1.2041
 7494TIP3   OH243896   1.722   1.193   2.646  0.2884  0.0921  0.3566
 7494TIP3    H143897   1.811   1.178   2.679  0.4377  0.8073  0.2856
 7494TIP3    H243898   1.676   1.232   2.720  0.7090  2.0044 -0.3418
 7495TIP3   OH243899   0.506   3.714  12.462  0.3040  0.3736  0.0827
 7495TIP3    H143900   0.446   3.743  12.530  0.3203  1.4149 -0.3389
 7495TIP3    H243901   0.453   3.657  12.406 -0.0241  0.4952  0.2692
 7496TIP3   OH243902   2.442   0.339   5.752 -0.5514  0.3262  0.1878
 7496TIP3    H143903   2.359   0.346   5.706 -1.1045  0.5333  1.1773
 7496TIP3    H243904   2.423   0.284   5.828  0.4856 -0.5395 -0.1572
 7497TIP3   OH243905   2.525   1.000   2.684 -0.0043 -0.0454  0.3529
 7497TIP3    H143906   2.620   0.986   2.689  0.1317  0.1371 -1.1606
 7497TIP3    H243907   2.496   0.943   2.613 -0.5531  2.0236 -1.1873
 7498TIP3   OH243908   4.430   1.412   3.171  0.2844  0.1235  0.6314
 7498TIP3    H143909   4.396   1.338   3.121  2.0925 -0.5760  0.3712
 7498TIP3    H243910   4.386   1.405   3.256  0.3000 -1.1712  0.5617
 7499TIP3   OH243911   5.360   5.646   4.899 -0.0392  0.5563 -0.4231
 7499TIP3    H143912   5.267   5.627   4.908 -0.0801  0.6645 -0.6159
 7499TIP3    H243913   5.380   5.628   4.808  0.2925 -0.1606 -0.2109
 7500TIP3   OH243914   2.863   6.645  16.207 -0.2390 -0.1020  0.2283
 7500TIP3    H143915   2.912   6.651  16.289 -0.3070 -1.4688  0.3781
 7500TIP3    H243916   2.861   6.552  16.186 -0.1922  0.2306 -1.3596
 7501TIP3   OH243917   5.630   5.512  12.788 -0.4396 -0.0562  0.1664
 7501TIP3    H143918   5.546   5.492  12.746 -1.4829  2.6109  0.8220
 7501TIP3    H243919   5.612   5.586  12.845  2.0686 -0.3722  1.5215
 7502TIP3   OH243920   3.214   2.346  15.319 -0.6648 -0.0262  0.0874
 7502TIP3    H143921   3.120   2.336  15.303 -0.6558 -0.4383  0.2825
 7502TIP3    H243922   3.255   2.290  15.253 -0.5038  1.1655 -0.8716
 7503TIP3   OH243923   2.135   3.419   2.588 -0.0127 -0.2351  0.0009
 7503TIP3    H143924   2.211   3.397   2.642 -0.4612  0.7488  1.0666
 7503TIP3    H243925   2.163   3.496   2.538 -0.8486  1.2060  1.6769
 7504TIP3   OH243926   3.768   4.332  12.810 -0.1045 -0.0404  0.4436
 7504TIP3    H143927   3.798   4.392  12.742 -1.4619  0.7985  0.5401
 7504TIP3    H243928   3.819   4.357  12.888 -0.4078  0.7850  0.3952
 7505TIP3   OH243929   0.996   0.144  15.752  0.4379  0.1790  0.6427
 7505TIP3    H143930   1.032   0.207  15.814  0.0680 -0.4404  1.5118
 7505TIP3    H243931   0.966   0.071  15.807  0.4835 -0.5675 -0.3012
 7506TIP3   OH243932   2.731   0.949   5.579  0.6706  0.3196  1.0307
 7506TIP3    H143933   2.686   0.865   5.581  0.9715  0.1652  1.3988
 7506TIP3    H243934   2.665   1.010   5.546  0.5320 -0.1047  0.5111
 7507TIP3   OH243935   2.906   5.310   4.553 -0.3931  0.0809 -0.6138
 7507TIP3    H143936   2.878   5.218   4.554  0.3989 -0.1752 -1.0986
 7507TIP3    H243937   2.994   5.308   4.590 -0.1442  0.5668 -1.1715
 7508TIP3   OH243938   3.404   2.401   2.643 -0.4753 -0.4531  0.4936
 7508TIP3    H143939   3.448   2.321   2.614 -0.2127 -0.0331 -0.2982
 7508TIP3    H243940   3.457   2.432   2.717  0.4779 -0.0545 -0.3350
 7509TIP3   OH243941   5.760   1.009   4.534  0.1872  0.2134 -0.4509
 7509TIP3    H143942   5.756   1.030   4.440 -0.6453 -0.2701 -0.5335
 7509TIP3    H243943   5.849   0.975   4.546 -0.0218 -0.7259 -1.3070
 7510TIP3   OH243944   0.792   3.605   0.294 -0.0179 -0.1852 -0.0803
 7510TIP3    H143945   0.748   3.575   0.215  3.5698 -1.0746 -1.9539
 7510TIP3    H243946   0.844   3.681   0.265 -1.0802  1.5474  2.2405
 7511TIP3   OH243947   0.165   0.025  11.710  0.6222  0.0586  0.3921
 7511TIP3    H143948   0.186  -0.028  11.787  1.1183 -0.3576 -0.0258
 7511TIP3    H243949   0.101   0.089  11.742 -0.3156 -1.0534  0.8078
 7512TIP3   OH243950   0.317   3.787   4.620  0.2470  0.7234 -0.1098
 7512TIP3    H143951   0.307   3.698   4.587 -0.6951  0.6458  0.3438
 7512TIP3    H243952   0.411   3.802   4.622  0.5058 -0.7988  1.2472
 7513TIP3   OH243953   2.964   2.253   5.382 -0.1432  0.1748 -0.3013
 7513TIP3    H143954   2.978   2.165   5.348 -1.3197 -0.1294 -0.0230
 7513TIP3    H243955   2.906   2.295   5.318 -0.9019  0.1995  0.3822
 7514TIP3   OH243956   4.274   5.864   0.729  1.0916  0.5485 -0.1064
 7514TIP3    H143957   4.261   5.958   0.722  0.5428  0.5149  0.3272
 7514TIP3    H243958   4.333   5.853   0.804  1.3577  0.5572 -0.3128
 7515TIP3   OH243959   5.102   0.975  16.427  0.1532 -0.1566  0.2778
 7515TIP3    H143960   5.145   1.009  16.349  0.5856 -0.3700  0.4202
 7515TIP3    H243961   5.097   1.050  16.486 -0.2632  0.0285  0.0066
 7516TIP3   OH243962   5.781   4.054  13.578  0.3071 -0.6087 -0.2115
 7516TIP3    H143963   5.798   4.144  13.552 -2.2878  0.1509  0.4039
 7516TIP3    H243964   5.712   4.024  13.518 -0.8946 -1.1577  1.3795
 7517TIP3   OH243965   4.225   0.334  13.539 -0.2134 -0.0372  0.7764
 7517TIP3    H143966   4.234   0.378  13.624  2.1996  1.8408 -0.3069
 7517TIP3    H243967   4.216   0.406  13.476 -0.1872 -1.2958 -0.7108
 7518TIP3   OH243968   6.480   0.043  13.582  0.0374  0.1276  0.2381
 7518TIP3    H143969   6.426   0.120  13.600  0.1549  0.4235 -0.5816
 7518TIP3    H243970   6.502   0.051  13.489  1.6300  0.1156  0.5779
 7519TIP3   OH243971   6.733   5.385  16.923  0.1137 -0.2356  0.1170
 7519TIP3    H143972   6.797   5.318  16.945 -2.8205 -3.7936 -1.1254
 7519TIP3    H243973   6.725   5.382  16.828 -2.0538 -0.1854  0.2362
 7520TIP3   OH243974   0.297   2.168  14.255  0.4377 -0.1060  0.2235
 7520TIP3    H143975   0.327   2.100  14.195  0.6265 -0.6816  0.9522
 7520TIP3    H243976   0.377   2.211  14.285  0.5669 -1.4234  1.9155
 7521TIP3   OH243977   5.284   4.184  12.420 -0.2064 -0.2503 -0.4068
 7521TIP3    H143978   5.305   4.107  12.368  1.0264  1.0225 -1.9078
 7521TIP3    H243979   5.370   4.217  12.449 -0.8019 -0.4436  1.7968
 7522TIP3   OH243980   1.445   6.539  12.444 -0.2707 -0.5568 -0.7533
 7522TIP3    H143981   1.366   6.588  12.467 -0.9654 -0.7425 -2.6112
 7522TIP3    H243982   1.455   6.476  12.515 -1.5332 -0.2351 -0.2621
 7523TIP3   OH243983   1.933   6.273   5.518  0.3728 -0.0243 -0.0207
 7523TIP3    H143984   2.000   6.224   5.566 -1.2381 -1.0967  1.2224
 7523TIP3    H243985   1.852   6.256   5.565 -1.3245 -1.0802 -3.0306
 7524TIP3   OH243986   3.276   3.811  15.164  0.8483 -0.1593  0.3297
 7524TIP3    H143987   3.327   3.737  15.199  1.0694 -0.4078 -0.5083
 7524TIP3    H243988   3.188   3.775  15.151  0.6068  0.0929  1.1491
 7525TIP3   OH243989   4.250   1.101  16.201  0.1558  0.0362  0.1286
 7525TIP3    H143990   4.211   1.109  16.114 -2.1254 -1.5031  0.8974
 7525TIP3    H243991   4.328   1.047  16.188  1.3906  2.0563 -1.2893
 7526TIP3   OH243992   4.045   2.270   6.226 -0.4870  0.1272 -0.3607
 7526TIP3    H143993   4.089   2.280   6.310 -1.1787  1.7842 -0.1536
 7526TIP3    H243994   4.057   2.178   6.203  0.2978 -0.1946  1.2118
 7527TIP3   OH243995   2.818   1.800   4.827 -0.3338 -0.0386 -0.0942
 7527TIP3    H143996   2.908   1.802   4.796 -0.3406 -2.6272 -0.4590
 7527TIP3    H243997   2.767   1.776   4.749 -1.1807  0.1042  0.4064
 7528TIP3   OH243998   4.936   2.336  14.002  0.2608  0.9493  0.3212
 7528TIP3    H143999   4.894   2.288  13.930  0.6164 -1.7297  1.7744
 7528TIP3    H244000   5.029   2.336  13.979  0.1536  1.9366 -0.1763
 7529TIP3   OH244001   2.072   5.105   4.461 -0.4844  0.1756 -0.0644
 7529TIP3    H144002   1.981   5.092   4.488 -0.1809 -0.9742  0.4940
 7529TIP3    H244003   2.117   5.127   4.543 -0.3781  1.5951 -0.4686
 7530TIP3   OH244004   3.383   6.775   3.003  0.1406 -0.2515  0.2723
 7530TIP3    H144005   3.317   6.819   3.057 -0.3049 -1.0269  0.3824
 7530TIP3    H244006   3.434   6.724   3.066 -1.4396 -2.5126 -0.1497
 7531TIP3   OH244007   3.879   1.537  11.546  0.5619  0.4651 -0.1633
 7531TIP3    H144008   3.863   1.488  11.626 -2.3078 -0.0723 -0.9410
 7531TIP3    H244009   3.899   1.626  11.575 -1.8008  0.6289  1.1771
 7532TIP3   OH244010   4.324   6.233   2.073 -0.0969  0.2610  0.3330
 7532TIP3    H144011   4.293   6.260   1.987  1.8154  1.0749 -0.1333
 7532TIP3    H244012   4.378   6.156   2.056 -0.9588 -0.5263  1.0184
 7533TIP3   OH244013   6.154   1.441   4.260  0.7924  0.3571 -0.5597
 7533TIP3    H144014   6.207   1.364   4.238  0.3308 -0.1603  0.0951
 7533TIP3    H244015   6.167   1.451   4.355 -0.9674 -0.3281 -0.2077
 7534TIP3   OH244016   2.216   5.343  12.129  0.4680 -0.3297  0.7192
 7534TIP3    H144017   2.174   5.330  12.044  1.2155  0.5934  0.1864
 7534TIP3    H244018   2.254   5.431  12.124 -0.2016  0.0872  2.3259
 7535TIP3   OH244019   1.473   5.677  12.853  0.2695  0.4834  0.8033
 7535TIP3    H144020   1.497   5.588  12.827 -0.9052  0.4895 -0.3730
 7535TIP3    H244021   1.429   5.666  12.937  2.3858  0.2583  1.9572
 7536TIP3   OH244022   4.157   1.260   4.926  1.2523  0.2045 -0.6054
 7536TIP3    H144023   4.237   1.211   4.946  0.1326 -1.6225 -0.2974
 7536TIP3    H244024   4.153   1.328   4.992  1.3536 -1.1968  0.9207
 7537TIP3   OH244025   3.649   3.643  12.617 -0.2117  0.1453 -0.4160
 7537TIP3    H144026   3.664   3.607  12.529  0.0927  0.4008 -0.4699
 7537TIP3    H244027   3.711   3.596  12.672 -0.4223 -0.0349 -0.3291
 7538TIP3   OH244028   6.310   3.942   4.148  0.3193  0.3391 -0.2570
 7538TIP3    H144029   6.241   3.888   4.111  0.9704 -0.3554 -0.5043
 7538TIP3    H244030   6.328   3.902   4.234 -1.3783  2.1072  0.9838
 7539TIP3   OH244031   6.730   1.678   1.642  0.3695 -0.5327  0.4763
 7539TIP3    H144032   6.730   1.697   1.549 -0.5756 -0.6591  0.4361
 7539TIP3    H244033   6.668   1.606   1.652  2.0680 -1.9950  0.9321
 7540TIP3   OH244034   1.301   3.907   0.367 -0.8933 -0.1905  0.1590
 7540TIP3    H144035   1.347   3.843   0.312 -0.7236 -0.4456  0.5843
 7540TIP3    H244036   1.306   3.869   0.455  1.3282  1.5192  0.8709
 7541TIP3   OH244037   4.449   2.593  16.717  0.8876 -0.0870  0.6046
 7541TIP3    H144038   4.531   2.544  16.706 -1.2865 -3.9418 -0.2489
 7541TIP3    H244039   4.438   2.641  16.635  2.9248  1.8473  1.3432
 7542TIP3   OH244040   4.173   5.208   3.857 -0.3553 -0.4474 -0.4022
 7542TIP3    H144041   4.168   5.221   3.951 -1.4319  0.5792 -0.5673
 7542TIP3    H244042   4.260   5.172   3.841  0.8060  1.6740  0.7357
 7543TIP3   OH244043   1.974   5.656   4.940  0.2857  0.2360 -0.0241
 7543TIP3    H144044   1.977   5.625   5.030 -0.0791  1.3433  0.3828
 7543TIP3    H244045   1.946   5.747   4.947 -0.7832  0.0369 -1.3236
 7544TIP3   OH244046   0.149   3.631   3.561 -0.3621 -0.5711  0.6192
 7544TIP3    H144047   0.063   3.665   3.584 -1.1335 -2.3935  0.6207
 7544TIP3    H244048   0.136   3.536   3.554  1.6455 -0.8900  0.6274
 7545TIP3   OH244049   4.441   1.197   0.043  0.3464  0.3207  0.3047
 7545TIP3    H144050   4.532   1.168   0.054 -0.0697 -1.8716 -1.2075
 7545TIP3    H244051   4.430   1.204  -0.052 -1.2419 -0.2190  0.4188
 7546TIP3   OH244052   3.933   6.022  11.730 -0.2307  0.4019 -0.0365
 7546TIP3    H144053   3.850   6.008  11.686 -0.9811 -0.2284  1.5006
 7546TIP3    H244054   3.937   5.952  11.795  1.1671  0.8641  0.4061
 7547TIP3   OH244055   6.137   1.465  11.719 -0.1772 -0.2533  0.1652
 7547TIP3    H144056   6.177   1.550  11.739  0.2869 -0.3970 -0.1379
 7547TIP3    H244057   6.136   1.419  11.803 -0.5264  0.0871  0.3517
 7548TIP3   OH244058   2.055   0.250  15.784  0.1777 -0.2901  0.9009
 7548TIP3    H144059   2.142   0.214  15.804 -0.2304 -1.9594 -0.0618
 7548TIP3    H244060   2.007   0.243  15.866  0.8466  0.3685  1.3648
 7549TIP3   OH244061   2.149   3.918  14.503  0.0877 -0.1143 -0.2386
 7549TIP3    H144062   2.190   3.839  14.538 -0.0510 -0.8700 -1.7238
 7549TIP3    H244063   2.079   3.938  14.565  2.2290  0.8600  2.0416
 7550TIP3   OH244064   2.018   0.939   3.098  0.5776 -0.2712 -0.3498
 7550TIP3    H144065   2.063   1.024   3.102 -0.4461  0.3793 -1.6127
 7550TIP3    H244066   1.960   0.939   3.174  0.0573  0.5053 -0.7267
 7551TIP3   OH244067   2.603   3.063   3.850  0.2499 -0.4682  0.1546
 7551TIP3    H144068   2.594   2.977   3.890 -1.3355 -0.6355 -0.5293
 7551TIP3    H244069   2.688   3.061   3.807 -0.5060 -2.3321 -1.3468
 7552TIP3   OH244070   3.814   2.947   5.249  0.2161 -0.4001  0.1189
 7552TIP3    H144071   3.804   2.977   5.339 -1.0687 -1.2850  0.2995
 7552TIP3    H244072   3.754   3.001   5.199  1.0595  0.2137 -0.2566
 7553TIP3   OH244073   6.392   2.764  12.283  0.4555  0.1592  0.2432
 7553TIP3    H144074   6.304   2.786  12.254  0.8939 -0.0981 -1.3963
 7553TIP3    H244075   6.433   2.849  12.301  0.0655  0.3030  0.4732
 7554TIP3   OH244076   5.857   0.053   4.131 -0.2976  0.8417  0.2067
 7554TIP3    H144077   5.837   0.037   4.039 -2.3475  0.2873  0.6915
 7554TIP3    H244078   5.949   0.028   4.141  0.4882  2.5399 -2.0094
 7555TIP3   OH244079   6.562   4.798  11.758 -0.3677  0.0578  0.1109
 7555TIP3    H144080   6.597   4.803  11.669  0.2255  1.4107  0.3914
 7555TIP3    H244081   6.496   4.867  11.762 -0.7501 -0.3232  0.5793
 7556TIP3   OH244082   5.798   0.297   5.440 -0.1893 -0.2492  0.0336
 7556TIP3    H144083   5.785   0.229   5.374  0.9285  0.1206 -0.5963
 7556TIP3    H244084   5.778   0.254   5.523 -0.9468 -0.9133 -0.4803
 7557TIP3   OH244085   1.290   5.335  12.568  0.1747 -0.2435 -0.1687
 7557TIP3    H144086   1.317   5.334  12.477  0.0320 -0.9409 -0.2106
 7557TIP3    H244087   1.194   5.328  12.565  0.2444 -1.6135  0.0451
 7558TIP3   OH244088   4.906   5.642  12.839  0.4122 -0.0482  0.1221
 7558TIP3    H144089   4.927   5.559  12.797  1.6527  0.9342 -1.2850
 7558TIP3    H244090   4.862   5.694  12.772  1.7851  1.2865  0.1811
 7559TIP3   OH244091   6.135   3.713   0.742  0.4674  0.3745  0.4611
 7559TIP3    H144092   6.214   3.661   0.754 -0.6995 -1.9682 -1.1673
 7559TIP3    H244093   6.090   3.709   0.827  0.1474 -1.8134  0.2258
 7560TIP3   OH244094   5.834   0.801  10.794  0.3285  0.0112 -0.1933
 7560TIP3    H144095   5.911   0.847  10.827  0.3132 -0.1031 -0.0032
 7560TIP3    H244096   5.863   0.712  10.779  0.3632  0.0848 -0.5874
 7561TIP3   OH244097   5.286   5.985   1.170  0.0873 -0.2923 -0.3035
 7561TIP3    H144098   5.366   5.958   1.215 -0.6757 -2.2606  0.0074
 7561TIP3    H244099   5.296   5.952   1.081  0.3864  1.1042 -0.8111
 7562TIP3   OH244100   1.009   6.684   3.176  0.5406 -0.3250  0.0534
 7562TIP3    H144101   0.972   6.689   3.265 -0.2435 -0.8879 -0.2300
 7562TIP3    H244102   0.936   6.709   3.119  1.2012  0.5894 -0.4138
 7563TIP3   OH244103   1.386   4.514   1.232 -0.1711 -0.1416 -0.0670
 7563TIP3    H144104   1.469   4.485   1.271  0.7758  0.0280 -1.8764
 7563TIP3    H244105   1.351   4.435   1.191 -0.8180 -0.1550  0.4840
 7564TIP3   OH244106   3.480   5.397   3.433 -0.2392 -0.5274  0.5706
 7564TIP3    H144107   3.514   5.352   3.356 -0.1157 -0.3251  0.5035
 7564TIP3    H244108   3.433   5.330   3.482 -3.6969  0.1062 -1.5914
 7565TIP3   OH244109   6.463   1.207  11.266  0.5482 -0.1221 -0.1125
 7565TIP3    H144110   6.374   1.173  11.259  0.7407 -0.8559  0.8559
 7565TIP3    H244111   6.472   1.265  11.190 -0.3964 -0.8434 -0.8103
 7566TIP3   OH244112   0.208   1.082  11.986  0.2071  0.0067 -1.0551
 7566TIP3    H144113   0.190   1.174  12.003 -1.1447 -0.5436  0.7826
 7566TIP3    H244114   0.302   1.073  12.002  0.3881  1.0853 -1.4470
 7567TIP3   OH244115   6.447   4.185   0.190 -0.2464 -0.1903  0.0953
 7567TIP3    H144116   6.429   4.099   0.227 -1.0660 -0.2288 -0.3814
 7567TIP3    H244117   6.378   4.199   0.126  0.2370  0.5614 -0.2770
 7568TIP3   OH244118   2.426   1.343  12.603  0.2893  0.3599  1.0307
 7568TIP3    H144119   2.364   1.415  12.610 -1.0111 -0.3440 -1.8206
 7568TIP3    H244120   2.464   1.352  12.516  2.8799 -0.3260  1.9802
 7569TIP3   OH244121   2.631   6.604  11.491  0.6284 -0.0788 -0.0414
 7569TIP3    H144122   2.615   6.606  11.396 -2.3474  1.5398  0.3735
 7569TIP3    H244123   2.637   6.696  11.516 -1.6185 -0.3187  1.6771
 7570TIP3   OH244124   6.364   5.041   6.159  0.4717 -0.2005 -0.2797
 7570TIP3    H144125   6.299   4.982   6.196 -0.8580  0.7782 -0.9743
 7570TIP3    H244126   6.391   5.096   6.233 -0.3572  0.1398 -0.2180
 7571TIP3   OH244127   0.642   4.214   5.881 -0.6413  0.5389 -0.3261
 7571TIP3    H144128   0.630   4.170   5.965  0.1798  0.2620 -0.3421
 7571TIP3    H244129   0.578   4.173   5.823 -0.8599  0.3713  0.0334
 7572TIP3   OH244130   6.221   2.830   2.299  0.6735 -0.7913  0.1692
 7572TIP3    H144131   6.293   2.784   2.341 -1.8700 -3.2738  2.1900
 7572TIP3    H244132   6.189   2.768   2.233 -0.2805 -0.2288  0.0860
 7573TIP3   OH244133   3.272   1.128   5.622 -0.6713  0.7558  0.3689
 7573TIP3    H144134   3.282   1.089   5.535  1.8607 -0.2041  1.0176
 7573TIP3    H244135   3.254   1.220   5.605  1.6238  0.9825 -1.2310
 7574TIP3   OH244136   0.237   3.087   5.915 -0.0268  0.5038 -0.0035
 7574TIP3    H144137   0.168   3.087   5.848  0.5815 -2.6389 -0.7801
 7574TIP3    H244138   0.190   3.098   5.998 -0.9664  2.6803 -0.7548
 7575TIP3   OH244139   3.056   5.545  16.506 -0.7766  0.2999  0.3605
 7575TIP3    H144140   2.960   5.551  16.507 -0.8428 -0.5094 -0.2412
 7575TIP3    H244141   3.085   5.635  16.497 -1.4821  0.5688  0.6757
 7576TIP3   OH244142   4.773   2.183   3.714 -0.3338  0.1575 -0.5221
 7576TIP3    H144143   4.696   2.241   3.714  0.2645  0.9738 -1.4149
 7576TIP3    H244144   4.820   2.206   3.634  0.9503 -0.1851  0.1201
 7577TIP3   OH244145   4.620   3.297  16.122  0.4926  0.3182  0.3009
 7577TIP3    H144146   4.712   3.326  16.122  0.1351  1.5388  0.5994
 7577TIP3    H244147   4.621   3.214  16.075  1.6162  0.7640 -0.5234
 7578TIP3   OH244148   2.021   0.564   0.520  0.4120 -0.6472 -0.1031
 7578TIP3    H144149   2.060   0.651   0.513  1.3134 -1.1676 -2.7104
 7578TIP3    H244150   2.050   0.518   0.441 -0.6017 -3.1025  0.8455
 7579TIP3   OH244151   4.647   6.741   3.630  0.2126  0.2320  0.2819
 7579TIP3    H144152   4.713   6.687   3.672  0.2487  1.4210  1.8059
 7579TIP3    H244153   4.564   6.714   3.670 -0.5072 -1.9894 -2.3334
 7580TIP3   OH244154   4.209   2.861   5.302  0.2905  0.8073 -0.2044
 7580TIP3    H144155   4.168   2.940   5.266 -0.3608  0.4249 -0.2992
 7580TIP3    H244156   4.264   2.895   5.373 -1.7763  1.1744  1.3332
 7581TIP3   OH244157   5.083   1.390  16.349 -0.4354 -0.5806  0.4401
 7581TIP3    H144158   5.108   1.379  16.441  0.8647  1.9144  0.4948
 7581TIP3    H244159   5.053   1.481  16.343  1.3000 -0.0473 -1.9095
 7582TIP3   OH244160   5.253   4.725   1.937 -0.0749  0.5567 -0.0183
 7582TIP3    H144161   5.187   4.772   1.989  0.0703 -0.1513  0.8139
 7582TIP3    H244162   5.230   4.633   1.946  1.6705  0.1867  1.2343
 7583TIP3   OH244163   3.801   3.615  11.856 -0.1927 -0.3441  0.5488
 7583TIP3    H144164   3.845   3.680  11.802 -1.9722  1.2778  0.9336
 7583TIP3    H244165   3.738   3.574  11.797 -0.3048 -0.4473  0.7398
 7584TIP3   OH244166   4.583   2.963   0.149  0.8497 -0.6775  0.8234
 7584TIP3    H144167   4.551   2.903   0.082  2.0147 -0.1656 -0.2142
 7584TIP3    H244168   4.659   3.005   0.110 -0.3630  2.0747  1.1781
 7585TIP3   OH244169   3.042   0.896   5.431  0.4652  0.0562  0.1387
 7585TIP3    H144170   2.982   0.829   5.466  0.2478  0.7438  1.1345
 7585TIP3    H244171   2.986   0.955   5.381  0.7120 -0.6878 -1.0389
 7586TIP3   OH244172   4.813   3.486  14.819  0.0353 -0.4857 -0.2730
 7586TIP3    H144173   4.843   3.465  14.730  0.4195 -0.1978 -0.2182
 7586TIP3    H244174   4.880   3.448  14.876  0.2232  0.0310 -0.1418
 7587TIP3   OH244175   5.932   5.500  16.198  0.2029 -0.1841 -0.1258
 7587TIP3    H144176   5.972   5.458  16.274  0.2787 -0.3446 -0.2539
 7587TIP3    H244177   6.000   5.497  16.130  0.2219  0.1764 -0.1249
 7588TIP3   OH244178   1.812   1.047   1.408 -0.4952 -0.2554  0.1429
 7588TIP3    H144179   1.792   1.087   1.324 -0.3741  0.8294  0.6142
 7588TIP3    H244180   1.746   1.083   1.468  0.0229 -0.2362  0.7159
 7589TIP3   OH244181   0.255   4.720   0.180 -0.8469  0.2702 -0.4318
 7589TIP3    H144182   0.188   4.747   0.117 -0.4794 -1.7833 -1.8212
 7589TIP3    H244183   0.206   4.687   0.255 -1.3428  0.8398 -0.5044
 7590TIP3   OH244184   3.433   3.158   2.311 -0.3681 -0.2819  0.4644
 7590TIP3    H144185   3.363   3.126   2.368  0.6366 -0.8296  1.4054
 7590TIP3    H244186   3.514   3.134   2.355  0.4333  0.8529 -0.3279
 7591TIP3   OH244187   4.390   0.382   1.833  1.0775 -0.7906  0.4547
 7591TIP3    H144188   4.337   0.439   1.776  1.9935 -0.3229  0.0489
 7591TIP3    H244189   4.361   0.294   1.812 -1.7455 -0.4624  2.4660
 7592TIP3   OH244190   0.178   5.936  16.175  0.6974 -0.2928 -0.2704
 7592TIP3    H144191   0.229   5.912  16.252  0.6772 -2.8580 -0.9736
 7592TIP3    H244192   0.098   5.976  16.210  1.5296  0.3643  0.9399
 7593TIP3   OH244193   5.094   6.171   1.118  0.0420  0.6091 -0.4429
 7593TIP3    H144194   5.045   6.110   1.064 -0.0083 -0.0220  0.2944
 7593TIP3    H244195   5.175   6.125   1.140 -1.2373 -0.4696  2.5732
 7594TIP3   OH244196   4.874   6.138   4.702 -0.0424 -0.2350  0.5411
 7594TIP3    H144197   4.919   6.109   4.781 -0.6504 -1.6855  0.3834
 7594TIP3    H244198   4.798   6.187   4.735 -0.5220 -1.1819  0.8816
 7595TIP3   OH244199   5.934   1.429  13.341 -0.2206  0.1352  0.0462
 7595TIP3    H144200   5.960   1.446  13.250  0.2317 -1.3386 -0.1175
 7595TIP3    H244201   5.998   1.477  13.394  0.0211  0.3139 -0.4030
 7596TIP3   OH244202   4.250   1.680  12.809  0.3213 -0.3364  0.2495
 7596TIP3    H144203   4.301   1.759  12.789  1.2359 -0.7706  0.8254
 7596TIP3    H244204   4.270   1.620  12.737  1.4004 -0.8568  0.9541
 7597TIP3   OH244205   5.571   1.210   4.492  0.3484 -0.0709  0.2019
 7597TIP3    H144206   5.659   1.237   4.465  0.5682  0.3840  1.3274
 7597TIP3    H244207   5.555   1.129   4.444  1.0863  0.2227 -0.5613
 7598TIP3   OH244208   4.210   3.832  13.047 -0.0194  0.1167 -0.0055
 7598TIP3    H144209   4.243   3.746  13.076 -0.6396 -0.5828 -1.2671
 7598TIP3    H244210   4.138   3.851  13.106 -0.3017 -0.5596 -0.1160
 7599TIP3   OH244211   0.708   6.235   5.610  0.7110  0.5489  0.9868
 7599TIP3    H144212   0.770   6.164   5.598  1.6619  1.6416 -1.0208
 7599TIP3    H244213   0.709   6.252   5.704  2.4510 -0.3469  1.1700
 7600TIP3   OH244214   4.581   4.446  14.777  0.0450  0.7354  0.2148
 7600TIP3    H144215   4.561   4.353  14.792  0.7272  0.2509 -1.6353
 7600TIP3    H244216   4.592   4.482  14.865 -2.1149 -0.4721  1.0763
 7601TIP3   OH244217   6.660   6.229   0.468  0.4748 -0.2503 -0.1407
 7601TIP3    H144218   6.743   6.233   0.516 -0.1073  1.1476  0.8361
 7601TIP3    H244219   6.612   6.306   0.498 -0.3159  0.1725 -2.3197
 7602TIP3   OH244220   4.405   2.570  11.868 -0.4935  0.2912 -0.4927
 7602TIP3    H144221   4.400   2.644  11.928 -0.3260  0.1079 -0.2476
 7602TIP3    H244222   4.352   2.596  11.793 -0.0483  0.8517 -0.6206
 7603TIP3   OH244223   1.958   4.048   2.999 -0.2951  0.5022  0.7106
 7603TIP3    H144224   2.000   4.056   3.084  2.2839  1.6835 -0.5598
 7603TIP3    H244225   1.989   4.124   2.949 -0.4777 -0.9285 -1.7799
 7604TIP3   OH244226   3.566   6.336  11.766  0.2853  0.2756 -0.2140
 7604TIP3    H144227   3.649   6.332  11.813  1.7017 -0.7782 -2.5930
 7604TIP3    H244228   3.581   6.398  11.695 -1.1990  0.5624 -0.3257
 7605TIP3   OH244229   3.093   3.743  15.566  0.3163  0.3993  0.5054
 7605TIP3    H144230   3.186   3.759  15.551  0.2537  0.8469  0.5999
 7605TIP3    H244231   3.069   3.678  15.500  1.1169 -1.1021  1.6286
 7606TIP3   OH244232   5.655   5.630  15.662  0.1908 -0.3241 -0.2561
 7606TIP3    H144233   5.588   5.585  15.713 -0.0241 -0.3414 -0.5495
 7606TIP3    H244234   5.612   5.652  15.579  0.3253  0.3156 -0.1642
 7607TIP3   OH244235   1.584   0.816  12.977  0.4554  0.0958 -0.1016
 7607TIP3    H144236   1.596   0.852  12.889 -3.1651 -0.7375 -1.0678
 7607TIP3    H244237   1.583   0.721  12.964  0.9902 -0.0867  1.0635
 7608TIP3   OH244238   3.455   5.398   6.222  0.3724  0.0405 -0.7028
 7608TIP3    H144239   3.420   5.316   6.187 -1.2538  0.0722  0.6852
 7608TIP3    H244240   3.427   5.465   6.159 -2.7448  0.1348  0.5959
 7609TIP3   OH244241   6.144   2.070  11.945 -0.0076  0.3013 -0.4437
 7609TIP3    H144242   6.057   2.035  11.927  0.3835 -0.1740 -1.5499
 7609TIP3    H244243   6.195   1.994  11.974  0.3926  0.2800 -1.1700
 7610TIP3   OH244244   0.017   3.971   0.190 -0.3097 -0.2943 -0.1512
 7610TIP3    H144245  -0.062   4.023   0.180 -0.4104 -0.8174 -2.6258
 7610TIP3    H244246   0.006   3.926   0.274 -2.3073  0.1804 -0.1237
 7611TIP3   OH244247   5.422   1.104   3.663  0.0329 -0.0676  0.4000
 7611TIP3    H144248   5.496   1.109   3.602 -0.2534 -0.0846  0.0507
 7611TIP3    H244249   5.357   1.050   3.618 -0.1792 -0.0885  0.7251
 7612TIP3   OH244250   5.110   3.256   6.293  0.0926  0.7770 -0.4173
 7612TIP3    H144251   5.069   3.208   6.222  2.0411 -0.2765 -0.9219
 7612TIP3    H244252   5.038   3.287   6.347 -1.3193 -1.3556 -0.9688
 7613TIP3   OH244253   2.294   3.550  11.606  0.2109 -0.4364  0.0824
 7613TIP3    H144254   2.238   3.627  11.608  0.1687 -0.4761  0.5556
 7613TIP3    H244255   2.311   3.535  11.513 -0.5536 -0.4180 -0.0679
 7614TIP3   OH244256   3.736   4.480   2.350  0.6749  0.2033  0.3449
 7614TIP3    H144257   3.741   4.427   2.270  1.9502  0.1538  0.4329
 7614TIP3    H244258   3.788   4.432   2.414  2.7398  1.9810  0.1456
 7615TIP3   OH244259   6.677   5.278   3.044 -0.1569 -0.3475  0.5615
 7615TIP3    H144260   6.581   5.277   3.044 -0.3649  2.6397 -2.4276
 7615TIP3    H244261   6.700   5.352   3.101  0.1627  0.8080 -1.0172
 7616TIP3   OH244262   0.758   6.151  12.418  0.5043 -0.2360 -0.1526
 7616TIP3    H144263   0.742   6.164  12.511 -1.2832 -0.3163 -0.4150
 7616TIP3    H244264   0.789   6.060  12.412 -0.8482 -0.7485  0.2311
 7617TIP3   OH244265   0.217   3.704   3.278 -0.6509 -0.1756  0.0369
 7617TIP3    H144266   0.202   3.614   3.249 -0.8391  0.1629 -0.9349
 7617TIP3    H244267   0.162   3.713   3.356  0.5403 -1.3676  1.0507
 7618TIP3   OH244268   1.007   4.491   2.636 -0.2849  0.0802 -0.3503
 7618TIP3    H144269   1.092   4.477   2.678  0.4414  2.3132 -0.9292
 7618TIP3    H244270   0.971   4.568   2.679 -2.0395 -0.8257 -0.1283
 7619TIP3   OH244271   3.118   4.497   1.069 -0.5303 -0.0454  0.0460
 7619TIP3    H144272   3.170   4.464   0.996  1.2239  0.0763  1.2019
 7619TIP3    H244273   3.140   4.441   1.143 -1.2554  0.6691  0.8313
 7620TIP3   OH244274   5.933   6.040   1.821  0.2597  0.0445 -0.2182
 7620TIP3    H144275   5.911   6.113   1.763  4.5328  0.8000 -1.2174
 7620TIP3    H244276   5.848   6.007   1.851 -2.0006  2.8594 -2.8404
 7621TIP3   OH244277   3.133   5.973  12.791 -0.7172  0.0762 -0.1690
 7621TIP3    H144278   3.072   5.907  12.758 -0.2561  0.2403 -1.3805
 7621TIP3    H244279   3.206   5.972  12.729  0.4899 -0.0367  1.1842
 7622TIP3   OH244280   5.281   0.160  12.545  0.2104  0.2155 -0.3876
 7622TIP3    H144281   5.353   0.220  12.524  2.4513 -2.1343  0.1123
 7622TIP3    H244282   5.274   0.164  12.641 -1.3745  1.4660 -0.5052
 7623TIP3   OH244283   0.108   0.757  14.266  0.2153  0.0941  0.6239
 7623TIP3    H144284   0.061   0.840  14.252  0.8256  1.1691  4.0336
 7623TIP3    H244285   0.040   0.697  14.298  0.3386  0.2817  1.2483
 7624TIP3   OH244286   1.680   4.170   5.392  0.2053 -0.8930  0.0565
 7624TIP3    H144287   1.665   4.079   5.415 -0.4510 -0.6499  0.6301
 7624TIP3    H244288   1.592   4.206   5.376  0.4761 -0.4328 -0.4386
 7625TIP3   OH244289   4.262   3.640   5.529  0.3435 -0.3033  0.0617
 7625TIP3    H144290   4.299   3.553   5.512 -1.0896 -0.8562 -0.3275
 7625TIP3    H244291   4.332   3.700   5.504  1.8372 -1.3332  1.5129
 7626TIP3   OH244292   3.627   4.400   5.697 -0.7551  0.0387 -0.1846
 7626TIP3    H144293   3.608   4.320   5.648  1.6028 -0.0496 -1.0806
 7626TIP3    H244294   3.716   4.387   5.731  0.1248  2.6311 -1.2275
 7627TIP3   OH244295   1.779   3.370  11.786  0.2125  0.1834  0.2611
 7627TIP3    H144296   1.813   3.294  11.834  0.8185  0.6730  0.6253
 7627TIP3    H244297   1.849   3.394  11.726 -1.1985 -1.5334 -2.2781
 7628TIP3   OH244298   0.043   4.680  14.050 -0.0516 -0.1778 -1.0193
 7628TIP3    H144299  -0.046   4.657  14.074 -0.0261  0.9171  0.2893
 7628TIP3    H244300   0.098   4.623  14.104  0.0356 -0.0642 -0.9873
 7629TIP3   OH244301   1.687   3.431   4.525 -0.6128 -0.4655 -0.0795
 7629TIP3    H144302   1.767   3.462   4.482  0.4497 -2.2481  0.5330
 7629TIP3    H244303   1.661   3.504   4.582  1.5528 -0.4342  0.9829
 7630TIP3   OH244304   0.618   3.936  11.347  0.0175  0.3508 -0.0445
 7630TIP3    H144305   0.712   3.924  11.363  0.0831 -0.3107 -0.8690
 7630TIP3    H244306   0.594   4.011  11.402  0.8853  0.1206  0.6680
 7631TIP3   OH244307   6.693   2.598   5.847  0.0498 -0.0748  1.0449
 7631TIP3    H144308   6.681   2.690   5.872 -1.4321  0.4184 -1.2157
 7631TIP3    H244309   6.615   2.554   5.879  0.0976 -0.2721  0.8908
 7632TIP3   OH244310   0.519   6.253  16.355  0.0546 -0.4015  0.2105
 7632TIP3    H144311   0.586   6.233  16.291  1.5504 -2.3198  2.2354
 7632TIP3    H244312   0.482   6.337  16.326  0.8959 -0.9794 -2.8511
 7633TIP3   OH244313   0.308   2.740   3.132  0.5223  0.5260  0.4077
 7633TIP3    H144314   0.226   2.737   3.082  0.5762  0.4561  0.3233
 7633TIP3    H244315   0.324   2.650   3.158 -0.3927  0.7868  2.0072
 7634TIP3   OH244316   0.768   2.035  17.018  0.3034  0.4062 -0.1452
 7634TIP3    H144317   0.724   1.997  17.094 -1.2395  0.4327 -0.9720
 7634TIP3    H244318   0.737   1.982  16.944  1.2446  0.7954 -0.8396
 7635TIP3   OH244319   6.397   2.718   3.930 -0.4217 -0.1291 -0.3436
 7635TIP3    H144320   6.433   2.648   3.876  1.2585  1.2353 -1.0822
 7635TIP3    H244321   6.345   2.772   3.869 -1.1117 -0.3065  0.0708
 7636TIP3   OH244322   1.141   0.295   2.689 -0.1671  0.6265  0.1890
 7636TIP3    H144323   1.123   0.248   2.771  0.4027 -1.2605 -0.7099
 7636TIP3    H244324   1.225   0.338   2.704  1.5662 -2.2836 -0.3570
 7637TIP3   OH244325   5.907   0.986   3.887 -0.0851 -0.2776 -0.3301
 7637TIP3    H144326   5.843   1.057   3.874  0.5490  0.1121 -1.5197
 7637TIP3    H244327   5.872   0.913   3.836  0.5827  0.0626 -1.3106
 7638TIP3   OH244328   2.536   1.664   6.473  0.4387  0.1093  0.1654
 7638TIP3    H144329   2.566   1.711   6.396  0.9404  2.9055  1.9352
 7638TIP3    H244330   2.447   1.695   6.488  0.6247  0.2308  1.1305
 7639TIP3   OH244331   4.587   3.202   5.669 -0.0658  0.1591  0.0338
 7639TIP3    H144332   4.656   3.195   5.735 -0.7883  0.1483  0.8006
 7639TIP3    H244333   4.510   3.162   5.710 -0.5757  0.3093 -0.7498
 7640TIP3   OH244334   0.966   4.886   1.593  0.3534 -0.4940 -0.4303
 7640TIP3    H144335   0.930   4.864   1.508 -0.9749 -0.1666  0.0301
 7640TIP3    H244336   0.924   4.825   1.654  0.5863 -0.1211  0.1196
 7641TIP3   OH244337   2.919   1.471   4.710  0.2006  0.4182 -0.5108
 7641TIP3    H144338   2.919   1.494   4.617  2.4629 -0.0709 -0.6895
 7641TIP3    H244339   2.996   1.415   4.721 -0.1033  0.3332  1.6308
 7642TIP3   OH244340   2.701   4.173  14.023 -0.1743 -0.0964 -0.5464
 7642TIP3    H144341   2.753   4.238  14.071 -0.2219 -0.1719 -0.3950
 7642TIP3    H244342   2.641   4.226  13.970 -0.8045 -0.0272  0.2242
 7643TIP3   OH244343   2.518   2.689  15.836  0.0043  0.5265  0.0465
 7643TIP3    H144344   2.564   2.649  15.910  0.9171  0.8807 -0.3120
 7643TIP3    H244345   2.457   2.622  15.806  0.6367 -0.1332  0.2296
 7644TIP3   OH244346   1.341   6.352  11.903  0.0416  0.9915  0.2228
 7644TIP3    H144347   1.314   6.318  11.988 -0.4341  0.8690  0.0286
 7644TIP3    H244348   1.432   6.323  11.892 -1.0223 -2.3376 -0.9765
 7645TIP3   OH244349   6.705   2.745  13.659  0.0540  0.1888 -0.4704
 7645TIP3    H144350   6.625   2.761  13.710 -0.5035 -1.3428 -0.8053
 7645TIP3    H244351   6.774   2.787  13.709 -1.2095  3.4131 -1.2231
 7646TIP3   OH244352   5.455   0.661   5.289 -0.5410  0.5308  0.8288
 7646TIP3    H144353   5.421   0.627   5.207 -0.7772 -0.4166  1.3117
 7646TIP3    H244354   5.547   0.682   5.270 -0.3264 -0.5801  0.5796
 7647TIP3   OH244355   1.112   1.971  15.584 -0.1967  0.1706 -0.3686
 7647TIP3    H144356   1.160   2.034  15.637 -1.2858  0.0915  0.7507
 7647TIP3    H244357   1.111   2.010  15.496 -1.0843  1.8929  0.3465
 7648TIP3   OH244358   2.330   4.919  12.933 -0.7533  0.2509 -0.2777
 7648TIP3    H144359   2.389   4.935  12.859  0.4296  2.3040  1.0023
 7648TIP3    H244360   2.385   4.876  12.998 -1.7326 -1.3608 -0.4715
 7649TIP3   OH244361   1.144   2.104  16.617  0.2461 -0.3784  0.0562
 7649TIP3    H144362   1.222   2.102  16.673 -0.5620  0.1542  1.2405
 7649TIP3    H244363   1.131   2.196  16.596 -0.1445 -0.4472 -0.0178
 7650TIP3   OH244364   4.809   2.679  11.971 -0.4087 -0.1905 -0.2492
 7650TIP3    H144365   4.775   2.720  12.051  0.4440  0.6731 -0.3162
 7650TIP3    H244366   4.836   2.753  11.916  2.6983 -0.7922  0.2866
 7651TIP3   OH244367   4.253   3.719  14.514 -0.0370  0.2662 -0.9772
 7651TIP3    H144368   4.180   3.694  14.456 -0.3793  0.1548 -0.5011
 7651TIP3    H244369   4.282   3.804  14.480 -1.2634  0.9547 -0.3584
 7652TIP3   OH244370   1.489   1.376   4.600  0.1793  0.4713 -0.2025
 7652TIP3    H144371   1.545   1.331   4.538 -0.9065 -1.8342  0.3724
 7652TIP3    H244372   1.442   1.441   4.548  2.4510  1.6320 -0.8919
 7653TIP3   OH244373   0.385   3.473  14.440  0.6453 -0.0750 -0.2928
 7653TIP3    H144374   0.352   3.476  14.530  1.3438  1.0658 -0.0558
 7653TIP3    H244375   0.395   3.380  14.421  0.9072 -0.3156  0.9707
 7654TIP3   OH244376   1.118   4.979   0.318  0.4944  0.0238 -0.5659
 7654TIP3    H144377   1.142   5.072   0.317 -0.4786  0.3071  0.3155
 7654TIP3    H244378   1.099   4.960   0.410 -2.5109 -0.1813 -1.1435
 7655TIP3   OH244379   6.075   1.036  15.161 -0.0025 -0.8005 -0.2023
 7655TIP3    H144380   6.032   1.118  15.138 -0.9160 -1.2434 -0.1233
 7655TIP3    H244381   6.119   1.009  15.081  1.8561  0.6656  0.2543
 7656TIP3   OH244382   3.226   6.163  12.439  0.0073  0.2841 -0.0259
 7656TIP3    H144383   3.316   6.132  12.443 -0.1602 -0.3232 -0.7304
 7656TIP3    H244384   3.234   6.258  12.434  0.5991  0.2476  0.1539
 7657TIP3   OH244385   2.208   4.216   6.409 -0.2684  0.1952 -0.1627
 7657TIP3    H144386   2.229   4.285   6.345  0.7775 -1.8281 -2.1173
 7657TIP3    H244387   2.278   4.223   6.475 -0.6257  1.4882  0.1046
 7658TIP3   OH244388   5.106   0.141  13.006 -0.3657  0.0088  0.3226
 7658TIP3    H144389   5.091   0.051  13.036 -1.7574 -0.9218 -2.8394
 7658TIP3    H244390   5.022   0.185  13.019  0.4083  1.0582  2.2031
 7659TIP3   OH244391   6.081   5.365   3.052 -0.4271 -0.0302 -0.3685
 7659TIP3    H144392   6.093   5.281   3.007 -0.8946  0.6897 -1.9360
 7659TIP3    H244393   6.128   5.355   3.134 -0.8318 -1.9724 -0.3065
 7660TIP3   OH244394   1.587   1.976   3.482 -0.2373 -0.5024 -0.5877
 7660TIP3    H144395   1.503   1.997   3.442 -0.3611 -2.0821 -1.2507
 7660TIP3    H244396   1.631   1.920   3.418  0.2631 -1.7555  0.7688
 7661TIP3   OH244397   0.347   0.973   0.229 -0.5943  0.4170 -0.4894
 7661TIP3    H144398   0.271   0.942   0.180 -0.0321 -0.5505 -0.7778
 7661TIP3    H244399   0.340   1.068   0.227 -2.6641  0.3765  0.8332
 7662TIP3   OH244400   0.074   3.776  14.857 -0.1044 -0.6218 -0.4220
 7662TIP3    H144401  -0.020   3.793  14.853 -0.1400 -0.4866  0.6173
 7662TIP3    H244402   0.081   3.687  14.891  0.1416 -0.9232 -1.2389
 7663TIP3   OH244403   2.468   5.687  16.599 -0.1084 -0.3820  0.0494
 7663TIP3    H144404   2.419   5.609  16.573  0.5663 -0.7247 -0.2288
 7663TIP3    H244405   2.500   5.666  16.687 -0.5548 -0.1118  0.2775
 7664TIP3   OH244406   4.553   0.083  16.665  0.8395  0.1780  0.6155
 7664TIP3    H144407   4.646   0.103  16.679  1.1512  1.3376 -2.4432
 7664TIP3    H244408   4.553   0.020  16.593 -0.7547 -0.8885  1.4895
 7665TIP3   OH244409   1.826   1.117  10.996  0.3878  0.3793 -0.7805
 7665TIP3    H144410   1.866   1.069  10.923  0.7846  1.9184 -1.6337
 7665TIP3    H244411   1.797   1.200  10.957  1.5285  1.7002  0.9766
 7666TIP3   OH244412   3.714   3.987  11.095  0.6844 -0.1139 -0.0338
 7666TIP3    H144413   3.699   3.987  11.001  0.2736  0.5969  0.0240
 7666TIP3    H244414   3.666   3.911  11.127 -1.0110  0.8428 -0.1431
 7667TIP3   OH244415   0.090   6.535   4.860  0.3705  0.4643  0.5744
 7667TIP3    H144416   0.064   6.595   4.790  0.2212  0.3753  0.5529
 7667TIP3    H244417   0.023   6.467   4.860 -0.2379  1.0320  1.5093
 7668TIP3   OH244418   4.102   4.930   6.164  0.0823 -0.2677 -0.5382
 7668TIP3    H144419   4.023   4.983   6.181 -0.4629 -0.6011 -1.8922
 7668TIP3    H244420   4.148   4.929   6.248 -1.1218  0.3238  0.1680
 7669TIP3   OH244421   5.067   3.632   5.853 -0.2494 -0.2248 -0.3746
 7669TIP3    H144422   5.072   3.597   5.764 -0.9806  1.4405 -1.0964
 7669TIP3    H244423   5.114   3.567   5.906 -1.1280 -2.0512 -1.7100
 7670TIP3   OH244424   1.280   3.059  16.101  0.0978 -0.2246 -0.0725
 7670TIP3    H144425   1.294   3.092  16.190  1.0982  0.6618 -0.5442
 7670TIP3    H244426   1.192   3.021  16.104  0.0255 -0.0248  1.2344
 7671TIP3   OH244427   0.789   0.909   5.144  0.1554 -0.7367  0.1674
 7671TIP3    H144428   0.801   0.924   5.238 -0.6277 -3.3149  0.7741
 7671TIP3    H244429   0.705   0.950   5.124  0.3506 -0.1230  0.5792
 7672TIP3   OH244430   4.203   0.476   5.119 -0.4198  0.8731  0.4707
 7672TIP3    H144431   4.225   0.392   5.078 -0.3744  0.7292  0.7927
 7672TIP3    H244432   4.254   0.478   5.200  0.0388  1.4758  0.1757
 7673TIP3   OH244433   3.458   6.402   1.007 -0.4470 -0.1143  0.0167
 7673TIP3    H144434   3.447   6.363   0.921  0.0748  1.1168 -0.6443
 7673TIP3    H244435   3.511   6.340   1.056  0.2279 -0.3125 -0.9430
 7674TIP3   OH244436   2.942   5.709   6.711  0.9750 -0.2302 -0.4410
 7674TIP3    H144437   2.992   5.696   6.631 -0.4865  0.6769 -1.5517
 7674TIP3    H244438   2.854   5.678   6.690  0.4529  0.4468  0.6561
 7675TIP3   OH244439   4.052   3.864  14.101 -0.1760 -0.7112 -0.3515
 7675TIP3    H144440   3.966   3.851  14.060 -0.2806  1.4061 -0.9552
 7675TIP3    H244441   4.036   3.928  14.171  0.8861 -0.2943 -0.4636
 7676TIP3   OH244442   4.758   4.331   5.882 -0.0723 -0.2594 -0.4975
 7676TIP3    H144443   4.829   4.323   5.818  0.6465 -0.3901  0.2901
 7676TIP3    H244444   4.769   4.255   5.939 -0.1398  0.3261  0.3140
 7677TIP3   OH244445   0.771   3.174   3.684  1.1394 -0.5633 -0.3348
 7677TIP3    H144446   0.816   3.166   3.768  1.5970 -0.6796 -0.5849
 7677TIP3    H244447   0.719   3.254   3.692  2.7280  0.5633 -0.6454
 7678TIP3   OH244448   3.776   0.859   5.307 -0.5906 -0.3511 -0.3494
 7678TIP3    H144449   3.806   0.774   5.273 -0.9962 -0.8938  0.6088
 7678TIP3    H244450   3.686   0.867   5.276 -0.9081 -0.7744  0.4255
 7679TIP3   OH244451   3.000   3.683   5.203 -0.2326 -0.1073  0.8529
 7679TIP3    H144452   3.054   3.702   5.280 -0.2188 -0.7639  1.0107
 7679TIP3    H244453   2.910   3.682   5.237 -0.7401  3.7407  0.1293
 7680TIP3   OH244454   3.400   0.380  10.351 -0.0179  0.2166  0.3075
 7680TIP3    H144455   3.325   0.419  10.304 -0.2545  0.6319  1.0129
 7680TIP3    H244456   3.438   0.453  10.400  1.3672  0.1973 -0.6788
 7681TIP3   OH244457   5.137   1.482  14.068 -0.8517 -0.1131 -0.0709
 7681TIP3    H144458   5.156   1.391  14.091 -0.3642  0.1686  0.6847
 7681TIP3    H244459   5.171   1.492  13.979  0.8720 -0.1482  0.5502
 7682TIP3   OH244460   0.732   5.877  12.049 -0.3737  0.1654  0.2299
 7682TIP3    H144461   0.764   5.795  12.087  1.1364  1.1574  1.2079
 7682TIP3    H244462   0.657   5.901  12.104 -1.7157 -1.2196 -0.9146
 7683TIP3   OH244463   4.517   5.219  16.983  0.4998  0.5099  0.0867
 7683TIP3    H144464   4.519   5.241  17.076  1.2919  0.7257  0.0277
 7683TIP3    H244465   4.490   5.300  16.940  2.3257  1.0998 -0.0401
 7684TIP3   OH244466   6.647   2.534   2.020 -0.1645  0.2979  0.0462
 7684TIP3    H144467   6.652   2.576   2.106 -0.7771 -0.4064  0.4263
 7684TIP3    H244468   6.657   2.607   1.958  2.4254  0.5996  0.6692
 7685TIP3   OH244469   2.053   0.064  14.644  0.0745  0.2194 -0.2816
 7685TIP3    H144470   2.098   0.147  14.662  1.8814 -0.6561 -0.5652
 7685TIP3    H244471   1.986   0.087  14.580  0.6411  1.4445 -0.4627
 7686TIP3   OH244472   1.894   5.992   4.165  0.1145 -0.2208 -0.2095
 7686TIP3    H144473   1.923   5.964   4.078 -1.3711  0.5806 -1.0101
 7686TIP3    H244474   1.958   5.955   4.225  1.5282 -0.2903 -1.6966
 7687TIP3   OH244475   0.736   1.956   0.643  0.4044  0.1912 -0.5747
 7687TIP3    H144476   0.826   1.966   0.674 -0.1761  1.1685  0.9177
 7687TIP3    H244477   0.743   1.893   0.570  2.4513  1.2760 -1.4085
 7688TIP3   OH244478   0.553   0.741   0.990  0.5877 -0.1418  0.4196
 7688TIP3    H144479   0.521   0.684   0.921  1.9250  0.8023 -1.0528
 7688TIP3    H244480   0.625   0.692   1.030  0.9359  0.0007 -0.0247
 7689TIP3   OH244481   1.035   1.315   6.033  0.2701  0.0388  0.9540
 7689TIP3    H144482   0.970   1.382   6.056  1.1637  1.0858  0.5501
 7689TIP3    H244483   0.987   1.233   6.035 -1.2260  0.8480  0.0394
 7690TIP3   OH244484   3.315   0.460  10.813 -0.4179 -0.0898 -0.3314
 7690TIP3    H144485   3.354   0.389  10.864 -1.0327  0.3624  0.8025
 7690TIP3    H244486   3.388   0.499  10.765 -0.0301 -1.3044 -0.7660
 7691TIP3   OH244487   2.070   5.563   3.788 -0.3701  0.1086 -0.0961
 7691TIP3    H144488   2.017   5.489   3.818 -2.2375  1.4715  0.1986
 7691TIP3    H244489   2.160   5.538   3.806 -1.0414 -1.5513  1.1967
 7692TIP3   OH244490   5.401   3.467  12.773  0.7308 -0.2125  0.0096
 7692TIP3    H144491   5.478   3.520  12.790  0.3267  1.9663 -3.8107
 7692TIP3    H244492   5.327   3.524  12.795  0.2961  0.9936 -3.8482
 7693TIP3   OH244493   2.978   3.042  14.692 -0.4317  0.3950  0.5057
 7693TIP3    H144494   2.939   3.019  14.607  1.7034 -0.4189 -0.3131
 7693TIP3    H244495   2.998   2.958  14.733 -0.4254  0.7885  1.3254
 7694TIP3   OH244496   4.081   2.216  12.854  0.0088  0.4159 -0.0334
 7694TIP3    H144497   4.099   2.137  12.803 -0.4633  0.9763 -1.0982
 7694TIP3    H244498   3.985   2.224  12.853  0.0595  1.0737 -0.0573
 7695TIP3   OH244499   1.285   4.897  11.410 -0.1500  0.1650  0.2900
 7695TIP3    H144500   1.272   4.955  11.335 -1.8834 -0.7894 -0.2039
 7695TIP3    H244501   1.225   4.929  11.477  2.0869  1.6275  1.7468
 7696TIP3   OH244502   0.084   1.264  13.715  0.2731  0.2975 -0.3756
 7696TIP3    H144503   0.071   1.293  13.625 -0.7186  0.1053 -0.3078
 7696TIP3    H244504   0.121   1.176  13.706  0.8742  0.5660 -0.5857
 7697TIP3   OH244505   3.296   3.940   0.020 -0.3350 -0.0012 -0.6283
 7697TIP3    H144506   3.224   3.985  -0.026 -0.1021  0.2714 -0.7272
 7697TIP3    H244507   3.295   3.978   0.108  0.1438  0.5154 -0.8446
 7698TIP3   OH244508   6.012   5.365  12.784 -0.5931  0.2603 -0.5701
 7698TIP3    H144509   5.969   5.419  12.718 -2.7755 -0.8015 -0.1192
 7698TIP3    H244510   6.074   5.311  12.735  1.8266  3.1796 -1.0029
 7699TIP3   OH244511   1.527   1.799   0.003  0.1406 -0.1074  0.1863
 7699TIP3    H144512   1.543   1.813  -0.090  2.4004 -1.3657  0.3261
 7699TIP3    H244513   1.480   1.716   0.007  0.9585 -0.5771  0.2040
 7700TIP3   OH244514   0.118   3.889   5.505  0.7139  0.5363 -0.3088
 7700TIP3    H144515   0.134   3.796   5.523  0.1826  0.5371  0.2294
 7700TIP3    H244516   0.083   3.890   5.416 -3.3855 -0.3223  1.0633
 7701TIP3   OH244517   0.627   4.557   0.856  0.2421 -1.0619 -0.7623
 7701TIP3    H144518   0.612   4.462   0.852  1.5663 -1.2547 -1.8409
 7701TIP3    H244519   0.715   4.566   0.891  0.3682 -0.2614 -1.2645
 7702TIP3   OH244520   0.430   1.092  12.612 -0.1728 -0.0129 -0.3470
 7702TIP3    H144521   0.476   1.144  12.546  0.0265  0.8188  0.4258
 7702TIP3    H244522   0.337   1.110  12.595 -0.1392 -0.1105 -0.6423
 7703TIP3   OH244523   4.675   6.248   1.004  0.1622 -0.1337 -0.5982
 7703TIP3    H144524   4.598   6.273   1.056  0.5412 -0.8316  0.3298
 7703TIP3    H244525   4.718   6.331   0.983 -2.1708  0.5260 -3.3380
 7704TIP3   OH244526   2.190   0.246  11.331  0.3471  0.2426  0.5860
 7704TIP3    H144527   2.212   0.235  11.423  3.9134 -0.4610 -0.2162
 7704TIP3    H244528   2.220   0.166  11.289 -0.0731  1.0589 -1.3822
 7705TIP3   OH244529   0.798   6.753   3.911 -0.3366  1.0133  0.0211
 7705TIP3    H144530   0.735   6.688   3.941  1.6199 -0.3465  1.5040
 7705TIP3    H244531   0.765   6.782   3.827 -0.2795 -3.5972 -1.8945
 7706TIP3   OH244532   0.096   4.498  16.341 -1.1569 -0.5992  0.1529
 7706TIP3    H144533   0.182   4.465  16.367 -1.5322 -1.1300  0.7428
 7706TIP3    H244534   0.103   4.593  16.350  0.1322 -0.3870 -2.1520
 7707TIP3   OH244535   1.390   4.836  12.855  0.0338  0.2299  0.7259
 7707TIP3    H144536   1.419   4.751  12.888  0.2690 -0.3234 -0.8291
 7707TIP3    H244537   1.298   4.842  12.883 -0.3023 -1.0198 -0.0096
 7708TIP3   OH244538   4.628   4.514   4.476 -0.1599  0.2835  0.6746
 7708TIP3    H144539   4.572   4.577   4.431  0.0983  0.5475  0.7223
 7708TIP3    H244540   4.655   4.453   4.407  0.7941  1.0853  0.3218
 7709TIP3   OH244541   1.776   2.904  13.190  0.1602  0.0501  0.1245
 7709TIP3    H144542   1.870   2.909  13.169  0.0206  0.3826 -0.4273
 7709TIP3    H244543   1.733   2.955  13.121 -0.4062  0.1169  0.5224
 7710TIP3   OH244544   6.244   2.991  15.892 -0.2077 -0.3173 -0.3119
 7710TIP3    H144545   6.269   3.001  15.800  0.8814 -1.2528 -0.1403
 7710TIP3    H244546   6.214   2.900  15.898 -2.8846  0.4854 -0.2996
 7711TIP3   OH244547   4.004   1.535  16.518  0.2621  0.3761 -0.3332
 7711TIP3    H144548   3.991   1.441  16.503  0.3095  0.4299 -0.7031
 7711TIP3    H244549   3.951   1.578  16.452 -0.0610  0.6164  0.0776
 7712TIP3   OH244550   5.714   5.132  13.972 -0.5107 -0.6769  0.7584
 7712TIP3    H144551   5.794   5.120  13.920  0.7505 -3.0758  3.0198
 7712TIP3    H244552   5.736   5.202  14.034  0.7402 -2.7651  2.7944
 7713TIP3   OH244553   5.914   1.282   4.621 -0.9751  0.3651  0.3457
 7713TIP3    H144554   5.904   1.366   4.577 -0.1701 -1.1767 -3.1988
 7713TIP3    H244555   6.009   1.271   4.630 -0.9714 -0.7518 -0.7158
 7714TIP3   OH244556   6.516   3.824  15.821 -0.1972 -0.3119  0.5392
 7714TIP3    H144557   6.441   3.765  15.808 -0.6119  0.3798 -0.3018
 7714TIP3    H244558   6.476   3.909  15.839  0.3958 -0.2912  1.8674
 7715TIP3   OH244559   6.575   4.858  13.872 -0.3104  0.5229  0.2913
 7715TIP3    H144560   6.496   4.822  13.832 -0.7016 -0.4703  1.8881
 7715TIP3    H244561   6.575   4.823  13.961  1.8679  0.5974  0.3668
 7716TIP3   OH244562   2.372   2.192  14.260  0.0662  0.3609 -0.4255
 7716TIP3    H144563   2.433   2.223  14.194  1.0105  0.6772  0.5725
 7716TIP3    H244564   2.411   2.112  14.293 -0.1345  0.4787  0.1053
 7717TIP3   OH244565   4.040   0.226   1.914 -0.5424  0.8429  0.2700
 7717TIP3    H144566   4.030   0.320   1.926 -0.2744  1.1041 -1.2971
 7717TIP3    H244567   4.005   0.209   1.826 -1.2176 -0.6326  0.7881
 7718TIP3   OH244568   0.479   1.028  11.907  0.4340  0.4638  0.0222
 7718TIP3    H144569   0.514   0.979  11.981  0.2787 -1.5307 -1.1223
 7718TIP3    H244570   0.552   1.083  11.877  0.3559  1.6395  1.8606
 7719TIP3   OH244571   5.134   5.506   1.274  0.7861  0.0706  0.5867
 7719TIP3    H144572   5.169   5.444   1.338 -1.4588 -0.7137  1.1537
 7719TIP3    H244573   5.077   5.453   1.218 -1.5029  1.6083  1.3157
 7720TIP3   OH244574   4.828   5.578  10.927  0.1314 -0.1244  0.1437
 7720TIP3    H144575   4.884   5.598  11.002  2.6456 -1.2011 -1.3128
 7720TIP3    H244576   4.740   5.569  10.964  1.0992  0.3674  2.7622
 7721TIP3   OH244577   5.849   2.459   3.093 -0.2314 -0.3190  0.5427
 7721TIP3    H144578   5.773   2.443   3.148 -0.9877 -0.0006 -0.3772
 7721TIP3    H244579   5.914   2.497   3.151 -0.8242 -0.4685  1.3154
 7722TIP3   OH244580   0.675   4.586   3.360  0.2194  0.2592 -0.3465
 7722TIP3    H144581   0.659   4.677   3.385 -0.3379 -0.0603  0.4937
 7722TIP3    H244582   0.720   4.592   3.275  0.4905  1.3206 -0.1393
 7723TIP3   OH244583   1.929   6.091   4.591 -0.1608 -0.3951  0.3053
 7723TIP3    H144584   1.928   6.137   4.508 -1.5981 -0.6984  0.1317
 7723TIP3    H244585   2.014   6.115   4.631 -0.0601  0.8617 -0.6010
 7724TIP3   OH244586   6.376   2.433  15.860  0.6119 -0.5155 -0.2588
 7724TIP3    H144587   6.373   2.529  15.857  0.3193 -0.4935  0.4023
 7724TIP3    H244588   6.350   2.412  15.950  2.7350 -1.1338  0.2671
 7725TIP3   OH244589   4.752   4.011   5.954 -0.4833 -0.3651 -0.6067
 7725TIP3    H144590   4.817   4.061   6.004 -2.1602 -0.2546  1.5839
 7725TIP3    H244591   4.775   3.919   5.970 -0.7168 -0.3239 -0.0051
 7726TIP3   OH244592   2.207   1.721   4.663  0.1604 -0.0943 -0.2028
 7726TIP3    H144593   2.267   1.674   4.720 -1.1679  0.1449  1.4695
 7726TIP3    H244594   2.124   1.720   4.709 -0.5241  1.7261 -1.2710
 7727TIP3   OH244595   2.352   4.937   1.611 -0.0737  0.6074  0.1013
 7727TIP3    H144596   2.299   4.980   1.543 -2.0531 -1.4911  0.2162
 7727TIP3    H244597   2.345   4.995   1.687 -1.0229  1.0830 -0.3275
 7728TIP3   OH244598   1.121   0.764  11.063 -0.3357 -0.4779 -0.4514
 7728TIP3    H144599   1.138   0.744  10.970  0.3799 -1.8495 -0.0543
 7728TIP3    H244600   1.191   0.824  11.088 -0.6374  0.0467 -0.8297
 7729TIP3   OH244601   5.609   4.602  11.227 -0.1145  0.3070  0.0403
 7729TIP3    H144602   5.559   4.565  11.155 -1.4926 -0.3184  1.2862
 7729TIP3    H244603   5.587   4.549  11.303  0.2335  1.7808  1.2321
 7730TIP3   OH244604   0.875   1.348  13.748  0.0898 -0.0590 -0.3115
 7730TIP3    H144605   0.911   1.428  13.786 -1.3550 -0.5000  2.2163
 7730TIP3    H244606   0.808   1.378  13.687 -0.4638  0.6889  0.6454
 7731TIP3   OH244607   4.579   0.383  13.071 -0.0669  0.0567  0.2815
 7731TIP3    H144608   4.553   0.390  13.163 -0.8903  2.2069 -0.0805
 7731TIP3    H244609   4.532   0.453  13.026  0.3555 -0.9109 -1.7972
 7732TIP3   OH244610   1.234   4.208  11.793  0.2297  0.4353 -0.3982
 7732TIP3    H144611   1.189   4.168  11.718 -0.4913  1.0798 -0.3252
 7732TIP3    H244612   1.299   4.265  11.753  0.9005 -0.3867 -0.5076
 7733TIP3   OH244613   6.076   1.917   2.556 -0.5245 -0.3338  1.1740
 7733TIP3    H144614   6.123   1.962   2.486  1.3558 -1.2032  1.8101
 7733TIP3    H244615   5.986   1.951   2.550  0.1254  1.3134 -0.1682
 7734TIP3   OH244616   6.443   4.032  13.274 -0.2341  1.0039 -0.3841
 7734TIP3    H144617   6.369   3.998  13.223  1.6481 -2.2558 -1.2845
 7734TIP3    H244618   6.403   4.091  13.338 -3.6762 -0.9288 -0.4830
 7735TIP3   OH244619   6.471   1.487  13.792 -0.2228  0.5664  0.1942
 7735TIP3    H144620   6.468   1.579  13.819 -3.7863  0.2183  1.5428
 7735TIP3    H244621   6.410   1.482  13.718  0.1816 -0.6587 -0.0784
 7736TIP3   OH244622   4.615   5.372  14.884 -0.0866  0.0230  0.3029
 7736TIP3    H144623   4.662   5.329  14.955  2.4363  1.5446 -0.2823
 7736TIP3    H244624   4.549   5.426  14.927  0.5838 -0.0240  1.4263
 7737TIP3   OH244625   0.795   4.903  14.468  0.3963  0.3157 -0.1758
 7737TIP3    H144626   0.731   4.944  14.411  0.8004  1.0746 -0.0886
 7737TIP3    H244627   0.765   4.812  14.477 -0.4151  0.5502 -0.4903
 7738TIP3   OH244628   2.434   5.369  16.284  0.3768 -0.1049  0.1743
 7738TIP3    H144629   2.450   5.442  16.224  1.4824  0.0574  0.6475
 7738TIP3    H244630   2.339   5.363  16.290  0.2561  0.2599 -1.1206
 7739TIP3   OH244631   6.521   0.867   1.915  0.4432  0.0270  0.1964
 7739TIP3    H144632   6.531   0.905   2.003 -0.7571  1.3502 -0.2021
 7739TIP3    H244633   6.592   0.905   1.864  0.7073 -0.1788  0.4080
 7740TIP3   OH244634   1.456   0.978  17.030 -0.1257 -0.6779 -0.4259
 7740TIP3    H144635   1.541   0.934  17.032 -0.7880 -1.9792  1.1121
 7740TIP3    H244636   1.394   0.913  17.062 -1.2856  1.1192  1.2464
 7741TIP3   OH244637   2.991   1.672   5.687  0.0423 -0.0590 -0.2127
 7741TIP3    H144638   2.953   1.760   5.689  0.2358  0.0175  0.4002
 7741TIP3    H244639   2.917   1.613   5.696 -0.2117 -0.0069 -1.7067
 7742TIP3   OH244640   4.676   1.844   0.210 -0.3160 -0.7917 -0.0603
 7742TIP3    H144641   4.700   1.884   0.293  1.2027  1.5086 -1.4876
 7742TIP3    H244642   4.667   1.917   0.149 -1.2573 -2.3903 -1.9901
 7743TIP3   OH244643   5.376   6.005  12.264 -0.1300  0.4161 -0.5785
 7743TIP3    H144644   5.412   6.062  12.196 -0.4021 -0.2222 -1.2677
 7743TIP3    H244645   5.359   5.922  12.219 -0.1449 -0.0688  0.3123
 7744TIP3   OH244646   1.818   5.366  11.336 -0.1907  0.2859 -0.0646
 7744TIP3    H144647   1.792   5.325  11.418 -1.8652  1.6515  0.1519
 7744TIP3    H244648   1.848   5.294  11.281 -2.7860 -1.2322  0.3513
 7745TIP3   OH244649   0.606   4.638  13.860  0.2474  0.6764  0.2196
 7745TIP3    H144650   0.550   4.715  13.869  0.1120  0.8120 -1.4294
 7745TIP3    H244651   0.569   4.590  13.786  0.5565 -0.7895  0.9831
 7746TIP3   OH244652   0.906   4.392  12.687 -1.0882  0.1108  0.4913
 7746TIP3    H144653   0.822   4.357  12.718 -0.4037 -0.9893  1.1775
 7746TIP3    H244654   0.943   4.322  12.633 -0.7381  0.6973 -0.0316
 7747TIP3   OH244655   3.525   6.505  13.793  0.4604  0.2486  0.0246
 7747TIP3    H144656   3.479   6.523  13.711 -0.2421 -3.6657 -0.6042
 7747TIP3    H244657   3.616   6.492  13.767  0.3731 -0.2554 -0.0372
 7748TIP3   OH244658   1.869   5.296  16.196 -0.2192 -0.0312  0.1941
 7748TIP3    H144659   1.897   5.248  16.118 -0.8416 -0.6242  0.3266
 7748TIP3    H244660   1.878   5.234  16.268  1.5318  0.8974  0.8278
 7749TIP3   OH244661   5.145   6.199  16.744  0.0170  0.4189  0.3379
 7749TIP3    H144662   5.231   6.236  16.728  0.5123 -0.3590  1.0997
 7749TIP3    H244663   5.133   6.208  16.839 -1.0908  1.2509  0.1390
 7750TIP3   OH244664   6.056   4.151  17.117 -0.2169  0.0827  0.6884
 7750TIP3    H144665   6.018   4.153  17.029  1.5799  0.4165 -0.1286
 7750TIP3    H244666   6.021   4.072  17.157 -0.7211 -0.3046 -0.4877
 7751TIP3   OH244667   3.511   5.279  15.355 -0.0727  0.0157  0.8054
 7751TIP3    H144668   3.557   5.348  15.402 -0.5859  1.0966 -0.2409
 7751TIP3    H244669   3.419   5.292  15.378 -0.6561  1.9733 -2.0939
 7752TIP3   OH244670   3.661   4.070  11.938 -0.3931 -0.5176  0.1870
 7752TIP3    H144671   3.654   4.032  11.851 -0.5483 -0.5680  0.2219
 7752TIP3    H244672   3.730   4.020  11.981 -0.8080 -0.9565  0.3367
 7753TIP3   OH244673   2.647   5.498  14.122 -0.0547  0.3713  0.0046
 7753TIP3    H144674   2.661   5.464  14.034  0.9797 -1.2802  0.7563
 7753TIP3    H244675   2.627   5.421  14.175  0.4504  1.1620  1.4239
 7754TIP3   OH244676   6.314   2.993   1.696  0.6921  0.1605  0.3184
 7754TIP3    H144677   6.387   2.976   1.756 -0.6742 -0.7839  1.7769
 7754TIP3    H244678   6.237   2.997   1.752 -0.6973 -1.0685 -1.3932
 7755TIP3   OH244679   2.808   0.628   4.158  0.3271 -0.3365 -0.2529
 7755TIP3    H144680   2.853   0.676   4.087  1.0524 -0.2133  0.2727
 7755TIP3    H244681   2.715   0.634   4.135  0.5780 -0.7707 -1.4858
 7756TIP3   OH244682   4.803   2.681   2.937  0.2435  0.9234  0.2812
 7756TIP3    H144683   4.818   2.658   3.029 -2.0166  1.7344  0.9271
 7756TIP3    H244684   4.710   2.705   2.934  0.0458  0.0587 -2.4179
 7757TIP3   OH244685   0.880   1.101   1.095  0.8840  0.5420  0.3065
 7757TIP3    H144686   0.902   1.159   1.168  1.0569  1.3495 -0.3686
 7757TIP3    H244687   0.930   1.137   1.021  1.2151 -0.6423 -0.0559
 7758TIP3   OH244688   3.983   5.772   1.172  0.0184  0.9214 -0.0173
 7758TIP3    H144689   3.966   5.862   1.145  1.2966  1.5973  1.2909
 7758TIP3    H244690   3.915   5.753   1.236 -1.5196  0.1761 -1.7832
 7759TIP3   OH244691   1.890   2.447  15.061 -0.2345 -0.4024 -0.0591
 7759TIP3    H144692   1.829   2.468  15.131 -1.3205 -1.5388 -0.6434
 7759TIP3    H244693   1.970   2.493  15.086 -0.7961 -0.2216  1.5736
 7760TIP3   OH244694   5.822   3.314   5.549 -0.3498 -0.3076 -0.1557
 7760TIP3    H144695   5.806   3.394   5.599  0.2714 -1.5449  2.1790
 7760TIP3    H244696   5.885   3.340   5.482 -0.9247  1.3606 -0.0949
 7761TIP3   OH244697   6.320   4.534  14.178  0.6707  0.0739  0.0616
 7761TIP3    H144698   6.285   4.476  14.111 -0.2504  1.4881 -0.7525
 7761TIP3    H244699   6.252   4.539  14.244  0.5485  0.5442 -0.0908
 7762TIP3   OH244700   3.289   2.456   3.981 -0.4855  0.1886  0.4991
 7762TIP3    H144701   3.353   2.417   4.040 -1.4041 -0.3875  1.1215
 7762TIP3    H244702   3.215   2.480   4.037  0.0271  2.8803  0.1751
 7763TIP3   OH244703   6.335   5.690  16.950  0.5193 -0.0704  0.1603
 7763TIP3    H144704   6.416   5.718  16.993  0.5035  1.2038 -0.5725
 7763TIP3    H244705   6.352   5.600  16.924  1.0067 -0.4382  1.6502
 7764TIP3   OH244706   0.364   6.566   6.067 -0.1275  0.3789 -0.3009
 7764TIP3    H144707   0.292   6.503   6.065 -0.1838  0.4625 -1.4106
 7764TIP3    H244708   0.405   6.551   6.152 -1.6198  0.5281  0.4895
 7765TIP3   OH244709   5.456   1.453   0.810  0.1646  0.0411  0.7326
 7765TIP3    H144710   5.363   1.474   0.795  0.5359  1.5741  0.4031
 7765TIP3    H244711   5.497   1.464   0.724  0.7387 -0.1095  0.9845
 7766TIP3   OH244712   0.758   2.780  11.029  0.3117 -0.2329 -0.1793
 7766TIP3    H144713   0.756   2.722  11.105  1.1640  0.5263  0.4538
 7766TIP3    H244714   0.720   2.729  10.958  1.0719 -1.5658  0.3382
 7767TIP3   OH244715   4.746   0.810  12.201 -0.0665  0.1558 -0.4073
 7767TIP3    H144716   4.696   0.778  12.126 -1.8658 -0.0577  0.8120
 7767TIP3    H244717   4.736   0.905  12.198  1.9659  0.3877 -1.7905
 7768TIP3   OH244718   2.699   2.119  15.337 -0.1631  0.5234  0.4402
 7768TIP3    H144719   2.682   2.050  15.400 -1.2277 -0.4244 -0.8276
 7768TIP3    H244720   2.632   2.185  15.355 -1.0073 -0.1349 -0.2211
 7769TIP3   OH244721   4.805   3.603   3.869 -0.1094 -0.2736  0.5357
 7769TIP3    H144722   4.893   3.641   3.861  0.0643 -0.5212  1.2213
 7769TIP3    H244723   4.746   3.679   3.866  0.0760 -0.1581 -0.5815
 7770TIP3   OH244724   6.219   3.947  13.179 -0.0544  0.0648 -0.1917
 7770TIP3    H144725   6.142   3.986  13.221 -0.9471  0.7171 -2.2915
 7770TIP3    H244726   6.211   3.972  13.087  0.9715 -2.5599 -1.0868
 7771TIP3   OH244727   3.378   4.164   5.946  0.0089 -0.0325 -0.5079
 7771TIP3    H144728   3.312   4.158   6.015  1.1867 -2.2863  0.5526
 7771TIP3    H244729   3.460   4.141   5.990  0.6292 -2.8759 -2.8156
 7772TIP3   OH244730   4.943   1.595   3.681  0.3459  0.4020 -0.7852
 7772TIP3    H144731   5.011   1.570   3.618  0.0258  0.8487 -1.3139
 7772TIP3    H244732   4.861   1.565   3.643  0.0059  1.7988 -1.2096
 7773TIP3   OH244733   5.407   5.516  13.800 -0.1667 -0.4282  0.0292
 7773TIP3    H144734   5.432   5.572  13.874 -0.0372  1.2703 -1.2497
 7773TIP3    H244735   5.486   5.466  13.781  0.1662 -0.0063  0.2837
 7774TIP3   OH244736   6.338   3.126  13.438  0.6414  0.3793 -1.0554
 7774TIP3    H144737   6.375   3.096  13.355 -1.0306 -0.3243 -1.5722
 7774TIP3    H244738   6.270   3.063  13.460  0.1772  1.2587  0.2008
 7775TIP3   OH244739   4.469   1.911  15.443 -0.0178 -0.0859 -0.1975
 7775TIP3    H144740   4.560   1.893  15.421  0.5761  3.8011 -1.5255
 7775TIP3    H244741   4.426   1.923  15.359 -1.0734  1.0176  0.4742
 7776TIP3   OH244742   6.117   6.194  12.132  0.5873  0.1765 -0.2632
 7776TIP3    H144743   6.178   6.121  12.140 -2.1861 -2.3570 -0.5944
 7776TIP3    H244744   6.092   6.196  12.040  0.1925  1.1977 -0.1548
 7777TIP3   OH244745   4.860   3.663  16.999  0.0038 -0.0715  0.2453
 7777TIP3    H144746   4.834   3.744  16.956  1.2438 -0.4176 -1.2367
 7777TIP3    H244747   4.907   3.693  17.078  0.5523  0.6665 -0.3436
 7778TIP3   OH244748   5.039   6.697  13.285 -0.2465 -0.1579 -0.1335
 7778TIP3    H144749   4.945   6.684  13.269  0.0456 -0.0979 -2.1573
 7778TIP3    H244750   5.049   6.791  13.294 -0.1397  0.0682 -2.1063
 7779TIP3   OH244751   5.943   6.401  13.768  0.2441  1.2101  0.1723
 7779TIP3    H144752   5.898   6.365  13.844 -1.2707  1.0268 -0.7778
 7779TIP3    H244753   6.029   6.358  13.769 -0.2626  0.1597  0.9877
 7780TIP3   OH244754   1.457   2.084  16.619 -0.5122  0.1931 -0.3799
 7780TIP3    H144755   1.434   2.151  16.555 -0.5394  1.2977  0.7463
 7780TIP3    H244756   1.492   2.133  16.694 -0.2146 -1.0744  0.3412
 7781TIP3   OH244757   2.508   2.983   5.999 -0.3259 -0.1841 -0.1819
 7781TIP3    H144758   2.587   3.001   5.947 -0.0347 -0.7480  0.0676
 7781TIP3    H244759   2.522   3.032   6.080  0.8122 -2.0714  0.8144
 7782TIP3   OH244760   5.618   1.611  16.280 -0.3921  0.4405 -0.2341
 7782TIP3    H144761   5.537   1.615  16.332 -0.3528 -1.8989  0.1329
 7782TIP3    H244762   5.680   1.667  16.326 -0.9855  0.0292  1.0979
 7783TIP3   OH244763   1.794   6.313  13.133  0.7026 -0.4121  0.0250
 7783TIP3    H144764   1.746   6.247  13.183  0.7182 -0.6261 -0.2437
 7783TIP3    H244765   1.831   6.372  13.200 -2.6510  1.7236  0.2129
 7784TIP3   OH244766   2.796   6.279  17.042 -0.0154  0.1015 -0.3466
 7784TIP3    H144767   2.712   6.234  17.034 -0.0413  0.1873 -0.5602
 7784TIP3    H244768   2.775   6.365  17.078 -0.0112  0.0915 -0.3212
 7785TIP3   OH244769   2.731   1.546   3.774 -0.1633  0.0134 -0.1377
 7785TIP3    H144770   2.792   1.486   3.815  0.4177  0.6441 -0.0557
 7785TIP3    H244771   2.648   1.499   3.772 -0.0780 -0.2348  1.2643
 7786TIP3   OH244772   5.579   3.030  14.563  0.2803  0.0274  0.0248
 7786TIP3    H144773   5.601   3.049  14.654 -0.4487  1.3042 -0.0362
 7786TIP3    H244774   5.529   2.948  14.566 -0.4145  0.4723  0.8684
 7787TIP3   OH244775   2.257   4.082  13.205  0.3988  0.1929 -0.2459
 7787TIP3    H144776   2.233   4.045  13.289  1.3043  0.6276  0.2223
 7787TIP3    H244777   2.245   4.011  13.142  0.6894 -0.4324  0.4073
 7788TIP3   OH244778   4.873   5.012   6.708 -0.1364  0.8512  0.0787
 7788TIP3    H144779   4.859   5.068   6.632  1.6002  1.4046  0.1241
 7788TIP3    H244780   4.848   5.066   6.783 -2.2182  0.1749 -0.0697
 7789TIP3   OH244781   0.030   1.129  13.435  1.7116 -0.5104  0.6082
 7789TIP3    H144782   0.100   1.123  13.370 -1.1593 -0.6658 -2.7648
 7789TIP3    H244783   0.021   1.039  13.468  1.6761 -0.9798 -0.6242
 7790TIP3   OH244784   0.431   5.461   2.718  0.6764  0.0744 -0.6153
 7790TIP3    H144785   0.486   5.415   2.655  2.1280 -1.2150  1.4773
 7790TIP3    H244786   0.399   5.393   2.777 -0.7189  1.2034  0.0058
 7791TIP3   OH244787   4.072   1.876   5.627  0.4840 -0.7413  0.4847
 7791TIP3    H144788   3.983   1.910   5.617  0.6920  0.0746  1.2412
 7791TIP3    H244789   4.061   1.781   5.628 -0.2730 -0.6772 -0.2870
 7792TIP3   OH244790   4.037   1.868  14.988  0.0026 -0.1587  0.0164
 7792TIP3    H144791   4.057   1.810  14.915 -0.5062 -0.9505  0.4875
 7792TIP3    H244792   4.101   1.938  14.981  0.5471 -0.7062 -0.6496
 7793TIP3   OH244793   1.914   3.745  15.755  0.1827  0.0504  0.2258
 7793TIP3    H144794   1.903   3.840  15.765 -0.4183 -0.0596  0.6264
 7793TIP3    H244795   1.875   3.708  15.834 -0.7856 -0.6032 -0.5454
 7794TIP3   OH244796   3.320   3.749   5.786 -0.0206  0.1612 -0.3403
 7794TIP3    H144797   3.346   3.724   5.875  0.1984  1.7206  0.0654
 7794TIP3    H244798   3.232   3.786   5.797 -0.2002 -0.1090 -0.8546
 7795TIP3   OH244799   1.039   0.688  12.692  0.3437  0.1114 -0.0891
 7795TIP3    H144800   1.123   0.686  12.646  1.7610  2.5284  2.1292
 7795TIP3    H244801   0.976   0.658  12.627  2.4842  1.1121 -2.8551
 7796TIP3   OH244802   5.421   0.876   2.415  0.3876 -0.1501  0.2979
 7796TIP3    H144803   5.423   0.796   2.363 -1.2333 -1.2942  1.8510
 7796TIP3    H244804   5.331   0.881   2.448  1.1039  0.9317  2.2681
 7797TIP3   OH244805   1.016   1.939   3.836 -0.4374 -0.0419  0.6476
 7797TIP3    H144806   1.104   1.978   3.834 -0.1860 -0.6014 -1.2951
 7797TIP3    H244807   1.030   1.852   3.874 -0.3491  0.2875  1.3826
 7798TIP3   OH244808   6.108   3.275  15.388  0.0869  0.4079  1.0347
 7798TIP3    H144809   6.035   3.216  15.408 -0.2683  0.4178 -0.1883
 7798TIP3    H244810   6.081   3.360  15.425  0.7587 -0.2315  3.1202
 7799TIP3   OH244811   2.412   1.828   2.373 -0.4932 -0.4902  0.0134
 7799TIP3    H144812   2.422   1.919   2.346  2.0443 -0.4853  0.6996
 7799TIP3    H244813   2.379   1.833   2.462 -0.6216 -0.2514 -0.0470
 7800TIP3   OH244814   2.530   0.369  13.735 -0.1166  0.6901  0.2058
 7800TIP3    H144815   2.529   0.309  13.810 -1.1713  3.5149  2.6478
 7800TIP3    H244816   2.439   0.369  13.704 -0.2303  1.3540  0.5270
 7801TIP3   OH244817   6.667   2.259   0.851 -0.0579  0.2213  0.4557
 7801TIP3    H144818   6.602   2.228   0.914 -1.4297  0.5467 -0.7420
 7801TIP3    H244819   6.652   2.354   0.847 -0.1868  0.1684 -0.5474
 7802TIP3   OH244820   2.941   1.254   3.196  0.1895  0.0703 -0.2959
 7802TIP3    H144821   2.899   1.168   3.197  1.2189 -0.4505  0.6551
 7802TIP3    H244822   2.889   1.308   3.255  1.2894 -0.8195  1.5758
 7803TIP3   OH244823   2.428   0.707  17.028  0.8574  0.4980 -0.1564
 7803TIP3    H144824   2.507   0.703  17.082  1.0292 -1.3615 -0.4737
 7803TIP3    H244825   2.459   0.740  16.943  1.2317  0.2037 -0.1391
 7804TIP3   OH244826   6.019   0.291   3.529 -0.2670  0.4581 -0.4507
 7804TIP3    H144827   5.931   0.327   3.517 -0.8444 -0.1057  1.6740
 7804TIP3    H244828   6.076   0.367   3.526 -1.0564  1.0975  0.0896
 7805TIP3   OH244829   4.611   1.324   4.080 -0.3750  0.0934  0.5819
 7805TIP3    H144830   4.654   1.332   3.995 -0.8651  0.0953  0.3310
 7805TIP3    H244831   4.607   1.229   4.096  0.9000  0.1182  1.2238
 7806TIP3   OH244832   0.421   0.542  11.673 -0.1322 -0.6117  0.2213
 7806TIP3    H144833   0.490   0.488  11.712  0.2142  0.7781  1.6185
 7806TIP3    H244834   0.361   0.560  11.745 -0.8952 -0.1448 -0.5125
 7807TIP3   OH244835   3.879   4.237  14.839 -0.3539  0.0043  0.5674
 7807TIP3    H144836   3.972   4.253  14.853 -0.1995 -0.0043 -0.3586
 7807TIP3    H244837   3.857   4.291  14.763 -0.8720 -0.7520  0.1691
 7808TIP3   OH244838   4.313   6.538   0.030 -0.1833 -0.3304  0.0769
 7808TIP3    H144839   4.398   6.521  -0.010 -0.1981 -0.7540  0.2177
 7808TIP3    H244840   4.283   6.452   0.059 -0.4355 -0.1117  0.4710
 7809TIP3   OH244841   3.071   4.729   4.611 -0.3357 -0.2836 -0.0114
 7809TIP3    H144842   3.081   4.652   4.666 -0.8333 -2.0299 -2.2172
 7809TIP3    H244843   2.979   4.731   4.587 -0.1753  0.5288 -0.6329
 7810TIP3   OH244844   2.785   2.722   4.486  0.2914 -0.2510  0.5700
 7810TIP3    H144845   2.860   2.776   4.461 -0.9244  2.1393  1.7158
 7810TIP3    H244846   2.749   2.765   4.564 -0.8216 -2.7450  1.5344
 7811TIP3   OH244847   5.281   2.586   5.983  0.4489 -0.0688  0.2842
 7811TIP3    H144848   5.345   2.657   5.980  0.1957  0.1448 -0.1190
 7811TIP3    H244849   5.297   2.543   6.067  1.0924  0.0103  0.2091
 7812TIP3   OH244850   4.776   1.029   3.992 -0.0930 -0.7359  0.2430
 7812TIP3    H144851   4.817   1.009   4.076  0.5227 -1.7143 -0.2666
 7812TIP3    H244852   4.701   0.969   3.987 -0.9852  0.3102  0.7044
 7813TIP3   OH244853   4.019   3.782   4.760 -0.1041  0.1410  0.5460
 7813TIP3    H144854   4.105   3.744   4.778  0.6193  0.6067 -1.6348
 7813TIP3    H244855   4.020   3.867   4.804  0.2746 -0.1441  1.0967
 7814TIP3   OH244856   4.801   6.735  15.654  0.4066 -0.2678 -0.0883
 7814TIP3    H144857   4.855   6.802  15.696  0.6641 -0.6362  0.1824
 7814TIP3    H244858   4.737   6.784  15.603 -0.4424  0.2299  1.3872
 7815TIP3   OH244859   0.631   1.608   1.113  0.0370 -0.1668 -0.0248
 7815TIP3    H144860   0.586   1.580   1.193  0.7038  1.6109  1.0213
 7815TIP3    H244861   0.601   1.697   1.099  0.4241 -0.2402 -1.4188
 7816TIP3   OH244862   5.665   3.395   4.813 -0.0541 -0.2916  0.1221
 7816TIP3    H144863   5.730   3.409   4.882  0.0009 -1.6856  0.3939
 7816TIP3    H244864   5.634   3.482   4.791 -0.4668  0.1715  2.3002
 7817TIP3   OH244865   4.078   2.236  13.388 -0.6664 -0.2243 -0.3287
 7817TIP3    H144866   4.096   2.255  13.296  0.0985 -0.5177 -0.2443
 7817TIP3    H244867   4.100   2.317  13.434 -2.2086  0.3414 -0.5218
 7818TIP3   OH244868   2.606   6.608   0.876 -0.0019  0.0465  0.3017
 7818TIP3    H144869   2.546   6.537   0.853  0.9413 -0.7070  0.1134
 7818TIP3    H244870   2.651   6.629   0.794  1.2766 -0.6430  0.8033
 7819TIP3   OH244871   3.196   3.721  15.894  0.5168 -0.0091  0.4168
 7819TIP3    H144872   3.192   3.776  15.816  1.2519  1.0317  1.0776
 7819TIP3    H244873   3.236   3.639  15.864  3.3420  1.3460  0.1468
 7820TIP3   OH244874   3.768   3.536  14.170  0.5029  0.1767  0.2566
 7820TIP3    H144875   3.811   3.469  14.116  0.3292  0.4778 -0.2623
 7820TIP3    H244876   3.703   3.575  14.111  1.6412  1.8666  0.0756
 7821TIP3   OH244877   1.571   2.360  15.504 -0.1125 -0.3345  0.7549
 7821TIP3    H144878   1.534   2.406  15.579  2.1622  1.8091  0.6911
 7821TIP3    H244879   1.583   2.428  15.438  2.7444 -1.0697  0.3783
 7822TIP3   OH244880   1.184   2.996  11.663  0.0314 -0.0891 -0.3661
 7822TIP3    H144881   1.265   3.032  11.627 -1.1426  1.4106 -1.6385
 7822TIP3    H244882   1.144   3.069  11.710  0.0831 -1.2151  1.5283
 7823TIP3   OH244883   4.810   1.771  12.065  0.0299 -0.1622  0.0164
 7823TIP3    H144884   4.735   1.808  12.019 -0.4384 -2.7251 -1.4282
 7823TIP3    H244885   4.884   1.787  12.008 -0.0114 -0.6059 -0.1642
 7824TIP3   OH244886   1.974   2.006   5.634  0.1604 -0.6915  0.4053
 7824TIP3    H144887   1.963   2.080   5.574  0.5975 -0.3892  0.6979
 7824TIP3    H244888   1.922   2.030   5.711  0.8456 -0.3760  0.7782
 7825TIP3   OH244889   5.803   0.454   3.495  0.0271  0.6136 -0.7764
 7825TIP3    H144890   5.790   0.533   3.441 -0.1899  0.2335 -1.2940
 7825TIP3    H244891   5.730   0.456   3.557  0.6880  1.4444  0.0104
 7826TIP3   OH244892   3.189   2.311   2.476  0.0241  0.1508  0.6646
 7826TIP3    H144893   3.154   2.355   2.399 -0.0437 -0.3194  0.4238
 7826TIP3    H244894   3.255   2.372   2.510  0.9749 -0.1822 -0.5057
 7827TIP3   OH244895   4.047   0.686   2.185 -0.0519  0.4969 -0.3075
 7827TIP3    H144896   4.117   0.705   2.248 -0.7348  0.9743  0.3259
 7827TIP3    H244897   4.087   0.625   2.123  0.7872  0.4068  0.2988
 7828TIP3   OH244898   3.364   6.638  14.096 -0.1744  0.4107  0.1160
 7828TIP3    H144899   3.414   6.588  14.032 -0.9981 -1.0245  0.5475
 7828TIP3    H244900   3.335   6.574  14.160 -3.6137  0.8808 -0.7587
 7829TIP3   OH244901   4.949   4.129   6.099  0.2047  0.1843  0.0063
 7829TIP3    H144902   5.016   4.169   6.044 -0.1764 -0.0443 -0.6310
 7829TIP3    H244903   4.998   4.088   6.171  0.7610 -0.0841 -0.5141
 7830TIP3   OH244904   0.903   1.921  16.646  0.9817  0.2822 -0.1941
 7830TIP3    H144905   0.959   1.998  16.656 -0.5510  1.3386  0.3997
 7830TIP3    H244906   0.820   1.955  16.614 -0.0446 -0.9990  0.9841
 7831TIP3   OH244907   3.374   4.372  16.833 -0.1317 -0.5371 -0.2616
 7831TIP3    H144908   3.435   4.347  16.902 -1.8721 -2.3203  0.7382
 7831TIP3    H244909   3.301   4.311  16.842 -0.3589 -1.0109 -3.8418
 7832TIP3   OH244910   4.804   1.986   5.108 -0.1584  0.2044  0.0655
 7832TIP3    H144911   4.817   2.041   5.185 -1.4671  0.3846  0.1809
 7832TIP3    H244912   4.881   2.001   5.054 -1.4665  3.9889 -1.0286
 7833TIP3   OH244913   3.152   3.107  12.879  0.2941 -0.3640  0.0448
 7833TIP3    H144914   3.124   3.029  12.832 -1.1015 -0.3938  0.8735
 7833TIP3    H244915   3.071   3.146  12.913  1.0895  0.6220  0.9122
 7834TIP3   OH244916   6.214   0.910   3.742  0.7239  0.2214  0.4555
 7834TIP3    H144917   6.277   0.864   3.687  1.2466  1.2469  0.1667
 7834TIP3    H244918   6.130   0.872   3.719  0.8097  1.1948 -1.7199
 7835TIP3   OH244919   4.953   0.925   5.416 -0.4659 -0.1111  0.1827
 7835TIP3    H144920   4.942   0.943   5.322  1.7173  0.2550 -0.0428
 7835TIP3    H244921   5.036   0.878   5.422 -0.7028 -0.3772  1.9352
 7836TIP3   OH244922   2.037   5.695  14.717 -0.5194 -0.3997 -0.0875
 7836TIP3    H144923   1.956   5.744  14.734 -0.8173 -1.2943  1.1660
 7836TIP3    H244924   2.079   5.686  14.802  1.3785  0.7828 -0.8293
 7837TIP3   OH244925   1.919   4.657  11.155 -0.2420 -0.3913 -0.4104
 7837TIP3    H144926   1.978   4.704  11.215  0.0094 -0.3854 -0.6576
 7837TIP3    H244927   1.978   4.620  11.089 -0.5733  0.1791 -1.0417
 7838TIP3   OH244928   0.715   4.717   1.109  0.0506 -0.0487 -0.1880
 7838TIP3    H144929   0.685   4.656   1.177  0.0409  1.3680  1.1480
 7838TIP3    H244930   0.804   4.690   1.090 -0.1506 -0.8310 -0.0436
 7839TIP3   OH244931   0.481   1.474   3.462  0.3008  0.0399 -0.0704
 7839TIP3    H144932   0.402   1.430   3.431 -0.1876  1.5480 -1.1059
 7839TIP3    H244933   0.456   1.566   3.468  2.2966  0.7596 -1.6664
 7840TIP3   OH244934   6.395   6.680   4.066  0.1342 -0.3710  0.6260
 7840TIP3    H144935   6.386   6.775   4.062 -0.5182 -0.4581 -0.5019
 7840TIP3    H244936   6.485   6.663   4.039  0.1871 -0.0824  0.6144
 7841TIP3   OH244937   1.237   0.839   1.754 -0.3450  0.0364  0.4343
 7841TIP3    H144938   1.318   0.885   1.733  0.2691 -0.8502  0.8291
 7841TIP3    H244939   1.169   0.905   1.741  0.6412  1.6579  2.7235
 7842TIP3   OH244940   4.663   6.314  11.139 -0.1109  0.0457  0.4091
 7842TIP3    H144941   4.739   6.356  11.099  0.9583 -1.5978  0.6078
 7842TIP3    H244942   4.652   6.359  11.223  1.2239 -0.2597  0.7769
 7843TIP3   OH244943   2.515   3.528   2.452 -0.2909 -0.0523  0.1203
 7843TIP3    H144944   2.441   3.489   2.500  0.0101 -1.7510 -0.6978
 7843TIP3    H244945   2.555   3.588   2.514 -0.8017 -1.0769  1.4933
 7844TIP3   OH244946   0.578   4.520   1.254 -0.1336  0.0916 -0.0633
 7844TIP3    H144947   0.497   4.510   1.304 -1.3299  0.1652 -1.8936
 7844TIP3    H244948   0.631   4.445   1.281 -0.8476 -0.0381  1.0747
 7845TIP3   OH244949   3.186   0.200  14.344 -0.1680 -0.1136  0.5202
 7845TIP3    H144950   3.268   0.150  14.337  1.0851  1.9801 -0.9303
 7845TIP3    H244951   3.120   0.141  14.308  1.3022 -0.6953 -1.4302
 7846TIP3   OH244952   3.985   1.603  15.818  0.1080 -0.5097 -0.4281
 7846TIP3    H144953   3.916   1.553  15.862 -0.6160  0.5656 -0.3179
 7846TIP3    H244954   3.941   1.641  15.742  0.7838 -0.4561 -0.7944
 7847TIP3   OH244955   0.659   3.685   1.279 -0.3910 -0.1756 -0.3429
 7847TIP3    H144956   0.752   3.686   1.303 -0.7833  1.0396  1.2872
 7847TIP3    H244957   0.652   3.747   1.207  0.6423 -3.1538 -3.2879
 7848TIP3   OH244958   6.168   6.241  13.718  0.4206  0.1909  0.0526
 7848TIP3    H144959   6.228   6.200  13.780 -0.5660  0.1793  1.0254
 7848TIP3    H244960   6.104   6.173  13.698 -1.5220  1.2992  2.0606
 7849TIP3   OH244961   6.667   1.477  15.983  0.0129 -0.3425  0.6931
 7849TIP3    H144962   6.748   1.528  15.976  0.0084 -0.4746 -0.5649
 7849TIP3    H244963   6.606   1.521  15.923 -0.7215 -0.5079  1.2938
 7850TIP3   OH244964   2.528   2.739   0.263 -0.0408  0.5888 -0.5846
 7850TIP3    H144965   2.538   2.669   0.328 -0.7760 -1.4104 -2.4882
 7850TIP3    H244966   2.450   2.787   0.291  0.1335  0.3024  0.4471
 7851TIP3   OH244967   4.688   0.721  12.613 -0.0486  0.3074 -0.5557
 7851TIP3    H144968   4.674   0.652  12.678  2.0556 -0.1520 -0.5193
 7851TIP3    H244969   4.662   0.802  12.658 -0.1714 -0.1828  0.2770
 7852TIP3   OH244970   0.119   6.354  13.670  0.3772  0.6324  0.0446
 7852TIP3    H144971   0.039   6.396  13.639 -0.4702 -1.0907 -0.2356
 7852TIP3    H244972   0.096   6.261  13.677  1.7746  0.3661  1.8729
 7853TIP3   OH244973   5.390   2.140  16.341  0.1232 -0.1386 -0.0794
 7853TIP3    H144974   5.388   2.079  16.267 -0.1235 -0.6843  0.3691
 7853TIP3    H244975   5.304   2.130  16.383 -0.9029  2.2979 -1.3952
 7854TIP3   OH244976   5.861   1.750  16.289  0.1668  0.3579  0.2188
 7854TIP3    H144977   5.884   1.662  16.258 -1.0007 -0.6735  2.0819
 7854TIP3    H244978   5.918   1.764  16.365 -0.0871  0.9582  0.3011
 7855TIP3   OH244979   1.514   2.464  12.895  0.1728 -0.2691  0.2222
 7855TIP3    H144980   1.489   2.398  12.959 -1.6265  2.0687  2.0980
 7855TIP3    H244981   1.433   2.486  12.849  0.5288  1.2211  0.2530
 7856TIP3   OH244982   2.350   4.898  11.728 -0.4102 -0.2087  0.0507
 7856TIP3    H144983   2.392   4.852  11.655  1.4916  0.5546  0.5990
 7856TIP3    H244984   2.264   4.922  11.694  1.4387  2.9223 -3.2339
 7857TIP3   OH244985   1.420   6.046  14.378  0.5886  0.2141 -0.2960
 7857TIP3    H144986   1.505   6.020  14.344 -0.6643 -3.0551 -1.2782
 7857TIP3    H244987   1.405   5.991  14.454 -1.5493 -1.0625 -1.5191
 7858TIP3   OH244988   0.536   3.231   3.171  0.4185 -0.4773 -0.3194
 7858TIP3    H144989   0.493   3.301   3.121 -1.1094 -0.9969  0.2282
 7858TIP3    H244990   0.614   3.273   3.208 -0.9469  1.2418  0.7821
 7859TIP3   OH244991   4.916   2.794   4.735  0.4803 -0.2633 -0.4764
 7859TIP3    H144992   4.943   2.729   4.670 -0.1638  0.4117 -1.4643
 7859TIP3    H244993   4.894   2.743   4.813  0.7169 -1.1545 -0.9819
 7860TIP3   OH244994   3.472   0.719  13.937 -0.4101 -0.0833  0.1277
 7860TIP3    H144995   3.472   0.785  14.006  1.0654  0.2994 -0.2155
 7860TIP3    H244996   3.383   0.682  13.940 -0.1646 -0.7213  2.8238
 7861TIP3   OH244997   0.467   6.065  17.016 -0.5663  0.3867  0.1979
 7861TIP3    H144998   0.483   6.083  17.109 -1.6807 -0.4371  0.5663
 7861TIP3    H244999   0.374   6.083  17.004 -0.9402 -1.6371 -0.2339
 7862TIP3   OH245000   4.909   1.048  11.075 -0.3438 -0.3363 -0.0667
 7862TIP3    H145001   4.869   1.065  10.990  2.2894  1.3354 -1.1136
 7862TIP3    H245002   4.994   1.008  11.054  0.8552  1.1133  1.6447
 7863TIP3   OH245003   5.409   4.781  16.290 -0.5174  0.0823 -0.2369
 7863TIP3    H145004   5.498   4.755  16.312  0.1208  0.9645 -1.6605
 7863TIP3    H245005   5.358   4.700  16.301  0.2628 -0.2121  1.4628
 7864TIP3   OH245006   5.138   4.393   3.654  0.0050 -0.7111  0.4375
 7864TIP3    H145007   5.224   4.368   3.619 -0.3045 -1.5977  0.2796
 7864TIP3    H245008   5.094   4.309   3.670  0.0951 -0.3566  2.9057
 7865TIP3   OH245009   4.534   3.655   1.150  0.6032 -0.6011 -0.0241
 7865TIP3    H145010   4.508   3.662   1.058  0.4428  0.1305  0.0689
 7865TIP3    H245011   4.599   3.585   1.152  1.4658  0.1575 -0.8882
 7866TIP3   OH245012   4.203   4.469  17.037  0.0234  0.1387 -0.5504
 7866TIP3    H145013   4.255   4.408  16.984 -1.2037 -0.0001 -1.6491
 7866TIP3    H245014   4.243   4.555  17.021  1.0757 -0.2104  0.1324
 7867TIP3   OH245015   5.332   5.732   4.626 -0.4252 -0.6031 -0.3838
 7867TIP3    H145016   5.379   5.757   4.546 -0.3392  1.0227  0.1406
 7867TIP3    H245017   5.277   5.808   4.646  0.9977 -0.1581  2.1816
 7868TIP3   OH245018   0.404   2.023  13.180 -0.1574  0.4127  0.3376
 7868TIP3    H145019   0.399   2.070  13.263 -2.6783  1.7160 -0.4297
 7868TIP3    H245020   0.361   1.939  13.198 -0.9422  0.7998  0.3174
 7869TIP3   OH245021   2.553   5.375   5.542 -0.6785  0.4181 -0.1112
 7869TIP3    H145022   2.516   5.397   5.627  0.0073  0.0611  0.2904
 7869TIP3    H245023   2.554   5.458   5.494 -0.2168  0.8137  0.5643
 7870TIP3   OH245024   5.207   4.036  17.173  0.7413  0.1615  0.1786
 7870TIP3    H145025   5.245   4.124  17.172 -0.5496  0.7276 -0.3623
 7870TIP3    H245026   5.180   4.023  17.264 -0.8841  1.1480 -0.1346
 7871TIP3   OH245027   3.934   4.637   2.112  0.7271 -0.0632 -0.5617
 7871TIP3    H145028   3.902   4.608   2.026 -0.9328 -1.4173  0.4668
 7871TIP3    H245029   3.926   4.560   2.168 -1.1033  1.5458  1.5747
 7872TIP3   OH245030   1.454   1.899   3.725  0.1948  0.2745  0.2341
 7872TIP3    H145031   1.500   1.951   3.659  3.0672 -0.5620  1.4483
 7872TIP3    H245032   1.417   1.826   3.676  0.2969  0.8803 -0.7772
 7873TIP3   OH245033   0.827   5.201   3.596 -0.6484  0.3114  0.3986
 7873TIP3    H145034   0.826   5.169   3.506 -2.0297 -1.4598  0.9737
 7873TIP3    H245035   0.916   5.184   3.626 -0.4760 -0.0798 -0.3089
 7874TIP3   OH245036   3.640   1.611   4.135  0.5145  0.6315 -0.3505
 7874TIP3    H145037   3.593   1.527   4.135  0.7271  0.4968  0.6024
 7874TIP3    H245038   3.581   1.671   4.089 -0.5884  0.4388  0.7313
 7875TIP3   OH245039   5.463   2.270  12.193 -0.0375  0.3622 -0.0172
 7875TIP3    H145040   5.404   2.321  12.138  0.4502 -0.1289 -1.0338
 7875TIP3    H245041   5.549   2.312  12.183 -0.4840  2.1471  2.8444
 7876TIP3   OH245042   2.205   4.862   3.547  0.0840  0.2261 -0.1413
 7876TIP3    H145043   2.269   4.881   3.478 -0.7841 -1.3731 -1.4873
 7876TIP3    H245044   2.252   4.805   3.608 -0.2044 -1.6828 -1.5912
 7877TIP3   OH245045   2.999   5.203  16.106 -0.1375  0.2321  0.4919
 7877TIP3    H145046   3.090   5.191  16.133  0.6919  0.5250 -1.9944
 7877TIP3    H245047   2.966   5.272  16.164  0.7936 -0.7422  2.2605
 7878TIP3   OH245048   0.619   0.856  13.864  0.1489  0.1467  0.4172
 7878TIP3    H145049   0.641   0.799  13.789  0.9837  0.3610  0.4832
 7878TIP3    H245050   0.613   0.796  13.938 -1.2130 -0.1385  0.0972
 7879TIP3   OH245051   5.513   3.181   0.136  0.4103  0.3809  0.3315
 7879TIP3    H145052   5.562   3.207   0.214 -0.4433 -0.0869  1.0511
 7879TIP3    H245053   5.422   3.199   0.158  0.2728  1.6034 -1.1311
 7880TIP3   OH245054   0.991   2.405   1.270 -0.0196 -0.2023 -0.2725
 7880TIP3    H145055   0.958   2.495   1.274 -0.9313 -0.5363  0.1355
 7880TIP3    H245056   0.964   2.366   1.353  1.5351 -0.4809  0.1396
 7881TIP3   OH245057   0.338   2.029  15.079  0.8366 -0.1794 -0.0017
 7881TIP3    H145058   0.243   2.015  15.085  0.7156  0.7227  0.3548
 7881TIP3    H245059   0.356   2.031  14.985  0.3950  0.2732 -0.0827
 7882TIP3   OH245060   3.028   6.082  15.662 -0.5590 -0.4569  0.3576
 7882TIP3    H145061   3.074   6.068  15.579  0.1761  0.4751  0.5875
 7882TIP3    H245062   3.051   6.006  15.715  2.4516  0.8759  1.2040
 7883TIP3   OH245063   0.476   6.242  12.258 -0.0913 -0.5691 -0.1782
 7883TIP3    H145064   0.571   6.229  12.261  0.0341  0.3820  1.8697
 7883TIP3    H245065   0.452   6.224  12.167  2.2454  0.5941 -1.1131
 7884TIP3   OH245066   3.238   1.347  11.114  0.3131  0.0878  0.0193
 7884TIP3    H145067   3.194   1.329  11.031  1.2598 -0.5391 -0.3718
 7884TIP3    H245068   3.225   1.440  11.129 -0.7243  0.0104 -0.3172
 7885TIP3   OH245069   0.156   2.429   6.393  0.3665 -0.2251 -0.1204
 7885TIP3    H145070   0.068   2.396   6.409  0.5641 -0.5049  0.4092
 7885TIP3    H245071   0.184   2.385   6.313  1.0085 -2.1423  1.1020
 7886TIP3   OH245072   4.659   4.612   1.835 -0.0123 -0.0183  0.3386
 7886TIP3    H145073   4.693   4.592   1.748 -2.0055 -1.0255 -0.2633
 7886TIP3    H245074   4.705   4.551   1.893  0.8020  0.1579 -0.1165
 7887TIP3   OH245075   1.274   0.632  16.760  0.1520  0.2057 -0.4367
 7887TIP3    H145076   1.337   0.561  16.753  0.6074  0.4948  0.5917
 7887TIP3    H245077   1.323   0.711  16.737 -0.1674  0.2895 -0.8575
 7888TIP3   OH245078   2.810   1.891  14.582 -0.0279  0.1785 -0.3573
 7888TIP3    H145079   2.805   1.852  14.669 -1.5131 -1.0030 -0.9393
 7888TIP3    H245080   2.903   1.909  14.569  0.5337 -1.8940  0.5026
 7889TIP3   OH245081   0.958   1.251   0.856 -0.1953 -0.3670  0.2716
 7889TIP3    H145082   0.930   1.341   0.840 -1.4217 -0.7349  0.2520
 7889TIP3    H245083   1.054   1.254   0.850 -0.2744  0.7148 -0.8508
 7890TIP3   OH245084   2.841   1.742  12.541 -0.0693 -0.4536 -0.1108
 7890TIP3    H145085   2.750   1.713  12.549  0.4094 -2.9499 -2.2166
 7890TIP3    H245086   2.841   1.801  12.465  0.1232 -0.8446 -0.4194
 7891TIP3   OH245087   5.318   0.222   1.568 -0.7608 -0.1476 -0.7790
 7891TIP3    H145088   5.279   0.251   1.486 -0.4697 -1.4080 -1.3931
 7891TIP3    H245089   5.247   0.223   1.632 -1.1142  0.3067 -1.1793
 7892TIP3   OH245090   6.308   0.759   2.320  0.1767  0.3430 -0.5520
 7892TIP3    H145091   6.360   0.791   2.246  0.8046  2.8073  0.8188
 7892TIP3    H245092   6.222   0.799   2.308 -0.5444 -1.3286 -1.2427
 7893TIP3   OH245093   2.947   5.153   2.114 -0.5425 -0.6241 -0.6821
 7893TIP3    H145094   2.956   5.213   2.188  1.4232 -0.1781 -1.2361
 7893TIP3    H245095   2.928   5.210   2.040  3.1478 -0.3096 -1.5897
 7894TIP3   OH245096   4.713   0.748   3.848 -0.2740 -0.5321 -0.2293
 7894TIP3    H145097   4.731   0.656   3.868 -0.4291 -0.3111  1.0291
 7894TIP3    H245098   4.671   0.782   3.927 -0.4494  0.5618 -0.7699
 7895TIP3   OH245099   2.858   3.969  15.000 -0.3946  0.3695  0.0722
 7895TIP3    H145100   2.866   4.054  14.957 -2.2323  0.7572  0.3953
 7895TIP3    H245101   2.869   3.987  15.093  1.3870 -0.1201 -0.0182
 7896TIP3   OH245102   1.218   4.661  17.223 -0.0090  0.0469 -0.2741
 7896TIP3    H145103   1.293   4.647  17.166  1.0662 -2.0766  1.5033
 7896TIP3    H245104   1.142   4.634  17.171  0.9868 -2.2231 -0.6483
 7897TIP3   OH245105   4.397   5.187  11.742  0.0407 -0.0220  0.4286
 7897TIP3    H145106   4.369   5.270  11.705  1.4893 -0.0906 -0.9558
 7897TIP3    H245107   4.486   5.174  11.707  1.4902 -0.2207  3.8178
 7898TIP3   OH245108   2.625   4.915   1.504  0.2505  0.1701 -0.8093
 7898TIP3    H145109   2.555   4.953   1.557  1.4547 -0.5353  1.3982
 7898TIP3    H245110   2.631   4.824   1.534  0.2677 -0.6238 -2.9919
 7899TIP3   OH245111   4.973   1.897   2.604  0.4232 -0.1201 -0.0659
 7899TIP3    H145112   5.021   1.954   2.664  0.6508 -0.4307  0.0534
 7899TIP3    H245113   5.007   1.809   2.623 -0.2341 -0.3531  0.0592
 7900TIP3   OH245114   2.457   3.559   0.717  0.0335 -0.1669 -0.1148
 7900TIP3    H145115   2.384   3.515   0.674 -0.6180  1.3683 -0.6812
 7900TIP3    H245116   2.468   3.513   0.800 -1.5887 -0.4396 -0.0246
 7901TIP3   OH245117   0.874   4.188  13.080 -0.5040  0.3189  0.1592
 7901TIP3    H145118   0.951   4.201  13.024  0.8604  0.8875  2.0216
 7901TIP3    H245119   0.908   4.140  13.155 -1.8492  1.0684  1.2966
 7902TIP3   OH245120   6.429   2.126  16.503  0.1977 -0.0698 -0.7062
 7902TIP3    H145121   6.499   2.178  16.544  1.1230 -2.3459  0.8480
 7902TIP3    H245122   6.365   2.112  16.573 -2.2912  2.5244 -2.2770
 7903TIP3   OH245123   3.939   4.621  11.200  0.5224 -0.5076 -0.5234
 7903TIP3    H145124   3.908   4.648  11.115  0.7045 -1.2301 -0.8297
 7903TIP3    H245125   3.877   4.658  11.262  0.5484  0.2555 -0.9469
 7904TIP3   OH245126   1.074   1.092  11.184 -0.5686  0.7926 -0.2107
 7904TIP3    H145127   1.049   1.003  11.209 -0.8390  0.6677 -0.9194
 7904TIP3    H245128   1.026   1.148  11.246  0.0714  0.4330  0.6251
 7905TIP3   OH245129   3.941   1.181   4.755  0.0567  0.4687  0.4682
 7905TIP3    H145130   3.979   1.233   4.825 -1.5671 -0.2293  1.9128
 7905TIP3    H245131   3.997   1.103   4.750  0.9479  1.1059  0.0409
 7906TIP3   OH245132   1.686   1.792  11.827 -0.4419 -0.0807 -0.4162
 7906TIP3    H145133   1.594   1.819  11.825 -0.4572  0.0206  0.6586
 7906TIP3    H245134   1.692   1.736  11.905  0.5507  0.5066 -0.0512
 7907TIP3   OH245135   4.798   4.824  14.841 -0.1168 -0.3368 -0.1195
 7907TIP3    H145136   4.722   4.871  14.808  1.0740  0.0237 -2.5999
 7907TIP3    H245137   4.860   4.893  14.865  0.3619 -0.6219 -0.5167
 7908TIP3   OH245138   1.301   1.278  13.874  0.2007  0.6302 -0.1519
 7908TIP3    H145139   1.352   1.220  13.817  1.7854  2.6202 -0.8885
 7908TIP3    H245140   1.367   1.324  13.926 -1.0769  0.9487  1.2530
 7909TIP3   OH245141   2.325   3.082   3.369  0.2738  0.4755 -0.5956
 7909TIP3    H145142   2.285   3.018   3.427  0.1195  2.9127  2.1958
 7909TIP3    H245143   2.415   3.092   3.401  1.2713 -0.4321 -2.8902
 7910TIP3   OH245144   4.149   6.541  16.585  0.5842  0.7063  0.2294
 7910TIP3    H145145   4.076   6.521  16.644  0.3238 -0.3463 -0.4246
 7910TIP3    H245146   4.151   6.636  16.580  0.0624  0.7801  1.2529
 7911TIP3   OH245147   3.026   5.328   3.568 -0.3228 -0.1614 -0.3468
 7911TIP3    H145148   3.061   5.244   3.598  0.7567  0.5829  0.5379
 7911TIP3    H245149   3.036   5.326   3.473  1.9774 -0.0863 -0.1685
 7912TIP3   OH245150   5.166   5.418  13.938 -0.9242 -0.0036  0.6861
 7912TIP3    H145151   5.119   5.501  13.948 -1.7250 -0.5386  1.3756
 7912TIP3    H245152   5.250   5.444  13.899 -1.7320  0.9725 -0.4976
 7913TIP3   OH245153   4.767   0.437   2.554 -0.0176 -0.0405 -0.0528
 7913TIP3    H145154   4.859   0.411   2.562  0.4355  1.6390  0.7878
 7913TIP3    H245155   4.768   0.532   2.570 -1.9261 -0.0221  0.1709
 7914TIP3   OH245156   5.282   0.066  13.939  0.1048 -0.1201  1.1801
 7914TIP3    H145157   5.319   0.143  13.981 -1.4753  1.3212  0.0490
 7914TIP3    H245158   5.231   0.023  14.007  0.8390 -0.0916  1.7650
 7915TIP3   OH245159   1.144   0.074   3.672  0.4115  0.5915 -0.1905
 7915TIP3    H145160   1.136   0.134   3.598 -2.5121 -1.4676 -1.7264
 7915TIP3    H245161   1.209   0.009   3.644 -1.2978 -0.6625 -1.4131
 7916TIP3   OH245162   0.162   6.065   1.987 -0.5909 -0.3092 -0.0231
 7916TIP3    H145163   0.069   6.085   1.982 -0.3202  0.8431 -0.6386
 7916TIP3    H245164   0.206   6.140   1.948  0.5551 -1.3352 -0.8078
 7917TIP3   OH245165   6.262   4.730  12.765 -0.1343 -0.0780  0.3323
 7917TIP3    H145166   6.344   4.720  12.814 -0.5883 -4.4642  0.6705
 7917TIP3    H245167   6.284   4.700  12.676 -1.1115 -0.1593  0.1104
 7918TIP3   OH245168   5.611   3.221  15.691 -0.6964  0.0385 -0.6078
 7918TIP3    H145169   5.644   3.147  15.740  0.5648  0.6318 -0.5361
 7918TIP3    H245170   5.530   3.189  15.651 -0.5963 -1.1106  0.0745
 7919TIP3   OH245171   5.011   2.426  16.877 -0.2001 -0.1820  0.4034
 7919TIP3    H145172   5.101   2.443  16.849 -0.2144  2.0440  1.4732
 7919TIP3    H245173   4.960   2.495  16.834 -1.2821 -0.9551  0.4281
 7920TIP3   OH245174   1.981   4.616  12.107  0.2346  0.0928  0.2463
 7920TIP3    H145175   2.022   4.697  12.135 -1.0980  0.8072  0.2415
 7920TIP3    H245176   2.029   4.591  12.028  0.1185  1.3739 -0.2677
 7921TIP3   OH245177   5.183   5.588   0.567 -0.1405 -0.0382  0.1386
 7921TIP3    H145178   5.147   5.642   0.636 -1.6125  0.8096 -1.2246
 7921TIP3    H245179   5.275   5.578   0.590 -0.2342  1.5295  1.3690
 7922TIP3   OH245180   1.888   4.521  14.468  0.0790  0.4654  0.1060
 7922TIP3    H145181   1.976   4.557  14.456  0.8776 -0.6676  1.9747
 7922TIP3    H245182   1.901   4.426  14.471 -1.6573  0.0503 -2.4740
 7923TIP3   OH245183   5.188   4.113  13.785  0.1126  0.8920  0.2645
 7923TIP3    H145184   5.228   4.109  13.699  0.3967 -0.3318  0.4320
 7923TIP3    H245185   5.095   4.129  13.767 -0.2661 -1.5729 -0.4440
 7924TIP3   OH245186   5.842   0.568   3.958  0.1282 -0.8759  0.0472
 7924TIP3    H145187   5.839   0.474   3.977 -0.4790 -0.8273  0.1981
 7924TIP3    H245188   5.762   0.604   3.997 -0.1512 -0.4617 -0.8703
 7925TIP3   OH245189   1.844   0.666  13.448  0.4143  0.0558 -0.1644
 7925TIP3    H145190   1.838   0.743  13.505 -0.7926  0.3605 -0.6866
 7925TIP3    H245191   1.830   0.700  13.360  0.4474 -0.6815 -0.4608
 7926TIP3   OH245192   3.238   3.353   3.700  0.0212  0.7747 -0.0903
 7926TIP3    H145193   3.271   3.296   3.770 -1.0669  0.5866  0.2911
 7926TIP3    H245194   3.246   3.442   3.736  1.5086  0.8570 -0.5964
 7927TIP3   OH245195   4.655   3.775  13.760 -0.1765 -0.6509 -0.2719
 7927TIP3    H145196   4.592   3.830  13.713 -2.0984 -1.2015  1.5428
 7927TIP3    H245197   4.601   3.712  13.808  1.8432 -2.1840  0.1115
 7928TIP3   OH245198   4.287   1.131   5.688 -0.1451 -0.1673  0.7166
 7928TIP3    H145199   4.258   1.193   5.755 -0.6876 -0.5346  0.8270
 7928TIP3    H245200   4.353   1.078   5.733  0.4566  0.4319  0.5692
 7929TIP3   OH245201   3.446   4.132  15.385  0.4546  0.0708  0.2341
 7929TIP3    H145202   3.362   4.151  15.343  0.3825 -0.6963  0.0288
 7929TIP3    H245203   3.423   4.096  15.470  0.6014  1.4320  0.8868
 7930TIP3   OH245204   2.184   1.424   4.280  0.4027 -0.4406 -0.3321
 7930TIP3    H145205   2.154   1.473   4.356  0.8892  2.5277 -1.9293
 7930TIP3    H245206   2.279   1.421   4.288  0.3328 -2.3915  0.3986
 7931TIP3   OH245207   6.070   1.373   1.138  0.4089  0.0231  0.7333
 7931TIP3    H145208   6.103   1.452   1.096 -1.1441  0.8526  0.9906
 7931TIP3    H245209   6.055   1.312   1.065 -0.1994  0.6702  0.3056
 7932TIP3   OH245210   0.861   2.758  15.969  0.2351 -0.6297 -0.4021
 7932TIP3    H145211   0.876   2.694  15.899 -0.6334 -0.6858 -0.5526
 7932TIP3    H245212   0.766   2.770  15.969  0.1655 -1.0165  1.1042
 7933TIP3   OH245213   4.003   0.578  14.069 -0.6611 -0.0482  0.1898
 7933TIP3    H145214   4.089   0.616  14.081 -1.8618  2.4906  1.5113
 7933TIP3    H245215   4.011   0.526  13.989  1.7744  1.0213 -0.3521
 7934TIP3   OH245216   3.901   0.211  11.229 -0.2714  0.6755 -0.3270
 7934TIP3    H145217   3.835   0.154  11.267  1.8599 -0.9835  1.0748
 7934TIP3    H245218   3.860   0.245  11.149 -2.4848 -0.9223  0.0461
 7935TIP3   OH245219   5.597   3.493   5.223 -0.8901 -0.1830  0.3408
 7935TIP3    H145220   5.559   3.548   5.154  1.4248  1.4920  0.2900
 7935TIP3    H245221   5.624   3.555   5.291  0.2913 -1.4389  1.0568
 7936TIP3   OH245222   5.651   6.144  11.498 -0.4817 -0.3404  0.8766
 7936TIP3    H145223   5.734   6.181  11.468 -0.5216 -1.2637 -0.4927
 7936TIP3    H245224   5.585   6.210  11.477 -0.3692 -0.5499 -0.2302
 7937TIP3   OH245225   3.592   0.321   4.766  0.3155  0.9763 -0.1455
 7937TIP3    H145226   3.499   0.305   4.782  0.1768  0.2671 -1.5001
 7937TIP3    H245227   3.595   0.351   4.675  1.4613  0.6148 -0.2353
 7938TIP3   OH245228   6.155   6.094  15.871  0.1099 -0.1450  0.1747
 7938TIP3    H145229   6.221   6.155  15.839  0.4894 -0.6582 -0.0231
 7938TIP3    H245230   6.204   6.014  15.892 -0.3393 -0.2908  0.6921
 7939TIP3   OH245231   0.401   1.831  15.833  0.2904  0.7945 -0.9727
 7939TIP3    H145232   0.491   1.823  15.865 -0.2089  1.2388  0.6555
 7939TIP3    H245233   0.410   1.856  15.741  1.8176 -1.8860 -1.6659
 7940TIP3   OH245234   5.896   6.049   3.243 -0.3380 -0.1191  0.0603
 7940TIP3    H145235   5.804   6.060   3.270 -0.4036  0.7103 -0.4652
 7940TIP3    H245236   5.930   5.981   3.300 -1.3283 -0.5308  0.1734
 7941TIP3   OH245237   4.733   6.024  11.385 -0.0142 -0.1864  0.1138
 7941TIP3    H145238   4.637   6.026  11.383 -0.0442 -1.3657 -0.4590
 7941TIP3    H245239   4.756   6.063  11.470 -0.9789  0.4195  0.1103
 7942TIP3   OH245240   6.587   4.438  12.794 -0.3235 -0.1673  0.1576
 7942TIP3    H145241   6.554   4.503  12.856 -0.5257 -1.4324  1.4349
 7942TIP3    H245242   6.655   4.392  12.843  0.6525 -0.1449 -1.1373
 7943TIP3   OH245243   4.977   1.882   2.312 -0.5497 -0.4299  0.6972
 7943TIP3    H145244   4.980   1.894   2.407 -1.3777  0.2809  0.6495
 7943TIP3    H245245   5.063   1.912   2.281  0.2509 -1.9787  1.3350
 7944TIP3   OH245246   2.609   1.970   2.834 -0.2860  0.0249 -0.1104
 7944TIP3    H145247   2.552   1.907   2.878  0.8977 -0.6096  0.5473
 7944TIP3    H245248   2.685   1.919   2.807  0.7996  1.2106  0.6221
 7945TIP3   OH245249   2.720   4.161  16.875 -0.2947 -0.3778 -0.2771
 7945TIP3    H145250   2.781   4.134  16.944 -0.4331  0.6267  0.2536
 7945TIP3    H245251   2.775   4.171  16.797  0.1066 -0.1312  0.0352
 7946TIP3   OH245252   5.881   3.560   1.616 -0.1226  0.2694  0.6133
 7946TIP3    H145253   5.806   3.516   1.576  1.0208 -1.3400  0.1707
 7946TIP3    H245254   5.928   3.599   1.542 -0.3539  1.0631  0.8679
 7947TIP3   OH245255   2.586   0.475  12.546  0.5324  0.7985 -0.3946
 7947TIP3    H145256   2.632   0.397  12.576 -0.0176  0.6137 -0.0422
 7947TIP3    H245257   2.507   0.442  12.504  0.3121  1.1637 -0.2697
 7948TIP3   OH245258   5.311   2.919  10.973 -0.5413  0.3356  0.5660
 7948TIP3    H145259   5.373   2.872  10.917  1.4243 -0.0460  2.9065
 7948TIP3    H245260   5.316   3.010  10.942 -0.8470 -0.1518 -0.9803
 7949TIP3   OH245261   1.014   6.275   5.144  0.3624 -0.5229  0.3403
 7949TIP3    H145262   1.027   6.312   5.231 -0.2958 -1.7219  0.9777
 7949TIP3    H245263   1.037   6.183   5.153  1.7776 -0.3733 -1.1529
 7950TIP3   OH245264   2.557   3.591  16.425  0.3386  0.1331 -0.2252
 7950TIP3    H145265   2.566   3.687  16.427 -2.3681  0.4680 -0.4304
 7950TIP3    H245266   2.503   3.571  16.501  0.1178 -1.1241 -0.6973
 7951TIP3   OH245267   3.603   0.329  17.022  0.1807 -0.0950  0.3384
 7951TIP3    H145268   3.627   0.250  16.973 -0.5663 -0.6999  0.9204
 7951TIP3    H245269   3.603   0.399  16.957  3.0607 -0.1092  0.1973
 7952TIP3   OH245270   5.196   4.375  12.128 -0.0972 -0.8590  0.3284
 7952TIP3    H145271   5.171   4.282  12.131  0.2617 -0.9216  1.5877
 7952TIP3    H245272   5.291   4.374  12.120 -0.1890 -0.5843 -1.2300
 7953TIP3   OH245273   1.918   4.333  12.890  0.0355 -0.0405 -0.6798
 7953TIP3    H145274   1.922   4.423  12.924 -0.2671 -0.1505 -0.3480
 7953TIP3    H245275   1.825   4.314  12.883  0.0981 -0.2598 -0.9398
 7954TIP3   OH245276   5.461   4.377  13.133 -0.1111 -0.4582 -0.4116
 7954TIP3    H145277   5.412   4.456  13.111  0.2945  0.0058  0.3091
 7954TIP3    H245278   5.549   4.394  13.100  0.3077 -0.0663  0.8373
 7955TIP3   OH245279   3.656   0.764   0.492 -0.0562 -0.1309 -0.7566
 7955TIP3    H145280   3.627   0.856   0.496 -0.1842 -0.1178 -1.6896
 7955TIP3    H245281   3.750   0.770   0.474  0.5216 -0.1777  1.9134
 7956TIP3   OH245282   1.612   2.128  17.019  0.2309  0.6414  0.0929
 7956TIP3    H145283   1.550   2.115  17.091  0.1371 -0.1293 -0.1195
 7956TIP3    H245284   1.686   2.174  17.059 -0.6316  1.9146  0.2659
 7957TIP3   OH245285   6.236   1.740  14.351  0.5697 -0.2076  0.4022
 7957TIP3    H145286   6.250   1.834  14.366  0.6187 -0.3880  1.5453
 7957TIP3    H245287   6.140   1.730  14.353  0.5956 -0.3588  1.5065
 7958TIP3   OH245288   6.616   5.182  12.335 -0.7155 -0.0260 -0.5410
 7958TIP3    H145289   6.663   5.219  12.261 -0.4566  1.1500  0.1800
 7958TIP3    H245290   6.533   5.229  12.337 -0.1691  0.9317  0.7018
 7959TIP3   OH245291   3.868   4.782  12.587 -1.2226 -0.2807 -0.1298
 7959TIP3    H145292   3.781   4.820  12.601 -0.7482  1.0958 -0.6979
 7959TIP3    H245293   3.911   4.844  12.527  0.7169 -0.0387  1.4283
 7960TIP3   OH245294   0.714   5.457   0.377 -0.1571  0.6261 -0.0046
 7960TIP3    H145295   0.700   5.441   0.284  0.4896 -0.9296  0.1423
 7960TIP3    H245296   0.634   5.427   0.420  0.4432 -0.8647  0.1264
 7961TIP3   OH245297   6.784   2.819  11.249 -0.0876 -0.1075 -0.0334
 7961TIP3    H145298   6.777   2.827  11.344 -0.1814  0.1019 -0.0584
 7961TIP3    H245299   6.698   2.844  11.215  0.3922  1.3569 -0.2637
 7962TIP3   OH245300   3.590   2.331  14.321  0.0584  0.0404  0.2809
 7962TIP3    H145301   3.566   2.380  14.242  2.0729  0.0842 -0.3442
 7962TIP3    H245302   3.573   2.392  14.393 -2.5892 -0.2805  0.0278
 7963TIP3   OH245303   2.482   0.547   4.460  0.3436  0.4687 -0.2348
 7963TIP3    H145304   2.552   0.607   4.484  1.6534 -0.9365 -0.3609
 7963TIP3    H245305   2.473   0.489   4.536  0.5843 -0.4721 -0.8980
 7964TIP3   OH245306   1.434   2.773   5.259 -0.0529  0.1293  0.2388
 7964TIP3    H145307   1.522   2.736   5.270 -0.1076 -0.2180 -0.4614
 7964TIP3    H245308   1.400   2.732   5.180 -1.6479 -1.2673  1.5809
 7965TIP3   OH245309   3.620   2.535   5.709  0.0641 -0.2026 -0.5048
 7965TIP3    H145310   3.692   2.597   5.713 -0.4012  0.3306 -0.1698
 7965TIP3    H245311   3.551   2.582   5.660 -0.4681 -0.2616  0.1748
 7966TIP3   OH245312   4.580   4.637  14.975  0.0113  0.0602  0.1917
 7966TIP3    H145313   4.657   4.651  14.921 -0.7528  1.7362 -0.5440
 7966TIP3    H245314   4.600   4.680  15.058 -0.6591  1.8931 -0.5372
 7967TIP3   OH245315   2.480   5.609  13.229 -0.0303  0.8000  0.8268
 7967TIP3    H145316   2.385   5.614  13.218  0.1472  2.9392 -0.3509
 7967TIP3    H245317   2.502   5.683  13.286  0.9739  0.6357  0.6815
 7968TIP3   OH245318   0.429   6.248   0.952 -0.0513  0.1608  0.2738
 7968TIP3    H145319   0.381   6.224   0.873  1.7902  0.5289 -1.0137
 7968TIP3    H245320   0.519   6.223   0.934  0.9288  2.6921  1.1603
 7969TIP3   OH245321   6.646   5.550   3.467  0.2757  0.1143  0.3670
 7969TIP3    H145322   6.582   5.511   3.407  0.4202  0.4704 -0.0241
 7969TIP3    H245323   6.704   5.601   3.410  0.0694  0.9239  0.8785
 7970TIP3   OH245324   0.152   3.877  13.323  0.2362  0.2321 -0.5809
 7970TIP3    H145325   0.131   3.823  13.248  0.5231 -2.0181  0.8616
 7970TIP3    H245326   0.093   3.847  13.392 -0.6002  2.7950 -0.0584
 7971TIP3   OH245327   5.781   4.809   2.062 -0.5872 -0.1543  0.2699
 7971TIP3    H145328   5.762   4.833   1.971  1.7357 -0.9788 -0.5060
 7971TIP3    H245329   5.695   4.806   2.104 -1.6501  1.1813 -1.6427
 7972TIP3   OH245330   2.362   3.805   3.602 -0.4233  0.0074 -0.1317
 7972TIP3    H145331   2.311   3.879   3.635  3.0482  1.9655  1.4168
 7972TIP3    H245332   2.435   3.845   3.555  1.7251 -2.3480  0.9409
 7973TIP3   OH245333   6.506   5.605   1.380  0.3001  0.6742 -0.2922
 7973TIP3    H145334   6.461   5.527   1.411 -0.5706  1.1590 -0.2867
 7973TIP3    H245335   6.445   5.644   1.316 -0.9887  3.2419  2.2370
 7974TIP3   OH245336   1.508   2.028  15.049 -0.0162 -0.2650 -0.2785
 7974TIP3    H145337   1.587   1.978  15.027  0.1859  0.4975 -1.3824
 7974TIP3    H245338   1.539   2.103  15.100 -0.2944 -1.1077  1.1827
 7975TIP3   OH245339   6.523   5.586   0.670 -0.3116 -0.0756 -0.0583
 7975TIP3    H145340   6.586   5.617   0.605 -0.3405  0.9001  0.3762
 7975TIP3    H245341   6.569   5.517   0.717  0.7516  1.1749  0.7991
 7976TIP3   OH245342   1.552   4.319  14.082  0.1845  0.6082 -0.1060
 7976TIP3    H145343   1.624   4.377  14.107  1.1698 -0.8341  0.4889
 7976TIP3    H245344   1.585   4.271  14.006  0.6504 -1.4157  1.2801
 7977TIP3   OH245345   2.849   4.213  13.261  0.3700 -0.0427 -0.4375
 7977TIP3    H145346   2.789   4.167  13.202  1.1303  0.9613 -2.0764
 7977TIP3    H245347   2.905   4.145  13.298  0.7188 -0.5768 -1.9066
 7978TIP3   OH245348   4.630   1.242   4.729 -0.4825 -0.1888  0.5722
 7978TIP3    H145349   4.628   1.146   4.723  0.3385 -0.2047  0.3747
 7978TIP3    H245350   4.680   1.269   4.652 -0.2746  0.3651  0.8995
 7979TIP3   OH245351   5.892   5.740  13.786  0.6693 -0.3825 -0.1269
 7979TIP3    H145352   5.872   5.653  13.751 -2.1723 -0.6109  1.7659
 7979TIP3    H245353   5.877   5.732  13.880  0.1145  2.1998  0.0697
 7980TIP3   OH245354   1.880   4.254  16.774 -0.5092  0.5582 -0.0198
 7980TIP3    H145355   1.836   4.325  16.727 -2.1895 -1.2450 -1.3444
 7980TIP3    H245356   1.863   4.177  16.721 -0.4307 -1.1899  2.3541
 7981TIP3   OH245357   1.362   1.624  13.266 -0.4956 -0.1508 -1.0231
 7981TIP3    H145358   1.312   1.562  13.319  2.8588 -1.4212  0.9765
 7981TIP3    H245359   1.367   1.583  13.180 -1.5500 -0.7126 -0.8363
 7982TIP3   OH245360   4.930   1.790  15.555 -0.3554  0.3363  0.4147
 7982TIP3    H145361   4.935   1.856  15.625  2.4671  0.6772 -0.0008
 7982TIP3    H245362   4.995   1.819  15.491 -0.3305 -1.9137 -0.6449
 7983TIP3   OH245363   5.927   6.680  14.077 -0.8611  0.2041  0.1882
 7983TIP3    H145364   5.962   6.678  13.987 -0.6259 -0.5033  0.2916
 7983TIP3    H245365   6.003   6.662  14.132 -1.1661 -0.2089  0.4792
 7984TIP3   OH245366   6.179   2.537  15.598 -0.6689 -0.4684 -0.6467
 7984TIP3    H145367   6.240   2.508  15.530 -0.1959 -2.1222  0.4353
 7984TIP3    H245368   6.176   2.465  15.661  1.7478  2.2804  3.0475
 7985TIP3   OH245369   6.534   0.816   6.171  0.4191 -0.4420  0.5198
 7985TIP3    H145370   6.514   0.828   6.078  2.9261 -1.8846 -0.2959
 7985TIP3    H245371   6.465   0.757   6.202  1.2611 -2.5248 -1.2863
 7986TIP3   OH245372   2.306   5.618   4.794 -0.5454  0.0434  0.3774
 7986TIP3    H145373   2.249   5.543   4.781  0.6617 -0.9004  0.3008
 7986TIP3    H245374   2.332   5.612   4.887  0.8927 -0.6629 -0.0330
 7987TIP3   OH245375   3.516   0.234  13.566 -0.1324 -0.0800 -0.4272
 7987TIP3    H145376   3.451   0.165  13.578  2.0349 -2.1198  0.4252
 7987TIP3    H245377   3.490   0.302  13.628 -1.6353 -0.6754 -0.3644
 7988TIP3   OH245378   6.474   6.767   0.771  0.1429  0.6624 -0.3553
 7988TIP3    H145379   6.409   6.724   0.716 -0.0531  1.5297 -0.8252
 7988TIP3    H245380   6.550   6.709   0.769 -0.6896 -0.4785  0.3968
 7989TIP3   OH245381   1.897   0.034  13.131 -0.3184 -0.5055 -0.2256
 7989TIP3    H145382   1.868   0.012  13.219  0.3718 -1.7339 -0.2773
 7989TIP3    H245383   1.923  -0.050  13.093 -0.9436 -0.0511 -1.7227
 7990TIP3   OH245384   6.423   4.803  15.604 -0.1974  0.4205  0.1118
 7990TIP3    H145385   6.509   4.823  15.568 -0.1206  0.2346  0.1921
 7990TIP3    H245386   6.384   4.889  15.621  0.0768  0.5041  0.3188
 7991TIP3   OH245387   3.021   5.241   2.416  0.3374  0.3281 -0.2037
 7991TIP3    H145388   3.025   5.147   2.398 -3.3373  0.4126 -2.5491
 7991TIP3    H245389   3.074   5.282   2.348 -0.2401  0.0185 -0.8468
 7992TIP3   OH245390   1.365   5.356   0.138 -0.3143 -0.1458  0.4287
 7992TIP3    H145391   1.381   5.305   0.059 -0.0316 -0.0423  0.4184
 7992TIP3    H245392   1.451   5.391   0.162 -0.6359  1.0621 -0.0719
 7993TIP3   OH245393   1.628   0.900   3.583  0.1261 -0.5570 -0.5838
 7993TIP3    H145394   1.582   0.984   3.577 -1.8850 -1.4748  0.9321
 7993TIP3    H245395   1.650   0.890   3.676  0.9698 -1.4196 -0.8472
 7994TIP3   OH245396   6.260   0.909  14.765  0.2000 -0.2161  0.2345
 7994TIP3    H145397   6.298   0.925  14.852  0.4538 -0.3347  0.1441
 7994TIP3    H245398   6.315   0.960  14.705  0.0342 -0.1473  0.1390
 7995TIP3   OH245399   2.346   1.667  17.224  1.1790 -0.6175  0.4655
 7995TIP3    H145400   2.292   1.621  17.289  2.2750  0.8315  2.5014
 7995TIP3    H245401   2.430   1.680  17.267  1.1850  2.5692 -0.2731
 7996TIP3   OH245402   1.006   0.680   2.335  0.2407  0.4158 -0.0271
 7996TIP3    H145403   1.026   0.647   2.423 -1.8606  1.3900  0.8729
 7996TIP3    H245404   1.004   0.601   2.281  0.3853 -0.3473  1.0349
 7997TIP3   OH245405   4.775   6.599  14.235 -0.5625 -0.4830  0.5364
 7997TIP3    H145406   4.744   6.649  14.310  1.3811  2.0113 -0.1846
 7997TIP3    H245407   4.740   6.646  14.159  2.5516  0.9272 -0.2126
 7998TIP3   OH245408   2.827   5.457  11.232  0.4230 -0.5112  0.0720
 7998TIP3    H145409   2.755   5.518  11.217 -0.3691 -1.6647 -1.0560
 7998TIP3    H245410   2.884   5.467  11.156  1.1945  0.0057  0.6979
 7999TIP3   OH245411   6.488   5.050   1.457  0.1397  0.0643  0.2452
 7999TIP3    H145412   6.496   5.080   1.366  0.9627  0.6250  0.4996
 7999TIP3    H245413   6.536   5.114   1.508  0.5915 -0.8349  0.9724
 8000TIP3   OH245414   4.735   3.316  15.825  0.8461 -0.0200  0.0351
 8000TIP3    H145415   4.705   3.252  15.888  0.0849  1.6631  1.4706
 8000TIP3    H245416   4.829   3.323  15.841  0.8538 -0.4348  0.1813
 8001TIP3   OH245417   5.179   1.172  14.634 -0.5015  0.0999  0.1492
 8001TIP3    H145418   5.193   1.105  14.567  0.3406  0.0789  0.3435
 8001TIP3    H245419   5.102   1.220  14.603  0.0626  0.2937 -0.9935
 8002TIP3   OH245420   3.341   0.539  11.689  0.0985  0.3724 -0.4166
 8002TIP3    H145421   3.324   0.469  11.752  0.8296  0.1581 -0.4513
 8002TIP3    H245422   3.275   0.525  11.621 -0.3665  0.2923  0.0378
 8003TIP3   OH245423   3.459   1.907  16.208 -0.1996  0.0759  0.3138
 8003TIP3    H145424   3.445   1.999  16.189 -0.7144  0.4202  2.0851
 8003TIP3    H245425   3.553   1.898  16.222 -0.0042  0.0851 -0.9120
 8004TIP3   OH245426   5.058   2.523  16.533  0.0869  0.1962 -0.1984
 8004TIP3    H145427   5.116   2.453  16.566 -0.5739 -0.2626  0.0249
 8004TIP3    H245428   5.097   2.604  16.567 -0.5401 -0.2533  1.7358
 8005TIP3   OH245429   2.981   0.677   1.750  0.3156  0.0112  0.2238
 8005TIP3    H145430   2.893   0.641   1.746  0.6106 -0.6749 -0.3514
 8005TIP3    H245431   3.026   0.640   1.674  1.5804 -1.0100  1.4013
 8006TIP3   OH245432   6.480   4.163   4.393 -0.1424  0.5690  0.5433
 8006TIP3    H145433   6.387   4.170   4.412 -0.6395  1.2550 -1.7984
 8006TIP3    H245434   6.514   4.252   4.402 -0.3993  0.9249 -1.4710
 8007TIP3   OH245435   4.491   5.791  15.243 -0.4341 -0.4736  0.7453
 8007TIP3    H145436   4.513   5.762  15.331 -2.3708 -0.3221  1.3332
 8007TIP3    H245437   4.477   5.885  15.251 -2.4455 -0.7308  0.7368
 8008TIP3   OH245438   0.625   4.030  12.125  0.1644  0.7805 -1.2140
 8008TIP3    H145439   0.643   4.007  12.034 -0.8880  0.2708 -1.3049
 8008TIP3    H245440   0.712   4.045  12.163  0.7543 -0.8467 -1.8236
 8009TIP3   OH245441   2.165   4.125  13.836  0.8983 -0.2516  0.0612
 8009TIP3    H145442   2.193   4.039  13.802  0.8631  0.4758 -1.9426
 8009TIP3    H245443   2.190   4.187  13.767  0.8544  1.3636  1.4306
 8010TIP3   OH245444   2.043   1.565   2.934 -0.4763 -0.0299 -0.3450
 8010TIP3    H145445   2.032   1.480   2.891 -0.3500  1.1014 -2.8218
 8010TIP3    H245446   2.135   1.587   2.921 -0.0518 -0.3015  1.9338
 8011TIP3   OH245447   0.103   6.315  12.048 -0.2286  0.2586  0.3480
 8011TIP3    H145448   0.104   6.333  12.142 -0.2080  1.5860  0.1215
 8011TIP3    H245449   0.021   6.353  12.017 -2.0670 -3.3110  0.3369
 8012TIP3   OH245450   3.078   4.818   0.868  0.5372  0.2204  0.5911
 8012TIP3    H145451   2.999   4.768   0.888 -0.0334  1.6167  1.9660
 8012TIP3    H245452   3.080   4.888   0.932  1.7744  1.4855 -0.7390
 8013TIP3   OH245453   0.862   4.962   2.609  0.1594  0.4755 -0.0543
 8013TIP3    H145454   0.777   4.995   2.579 -0.2704 -1.1909 -0.7624
 8013TIP3    H245455   0.923   4.988   2.541 -0.2000 -0.2894 -0.6779
 8014TIP3   OH245456   2.075   4.471  10.937 -0.0553  0.2420 -0.4354
 8014TIP3    H145457   2.102   4.460  11.028  1.4553  0.9168 -0.7717
 8014TIP3    H245458   2.153   4.448  10.886 -0.8667 -0.0995 -1.5689
 8015TIP3   OH245459   3.102   4.213   4.951  0.0887 -0.5307  0.0651
 8015TIP3    H145460   3.139   4.289   4.996 -2.1732  0.9737 -0.4604
 8015TIP3    H245461   3.053   4.166   5.018  0.5825 -0.9465  0.1456
 8016TIP3   OH245462   0.633   3.372  16.490  0.2520  0.5982 -0.0355
 8016TIP3    H145463   0.606   3.300  16.547 -0.5232  1.5399  0.8250
 8016TIP3    H245464   0.694   3.423  16.544  0.1239  1.0615 -0.3307
 8017TIP3   OH245465   0.910   5.414   5.680 -0.1925 -0.2053  0.3158
 8017TIP3    H145466   0.981   5.409   5.744  1.3223 -1.0919 -1.3474
 8017TIP3    H245467   0.915   5.332   5.632 -2.5775 -0.4161  0.3311
 8018TIP3   OH245468   4.062   3.855  16.707  0.4466 -0.6138  0.7918
 8018TIP3    H145469   4.114   3.777  16.685 -1.5854 -1.9013  0.2453
 8018TIP3    H245470   4.064   3.908  16.627 -0.1265 -1.2825  0.3224
 8019TIP3   OH245471   2.910   3.003   1.811  0.1189  0.2546 -0.4617
 8019TIP3    H145472   2.915   2.911   1.784 -0.3041  0.2110 -0.3945
 8019TIP3    H245473   3.001   3.032   1.811  0.2717 -0.2059 -0.3440
 8020TIP3   OH245474   3.043   6.019   5.407  0.4006  0.5096 -0.7365
 8020TIP3    H145475   3.086   6.040   5.324  1.2775  0.9152 -0.1829
 8020TIP3    H245476   3.012   6.103   5.440  0.1649  0.3624 -0.5786
 8021TIP3   OH245477   4.758   0.052  16.318 -0.5418  0.4122 -0.0322
 8021TIP3    H145478   4.775   0.130  16.370  2.3540 -0.0500 -0.1287
 8021TIP3    H245479   4.845   0.017  16.297 -1.6993 -2.6054 -0.3571
 8022TIP3   OH245480   0.894   6.736  16.464 -0.3789  0.4619  0.4884
 8022TIP3    H145481   0.906   6.815  16.411 -2.0046  0.4149  0.0028
 8022TIP3    H245482   0.907   6.766  16.554 -0.2686  1.1319  0.2532
 8023TIP3   OH245483   3.480   6.221  14.075  0.4979  0.0132 -0.5703
 8023TIP3    H145484   3.390   6.188  14.073  0.1113  1.0644 -1.8959
 8023TIP3    H245485   3.500   6.230  14.168 -0.5643 -0.7389 -0.2469
 8024TIP3   OH245486   3.881   1.109  16.227  0.5151  0.0406  0.1934
 8024TIP3    H145487   3.888   1.081  16.136  0.6346 -0.4666  0.3565
 8024TIP3    H245488   3.847   1.033  16.273 -0.5404  0.6220  0.4019
 8025TIP3   OH245489   6.145   2.778   5.896 -0.1187 -0.3680 -0.0899
 8025TIP3    H145490   6.109   2.845   5.838  0.2627 -0.8785 -0.9380
 8025TIP3    H245491   6.082   2.771   5.967  0.3723  1.6706  0.6077
 8026TIP3   OH245492   2.146   1.607  16.772  0.1564  0.2048  0.7225
 8026TIP3    H145493   2.091   1.612  16.695 -0.6181 -0.7273  1.1877
 8026TIP3    H245494   2.085   1.600  16.845  0.8590  1.7511  1.5034
 8027TIP3   OH245495   0.404   0.538   2.552 -0.2700 -0.6565  0.2308
 8027TIP3    H145496   0.479   0.513   2.499  0.8184  1.0820  0.8735
 8027TIP3    H245497   0.420   0.629   2.576 -2.0700 -0.5549  1.2817
 8028TIP3   OH245498   4.119   0.082   4.012 -0.1401  0.1021  0.3692
 8028TIP3    H145499   4.134   0.107   3.921 -2.9218 -1.6072 -0.7111
 8028TIP3    H245500   4.123  -0.014   4.011 -1.3756  0.0008  1.7740
 8029TIP3   OH245501   4.848   6.148  16.864 -0.1700 -0.4749  0.2180
 8029TIP3    H145502   4.796   6.129  16.786  1.2209 -2.0636 -0.4178
 8029TIP3    H245503   4.930   6.184  16.830  0.2295 -0.6262  0.9871
 8030TIP3   OH245504   4.948   0.496   4.683  0.3735  0.1730 -1.1016
 8030TIP3    H145505   4.965   0.528   4.771 -0.2348  0.0095 -0.9209
 8030TIP3    H245506   4.991   0.411   4.680 -1.5510 -0.9085 -0.1578
 8031TIP3   OH245507   4.012   0.790   4.432  0.3024 -0.3614  0.1280
 8031TIP3    H145508   3.968   0.745   4.505 -1.0527 -0.5075 -0.7363
 8031TIP3    H245509   3.970   0.876   4.429  1.2067  0.0993  0.2615
 8032TIP3   OH245510   3.453   5.098   0.941 -0.2837 -0.6136  0.2078
 8032TIP3    H145511   3.547   5.115   0.938 -0.2193 -0.9670  0.2193
 8032TIP3    H245512   3.438   5.057   1.026 -0.4983 -0.2696  0.3385
 8033TIP3   OH245513   3.743   2.187  16.474  0.0908  0.2427 -0.6260
 8033TIP3    H145514   3.666   2.133  16.491 -0.5386  2.2419  4.7576
 8033TIP3    H245515   3.817   2.133  16.503 -0.0041  0.5025  0.1149
 8034TIP3   OH245516   0.608   1.910  11.660  0.1563 -0.3238  0.5955
 8034TIP3    H145517   0.546   1.963  11.609 -1.2126 -0.6476  1.8846
 8034TIP3    H245518   0.691   1.918  11.612  0.1595  3.3535  0.9438
 8035TIP3   OH245519   4.773   5.989  12.860  0.2668  0.2880  0.1808
 8035TIP3    H145520   4.741   5.971  12.948 -1.0699 -0.4022 -0.4136
 8035TIP3    H245521   4.761   5.907  12.812 -0.7720  1.1505 -1.1302
 8036TIP3   OH245522   5.396   6.267   2.116 -0.0687  0.1592  0.3785
 8036TIP3    H145523   5.450   6.217   2.054 -0.9651  0.0982 -0.3712
 8036TIP3    H245524   5.411   6.225   2.200 -0.4049 -1.0577 -0.1501
 8037TIP3   OH245525   2.670   3.610   4.834 -0.3241 -0.2031  0.2977
 8037TIP3    H145526   2.589   3.661   4.835 -0.6835 -0.7410 -0.6463
 8037TIP3    H245527   2.720   3.643   4.909 -1.7976 -0.4763  1.4368
 8038TIP3   OH245528   2.439   4.855   4.654 -0.1676 -0.5613 -0.2515
 8038TIP3    H145529   2.501   4.812   4.712 -0.0585 -0.5775 -0.3796
 8038TIP3    H245530   2.362   4.871   4.709  0.5225  0.8822  0.3419
 8039TIP3   OH245531   5.544   3.737   2.255 -0.7057 -0.5102 -0.2362
 8039TIP3    H145532   5.560   3.643   2.252 -1.7505 -0.7552  1.0147
 8039TIP3    H245533   5.448   3.745   2.257 -0.7067  0.6790 -2.4737
 8040TIP3   OH245534   1.684   3.363  12.100  0.0532 -0.1722  0.4791
 8040TIP3    H145535   1.671   3.337  12.009  1.9910  0.4279 -0.0205
 8040TIP3    H245536   1.635   3.298  12.151 -0.5461 -0.8879 -0.9642
 8041TIP3   OH245537   5.102   4.145  11.080 -0.3528 -0.0523  0.4589
 8041TIP3    H145538   5.131   4.117  11.167  0.8758  1.4066  0.5598
 8041TIP3    H245539   5.171   4.113  11.021 -0.6526 -0.1408  0.1541
 8042TIP3   OH245540   0.793   3.825  15.066 -0.3378 -0.2768  0.0240
 8042TIP3    H145541   0.877   3.870  15.077 -0.9007  0.8316 -0.0663
 8042TIP3    H245542   0.736   3.890  15.027 -1.2315 -1.0369  0.0322
 8043TIP3   OH245543   2.436   1.196  11.111 -0.4059  0.1934  0.4150
 8043TIP3    H145544   2.447   1.239  11.027  0.7506  1.8602  1.3525
 8043TIP3    H245545   2.494   1.120  11.107  3.4669  2.7749  1.2340
 8044TIP3   OH245546   5.128   3.601  12.262  0.2114 -0.3208 -0.1866
 8044TIP3    H145547   5.151   3.668  12.197 -0.7149  1.0259  0.8217
 8044TIP3    H245548   5.122   3.649  12.345  0.0277 -1.7564  0.6713
 8045TIP3   OH245549   2.543   1.231  17.207  0.3057  0.0949 -0.4764
 8045TIP3    H145550   2.504   1.192  17.285  0.3150  0.2143 -0.4113
 8045TIP3    H245551   2.527   1.167  17.137 -2.9281  1.5588 -1.2248
 8046TIP3   OH245552   6.229   0.303  15.332  0.2565 -0.5965 -0.6818
 8046TIP3    H145553   6.223   0.328  15.424  0.1638 -0.4915 -0.7158
 8046TIP3    H245554   6.297   0.236  15.330 -0.6294 -1.5316 -0.3421
 8047TIP3   OH245555   0.023   0.363  12.226  0.2365 -0.2109 -0.1185
 8047TIP3    H145556   0.048   0.311  12.303  0.4884  0.0744 -0.0048
 8047TIP3    H245557   0.091   0.430  12.219  0.4407 -0.4861 -0.8367
 8048TIP3   OH245558   4.844   6.071  12.420  0.2040  0.1074  0.0416
 8048TIP3    H145559   4.875   5.995  12.369 -0.3929 -0.4785  0.5292
 8048TIP3    H245560   4.901   6.073  12.496  0.0671 -0.0046  0.1487
 8049TIP3   OH245561   0.375   2.513  12.874  0.4999 -0.0016 -0.1614
 8049TIP3    H145562   0.457   2.473  12.846 -0.5153 -1.4324 -1.2157
 8049TIP3    H245563   0.372   2.597  12.827  0.5091 -0.7833 -1.6120
 8050TIP3   OH245564   0.152   1.952  16.358  0.3163  0.3802  0.1031
 8050TIP3    H145565   0.086   1.989  16.417 -0.7200 -1.9935  0.5724
 8050TIP3    H245566   0.199   2.028  16.324  0.2067  1.9238  3.0829
 8051TIP3   OH245567   6.170   0.473  14.885 -0.2782  0.0924 -0.3620
 8051TIP3    H145568   6.246   0.483  14.943  1.2908  1.5461 -2.5218
 8051TIP3    H245569   6.147   0.381  14.891  0.0468  0.0978  2.2134
 8052TIP3   OH245570   2.363   4.442   1.988  0.4760 -0.5120 -0.2468
 8052TIP3    H145571   2.363   4.503   2.061  1.5938 -0.3086 -0.3997
 8052TIP3    H245572   2.275   4.406   1.987 -0.1980  1.0654 -0.1309
 8053TIP3   OH245573   5.992   5.004   3.221 -0.1692 -0.1406  0.3093
 8053TIP3    H145574   5.936   4.926   3.218 -0.8982  0.3656  0.4193
 8053TIP3    H245575   5.932   5.075   3.243  0.0594  0.8470 -2.0496
 8054TIP3   OH245576   4.394   4.521  13.991 -0.4534 -0.4068 -0.2722
 8054TIP3    H145577   4.341   4.555  14.062  0.3256 -1.5873  0.9252
 8054TIP3    H245578   4.436   4.598  13.953  2.3989  0.0805  3.2544
 8055TIP3   OH245579   6.659   0.230  10.780  0.1346 -0.0269 -0.2565
 8055TIP3    H145580   6.623   0.163  10.837  1.2967 -0.3746  0.0935
 8055TIP3    H245581   6.742   0.193  10.749 -0.1319  0.4579 -1.5876
 8056TIP3   OH245582   3.716   4.057  10.714  0.5207  1.0185 -0.6361
 8056TIP3    H145583   3.642   4.083  10.659  1.0741  2.9752 -0.5120
 8056TIP3    H245584   3.724   4.127  10.779  0.3016 -0.8816  1.5810
 8057TIP3   OH245585   1.183   4.222  14.341 -0.2255  0.7444 -0.7216
 8057TIP3    H145586   1.125   4.279  14.390  0.1152 -0.1084  0.7280
 8057TIP3    H245587   1.228   4.279  14.279  0.3651  2.1225  0.9102
 8058TIP3   OH245588   3.101   5.103   1.836  0.3892 -0.0858 -0.1157
 8058TIP3    H145589   3.115   5.147   1.752 -1.3852  1.0075  0.1037
 8058TIP3    H245590   3.010   5.124   1.859  0.1947 -2.0529  1.1040
 8059TIP3   OH245591   1.837   2.694  17.218  0.1603  0.6108 -0.2800
 8059TIP3    H145592   1.905   2.629  17.203  1.9022  2.1158  0.6756
 8059TIP3    H245593   1.792   2.664  17.297  1.7279  1.1202  0.8471
 8060TIP3   OH245594   1.683   5.841   3.568 -0.4277 -0.0951  0.6722
 8060TIP3    H145595   1.724   5.796   3.641 -0.5556  0.1702  0.9088
 8060TIP3    H245596   1.720   5.930   3.571 -1.5102  0.3487  1.2924
 8061TIP3   OH245597   5.722   4.558  12.455 -0.2844  0.7618  0.1632
 8061TIP3    H145598   5.789   4.521  12.396  0.1131  2.7173 -0.7154
 8061TIP3    H245599   5.643   4.560  12.402 -1.0450 -1.3127  1.1224
 8062TIP3   OH245600   6.358   2.988   2.105  0.0295 -0.4889  0.4798
 8062TIP3    H145601   6.297   3.062   2.109  0.1249 -0.4852  2.7894
 8062TIP3    H245602   6.331   2.931   2.176  2.1400 -0.9603  0.9561
 8063TIP3   OH245603   2.247   5.488  16.524 -0.0425  0.3199 -0.1309
 8063TIP3    H145604   2.273   5.516  16.437 -1.3459  1.8240 -0.1019
 8063TIP3    H245605   2.160   5.451  16.513 -0.5637  1.2598  0.6112
 8064TIP3   OH245606   2.659   4.097   1.730 -0.6129  0.2983  0.3912
 8064TIP3    H145607   2.642   4.096   1.636  0.5649 -0.1174  0.1647
 8064TIP3    H245608   2.755   4.090   1.737 -0.3193  3.4776  1.5319
 8065TIP3   OH245609   2.673   0.351   1.945 -0.0661 -0.3373  0.0411
 8065TIP3    H145610   2.767   0.359   1.961  0.3228  1.5982 -2.4992
 8065TIP3    H245611   2.659   0.258   1.925  0.9153 -1.0005  2.1583
 8066TIP3   OH245612   1.969   4.894  14.501 -0.0273  0.2037  0.4589
 8066TIP3    H145613   2.007   4.936  14.424  1.3738  0.6428  1.3552
 8066TIP3    H245614   1.875   4.896  14.485  0.1873  0.9317 -0.9063
 8067TIP3   OH245615   2.044   3.348   5.571  0.4733 -0.0410 -0.2432
 8067TIP3    H145616   2.040   3.307   5.484  2.1028  1.2511 -0.9861
 8067TIP3    H245617   2.117   3.304   5.615 -0.5060 -0.8637  0.5883
 8068TIP3   OH245618   3.013   5.277  12.614  0.1211 -0.5597 -0.0538
 8068TIP3    H145619   3.092   5.223  12.611  0.2790 -0.3628  0.5201
 8068TIP3    H245620   3.044   5.364  12.639 -0.2242 -0.3724 -0.2705
 8069TIP3   OH245621   2.914   4.710   2.451 -0.3456  0.9018  0.5004
 8069TIP3    H145622   2.940   4.784   2.395 -3.0091  1.3597 -0.2702
 8069TIP3    H245623   2.976   4.641   2.429  1.6029  2.5606  0.4942
 8070TIP3   OH245624   4.123   3.992   1.878 -0.2808  0.0179  0.2220
 8070TIP3    H145625   4.166   3.962   1.958 -1.1486 -1.2344  0.2569
 8070TIP3    H245626   4.031   3.966   1.889 -0.5600  0.4701 -0.8694
 8071TIP3   OH245627   1.370   1.870  16.747 -0.3534 -0.2330 -0.9387
 8071TIP3    H145628   1.316   1.817  16.687 -2.1843  0.8864 -0.3547
 8071TIP3    H245629   1.401   1.943  16.693  0.5614 -0.8456 -1.2589
 8072TIP3   OH245630   0.486   5.772  11.703 -0.0961  0.1451 -0.4070
 8072TIP3    H145631   0.512   5.817  11.623  0.5057 -1.0237 -0.9019
 8072TIP3    H245632   0.543   5.695  11.706 -0.5449 -0.1577  0.8188
 8073TIP3   OH245633   5.928   0.882   1.037  0.1654 -0.1929 -0.0587
 8073TIP3    H145634   5.973   0.847   1.113  1.1417 -1.6938 -1.2669
 8073TIP3    H245635   5.951   0.975   1.035  2.6695 -0.7555 -0.2131
 8074TIP3   OH245636   5.866   5.392   3.645  0.4223  0.0080 -0.3997
 8074TIP3    H145637   5.804   5.324   3.670  1.5770 -1.2564 -0.8689
 8074TIP3    H245638   5.831   5.472   3.685 -1.1381 -0.7783 -0.1120
 8075TIP3   OH245639   6.630   3.053   2.892  0.3393  0.7590  0.2910
 8075TIP3    H145640   6.711   3.002   2.889 -0.8570 -1.2925 -2.5854
 8075TIP3    H245641   6.586   3.022   2.971  0.7348 -1.0060 -0.1191
 8076TIP3   OH245642   1.748   0.390  12.491 -0.0927 -0.4910 -0.0312
 8076TIP3    H145643   1.800   0.318  12.528 -1.3067 -1.4666 -0.1604
 8076TIP3    H245644   1.715   0.437  12.568 -0.9858 -1.3288  0.1147
 8077TIP3   OH245645   1.792   3.212  16.955 -1.1647 -0.5796  0.2229
 8077TIP3    H145646   1.761   3.270  17.024  0.4141  0.3628  0.1918
 8077TIP3    H245647   1.869   3.169  16.993  0.3113  0.6711 -1.2155
 8078TIP3   OH245648   0.434   3.819   2.686 -0.4431  0.1382 -0.1185
 8078TIP3    H145649   0.403   3.806   2.776 -0.5265 -3.5335 -0.5444
 8078TIP3    H245650   0.429   3.733   2.646  1.1358  1.3354 -3.2216
 8079TIP3   OH245651   4.651   5.985   1.025 -0.5248 -0.1885  0.3001
 8079TIP3    H145652   4.723   5.980   1.088  1.2366 -2.3370 -1.6846
 8079TIP3    H245653   4.621   6.076   1.029  1.3219  0.3998  2.2521
 8080TIP3   OH245654   3.940   4.462   5.546  0.8061  0.3852 -0.1661
 8080TIP3    H145655   3.900   4.442   5.631  0.6183 -0.6218 -0.4709
 8080TIP3    H245656   3.959   4.556   5.549  2.2746  0.0938  1.6067
 8081TIP3   OH245657   0.221   2.988   2.193  0.3415  0.5251  0.3005
 8081TIP3    H145658   0.156   3.033   2.139 -0.1689 -0.8180 -0.2387
 8081TIP3    H245659   0.171   2.950   2.265  0.9455  1.8626  1.4962
 8082TIP3   OH245660   5.769   4.680  16.030  0.0520  0.3852  0.1639
 8082TIP3    H145661   5.837   4.671  16.096  1.3379  0.9860 -1.0258
 8082TIP3    H245662   5.722   4.759  16.056  0.4414  0.5297  0.4486
 8083TIP3   OH245663   0.258   2.271   2.787  0.1931  0.0222 -0.3169
 8083TIP3    H145664   0.318   2.248   2.859 -0.6508  0.9349  0.7121
 8083TIP3    H245665   0.315   2.304   2.718  1.0381 -1.0552 -0.1702
 8084TIP3   OH245666   6.629   4.905  11.499  0.6378  0.1590  0.0848
 8084TIP3    H145667   6.711   4.955  11.497 -0.3057  1.8021 -2.8487
 8084TIP3    H245668   6.560   4.971  11.491 -0.7942 -1.4127 -1.4198
 8085TIP3   OH245669   4.003   1.093   5.078 -0.7839  0.0602 -0.2044
 8085TIP3    H145670   4.078   1.036   5.062 -0.1263  0.8626 -0.0183
 8085TIP3    H245671   4.015   1.166   5.016 -2.1066 -0.4427 -1.0993
 8086TIP3   OH245672   3.409   6.249  14.374  0.1030  0.2675  0.1602
 8086TIP3    H145673   3.395   6.223  14.465 -0.0673  1.3300  0.4420
 8086TIP3    H245674   3.329   6.221  14.329  0.1479 -0.1775  0.3469
 8087TIP3   OH245675   2.468   0.997   5.193  0.0312 -0.2584 -0.4619
 8087TIP3    H145676   2.511   1.007   5.107  0.2279 -0.6403 -0.4086
 8087TIP3    H245677   2.375   1.012   5.175 -0.0660 -1.3365 -0.9318
 8088TIP3   OH245678   4.553   4.567  16.573  0.2840 -0.5585 -0.1676
 8088TIP3    H145679   4.548   4.523  16.658  0.0181  0.9092  0.6181
 8088TIP3    H245680   4.482   4.530  16.522 -1.8032  0.9537  1.4740
 8089TIP3   OH245681   1.302   2.059   2.665 -0.0521  0.0964  0.2374
 8089TIP3    H145682   1.224   2.111   2.648  0.3924 -0.1273 -2.9219
 8089TIP3    H245683   1.277   1.970   2.641  1.3126  0.1377 -1.5351
 8090TIP3   OH245684   0.280   4.158  15.434 -0.0290  0.0809  0.0756
 8090TIP3    H145685   0.228   4.078  15.447 -0.2754  0.3772  1.0338
 8090TIP3    H245686   0.288   4.166  15.339  1.0950 -1.7823 -0.0395
 8091TIP3   OH245687   4.379   6.722   0.369 -0.3375 -0.3544 -0.2483
 8091TIP3    H145688   4.340   6.773   0.440 -0.1031  0.1909 -0.5028
 8091TIP3    H245689   4.433   6.656   0.413 -0.7773 -0.4923  0.0880
 8092TIP3   OH245690   2.781   2.641   3.527  0.2271  0.0029  1.1495
 8092TIP3    H145691   2.857   2.699   3.532  0.2178  0.3077 -1.1341
 8092TIP3    H245692   2.798   2.586   3.450 -1.1646 -0.9835  1.5009
 8093TIP3   OH245693   3.503   3.846  14.983  0.4341  0.0833 -0.3167
 8093TIP3    H145694   3.577   3.804  15.028 -0.7467 -1.2743  0.4544
 8093TIP3    H245695   3.445   3.873  15.054  0.5564  1.9317 -0.8689
 8094TIP3   OH245696   4.009   5.364   6.225 -0.2281 -0.2158  0.4188
 8094TIP3    H145697   3.985   5.387   6.315  1.1558 -1.2044  1.0760
 8094TIP3    H245698   3.967   5.280   6.209 -2.5232  1.0558 -0.8017
 8095TIP3   OH245699   4.382   5.706   1.985  0.0974  0.4656 -0.2971
 8095TIP3    H145700   4.335   5.630   2.020  2.8432 -1.0791  0.3439
 8095TIP3    H245701   4.392   5.764   2.060 -2.2944  1.7538 -0.8597
 8096TIP3   OH245702   4.880   6.574  16.965 -0.1635 -0.6763 -0.8100
 8096TIP3    H145703   4.886   6.479  16.977 -2.1170 -0.8790 -1.1154
 8096TIP3    H245704   4.828   6.605  17.039  1.6781  0.4079  0.1048
 8097TIP3   OH245705   2.438   5.009   4.057 -0.2345  0.1910 -0.0536
 8097TIP3    H145706   2.395   5.094   4.066  0.0376  0.1254  3.2611
 8097TIP3    H245707   2.405   4.958   4.132  1.2953 -1.8429 -0.6781
 8098TIP3   OH245708   4.818   5.263   2.813 -0.0562  0.1739 -0.0483
 8098TIP3    H145709   4.781   5.338   2.859 -1.3650 -0.6979  0.3717
 8098TIP3    H245710   4.898   5.242   2.861  0.4346  1.4092 -0.3013
 8099TIP3   OH245711   3.241   0.051  15.318 -0.2841 -0.1227  0.8549
 8099TIP3    H145712   3.257   0.131  15.267  0.0790  0.0392  1.2164
 8099TIP3    H245713   3.278  -0.019  15.265 -1.6676 -0.2183 -0.0331
 8100TIP3   OH245714   0.561   4.302  14.729  0.4750 -0.1563  0.0373
 8100TIP3    H145715   0.475   4.267  14.707  0.2726  0.5652 -0.3418
 8100TIP3    H245716   0.623   4.248  14.680  0.2228 -0.4931  0.0868
 8101TIP3   OH245717   4.889   5.292   5.195 -0.5559  0.4627 -0.1438
 8101TIP3    H145718   4.798   5.313   5.215 -0.7518 -0.4975  0.0403
 8101TIP3    H245719   4.883   5.230   5.122 -0.0469  0.5226 -0.2367
 8102TIP3   OH245720   5.348   1.951   0.434  0.0109 -0.1533 -0.3098
 8102TIP3    H145721   5.364   1.906   0.351 -0.8747  1.3734 -1.3744
 8102TIP3    H245722   5.403   2.029   0.430  2.2627 -1.4966  1.9295
 8103TIP3   OH245723   1.842   1.163  10.527 -0.1089  0.0027  0.3504
 8103TIP3    H145724   1.923   1.206  10.504 -0.4014  0.6546  0.5254
 8103TIP3    H245725   1.775   1.231  10.521 -0.8082 -0.7335 -0.7395
 8104TIP3   OH245726   5.574   2.583  16.017 -0.4850 -0.2700  0.1076
 8104TIP3    H145727   5.540   2.546  16.098 -4.3484  1.8967 -0.2623
 8104TIP3    H245728   5.565   2.513  15.953 -1.7536 -0.6183  0.6357
 8105TIP3   OH245729   1.633   1.144   3.281 -0.0302 -0.1900 -0.4811
 8105TIP3    H145730   1.699   1.207   3.253  0.9969 -0.8939  0.2579
 8105TIP3    H245731   1.556   1.163   3.228  0.6681  0.8631 -1.1373
 8106TIP3   OH245732   2.220   6.530   3.125  0.6582 -0.0107 -0.2146
 8106TIP3    H145733   2.312   6.546   3.102  0.3730 -1.2600 -2.4315
 8106TIP3    H245734   2.202   6.442   3.092 -1.5582  0.5127 -0.5070
 8107TIP3   OH245735   6.476   2.632   6.352  0.1227 -0.4302 -0.2144
 8107TIP3    H145736   6.450   2.716   6.390  1.1691 -0.2583  0.1778
 8107TIP3    H245737   6.470   2.570   6.425 -0.5702 -0.6826 -0.4825
 8108TIP3   OH245738   6.574   0.233   2.312 -0.7395  0.7869  0.0500
 8108TIP3    H145739   6.613   0.320   2.304 -0.8836  0.8404 -0.0718
 8108TIP3    H245740   6.496   0.247   2.366  1.5424  0.0599  3.9531
 8109TIP3   OH245741   4.929   4.341  14.318 -0.5906  0.0205  0.0614
 8109TIP3    H145742   4.862   4.385  14.267 -0.3076 -1.7615 -2.0326
 8109TIP3    H245743   4.897   4.251  14.328  0.1240 -0.0902  1.6524
 8110TIP3   OH245744   6.127   5.943  14.228  0.3866 -0.6846 -0.3383
 8110TIP3    H145745   6.167   5.864  14.191 -2.2490 -1.8703 -0.9391
 8110TIP3    H245746   6.033   5.923  14.230 -0.1782  1.6945  1.4014
 8111TIP3   OH245747   1.897   0.171  12.561  0.3357 -0.2376  0.4820
 8111TIP3    H145748   1.988   0.198  12.550  0.2079 -0.4506 -1.3637
 8111TIP3    H245749   1.902   0.080  12.589  0.6857 -0.0762  0.9531
 8112TIP3   OH245750   5.318   2.982   3.144  0.8271  0.0291 -0.2663
 8112TIP3    H145751   5.251   2.937   3.195  2.1348 -0.1507  1.3963
 8112TIP3    H245752   5.303   3.075   3.162  1.7144 -0.0656  1.0716
 8113TIP3   OH245753   4.151   1.790  12.549  0.0165  0.2328 -0.0692
 8113TIP3    H145754   4.193   1.860  12.499  0.9731 -0.3033 -0.0324
 8113TIP3    H245755   4.211   1.716  12.542 -0.7158 -0.4167  0.3618
 8114TIP3   OH245756   6.431   2.001  13.629  0.5167  0.5743 -0.0083
 8114TIP3    H145757   6.340   2.023  13.610 -0.2761 -1.7698  0.7067
 8114TIP3    H245758   6.456   2.060  13.700 -1.4420 -0.5685  1.7589
 8115TIP3   OH245759   4.616   5.742  15.492 -0.4859  0.1743 -0.7477
 8115TIP3    H145760   4.531   5.727  15.533 -0.5793  2.1507 -0.1322
 8115TIP3    H245761   4.667   5.665  15.515 -1.4490 -0.0788  0.6938
 8116TIP3   OH245762   0.069   4.721  16.643 -0.4353  0.7316 -0.4541
 8116TIP3    H145763   0.058   4.628  16.621 -1.9356  1.0413 -1.1726
 8116TIP3    H245764   0.161   4.740  16.622 -0.0080 -0.6588  0.0498
 8117TIP3   OH245765   1.423   3.210  14.906  0.6708 -0.3115  0.5424
 8117TIP3    H145766   1.481   3.135  14.891  1.7981  0.9103 -1.5181
 8117TIP3    H245767   1.482   3.284  14.921 -0.4071  0.4973  0.9579
 8118TIP3   OH245768   0.933   4.360   3.186  0.1488 -0.0423  0.3270
 8118TIP3    H145769   0.954   4.342   3.095  2.5672  0.9252  0.6128
 8118TIP3    H245770   0.851   4.313   3.202  1.4726 -3.2469 -1.3376
 8119TIP3   OH245771   1.433   5.783  11.158 -0.0601  0.4149  0.1909
 8119TIP3    H145772   1.426   5.704  11.105  1.6351  2.6074 -3.7495
 8119TIP3    H245773   1.352   5.831  11.140  0.0929  0.7631  0.4169
 8120TIP3   OH245774   1.279   4.134  13.992  0.0425 -0.2305 -0.5536
 8120TIP3    H145775   1.296   4.215  14.041 -0.6468 -0.7486  0.5678
 8120TIP3    H245776   1.337   4.140  13.916  0.8006  0.8204  0.0762
 8121TIP3   OH245777   3.640   1.191   2.190  0.5508 -0.4987  0.0420
 8121TIP3    H145778   3.575   1.206   2.258 -0.7832 -0.4099 -1.2054
 8121TIP3    H245779   3.613   1.247   2.117  1.7806 -0.7778 -0.6755
 8122TIP3   OH245780   4.866   2.572   5.118  0.3998 -0.0018 -0.2360
 8122TIP3    H145781   4.860   2.665   5.142  2.4058 -0.1329  1.0066
 8122TIP3    H245782   4.912   2.571   5.034 -1.8561  0.2022 -1.5321
 8123TIP3   OH245783   1.447   0.344  13.979 -0.5553  0.2261 -0.0043
 8123TIP3    H145784   1.422   0.252  13.975 -2.4391  0.7438 -1.4490
 8123TIP3    H245785   1.416   0.374  14.064 -0.8075 -0.2328  0.0681
 8124TIP3   OH245786   3.733   6.702   4.347  0.3647  0.5526 -0.0065
 8124TIP3    H145787   3.713   6.613   4.377 -1.0374  1.3717  1.7397
 8124TIP3    H245788   3.702   6.705   4.257 -2.8045  0.1743  0.9505
 8125TIP3   OH245789   0.298   5.128   2.598 -0.3225 -0.4313 -0.4144
 8125TIP3    H145790   0.361   5.186   2.555 -0.3168 -0.8580 -0.9939
 8125TIP3    H245791   0.255   5.082   2.526 -3.1685  1.7031 -0.2360
 8126TIP3   OH245792   3.985   5.547   0.951 -0.1440 -0.3745 -0.3600
 8126TIP3    H145793   3.958   5.598   1.027 -0.3941  0.2504 -0.8616
 8126TIP3    H245794   3.992   5.611   0.880 -2.3544 -1.2967 -1.4986
 8127TIP3   OH245795   1.820   4.624   3.133  0.5257 -0.3171  0.4683
 8127TIP3    H145796   1.790   4.574   3.058 -1.7194  0.7266  0.5649
 8127TIP3    H245797   1.815   4.563   3.207  0.0704 -0.6039  0.2056
 8128TIP3   OH245798   6.581   6.750  16.371  0.1651 -0.6001 -0.4387
 8128TIP3    H145799   6.603   6.751  16.464  2.0957 -1.8228 -0.8025
 8128TIP3    H245800   6.631   6.822  16.333  0.2022 -0.7373 -0.6574
 8129TIP3   OH245801   1.676   0.115   5.025 -0.7286  0.0485 -0.1633
 8129TIP3    H145802   1.754   0.123   4.970 -0.3383 -0.0788  0.3650
 8129TIP3    H245803   1.687   0.031   5.070 -1.6981 -0.5000 -0.8875
 8130TIP3   OH245804   1.887   5.493   4.453  0.3155  0.8491  0.0843
 8130TIP3    H145805   1.896   5.545   4.533  0.3755 -1.1983  1.4917
 8130TIP3    H245806   1.799   5.513   4.421  0.1949  1.5231  0.8015
 8131TIP3   OH245807   5.004   4.514   3.286 -0.1213 -0.2073 -0.4641
 8131TIP3    H145808   5.090   4.554   3.273 -0.5062  0.3847 -1.2889
 8131TIP3    H245809   4.946   4.562   3.227 -1.0015 -0.6687  0.0030
 8132TIP3   OH245810   4.600   5.726  11.993 -0.0872 -0.0266  0.1282
 8132TIP3    H145811   4.520   5.676  11.974 -0.2561 -0.1847  1.1959
 8132TIP3    H245812   4.660   5.704  11.922 -0.9196 -0.0713 -0.5726
 8133TIP3   OH245813   5.068   4.685   2.484  0.0432  0.4624 -0.0152
 8133TIP3    H145814   5.001   4.701   2.550 -0.4877  1.3402 -0.7413
 8133TIP3    H245815   5.077   4.768   2.438 -0.1746 -0.3242 -1.5485
 8134TIP3   OH245816   5.861   2.644   2.368 -0.3452  0.9542 -0.4553
 8134TIP3    H145817   5.866   2.572   2.430 -0.3577  0.5995 -0.8559
 8134TIP3    H245818   5.943   2.638   2.318 -0.6001  0.8633 -0.8672
 8135TIP3   OH245819   2.928   4.343  15.325 -0.3935 -0.4872  0.0438
 8135TIP3    H145820   2.929   4.414  15.260  0.8744 -0.1251  0.4369
 8135TIP3    H245821   2.852   4.363  15.380  0.3034  0.9633  0.5448
 8136TIP3   OH245822   1.618   5.403   3.660 -0.2600 -0.3079 -0.4238
 8136TIP3    H145823   1.667   5.468   3.710 -1.6140 -0.4806  1.2335
 8136TIP3    H245824   1.576   5.349   3.727  0.0132 -2.2582 -1.7700
 8137TIP3   OH245825   1.085   2.093   2.262 -0.3875  0.1107 -0.1497
 8137TIP3    H145826   0.994   2.064   2.258  0.5103 -2.9744 -0.3247
 8137TIP3    H245827   1.125   2.058   2.182  1.2694  0.2651  0.5687
 8138TIP3   OH245828   5.301   2.461  13.128  0.3111  0.5985  0.0466
 8138TIP3    H145829   5.314   2.408  13.049  0.1884 -0.6833  0.8541
 8138TIP3    H245830   5.210   2.492  13.121  0.5088  1.0459 -0.6239
 8139TIP3   OH245831   3.407   3.025   4.577  0.0223  0.2477  0.1161
 8139TIP3    H145832   3.503   3.018   4.577  0.0198  0.1556  0.8528
 8139TIP3    H245833   3.387   3.072   4.496  0.6964  0.3268 -0.0137
 8140TIP3   OH245834   6.783   2.522   6.805  0.1119  0.4122 -0.6079
 8140TIP3    H145835   6.782   2.587   6.734 -1.3576  1.6981  0.5200
 8140TIP3    H245836   6.700   2.536   6.850  0.6675 -0.9242  0.8850
 8141TIP3   OH245837   1.484   4.610  16.725  0.5072  0.3037 -0.2954
 8141TIP3    H145838   1.403   4.632  16.679 -0.2835  0.2884  1.0512
 8141TIP3    H245839   1.545   4.585  16.655 -0.4319  0.9558 -1.3751
 8142TIP3   OH245840   2.506   4.742   2.169  0.2025 -0.3263  0.6517
 8142TIP3    H145841   2.558   4.718   2.246  0.0172 -1.7756  0.3530
 8142TIP3    H245842   2.421   4.701   2.184 -0.3256  0.6336  0.3577
 8143TIP3   OH245843   5.659   0.308  12.790  0.5591  0.3238  0.3491
 8143TIP3    H145844   5.643   0.389  12.839 -0.8071 -0.3795  1.1382
 8143TIP3    H245845   5.654   0.239  12.857  1.5581 -0.4337 -0.3296
 8144TIP3   OH245846   1.245   6.165  17.020  0.0521  0.1942 -0.3706
 8144TIP3    H145847   1.251   6.090  16.961  2.0911  0.4336 -0.5311
 8144TIP3    H245848   1.162   6.206  16.997  0.3378 -0.2614 -2.4288
 8145TIP3   OH245849   2.877   0.071   5.456  0.2483 -0.0131 -0.3682
 8145TIP3    H145850   2.865   0.165   5.467 -1.4629  0.1093 -2.5781
 8145TIP3    H245851   2.955   0.064   5.401  0.9315  0.0385  0.5746
 8146TIP3   OH245852   0.007   5.155   3.834  0.3523 -0.0708 -0.2014
 8146TIP3    H145853   0.029   5.063   3.842 -2.4156 -0.6875  1.9981
 8146TIP3    H245854   0.064   5.199   3.897  0.8260 -0.4251 -0.3732
 8147TIP3   OH245855   4.646   6.683  17.122 -0.4506  0.1302  0.1958
 8147TIP3    H145856   4.624   6.774  17.142 -2.4951 -0.0314 -0.9664
 8147TIP3    H245857   4.599   6.665  17.040  2.2594 -1.1292 -1.2028
 8148TIP3   OH245858   1.521   6.640  16.721 -0.3485 -0.2478  0.5918
 8148TIP3    H145859   1.450   6.685  16.767 -0.7505 -1.1033  0.8232
 8148TIP3    H245860   1.476   6.586  16.656  0.1684  0.2282 -0.1835
 8149TIP3   OH245861   1.607   6.088   3.843  0.8976 -0.2585 -0.1586
 8149TIP3    H145862   1.610   6.120   3.753  2.7312 -3.4078 -1.3680
 8149TIP3    H245863   1.519   6.053   3.853  0.9553 -0.7067 -1.0864
 8150TIP3   OH245864   6.502   1.082   2.676  0.2049 -0.5536  0.1131
 8150TIP3    H145865   6.504   1.172   2.644 -1.2216 -0.2457  0.8511
 8150TIP3    H245866   6.496   1.029   2.596 -2.1115  0.1561 -0.2352
 8151TIP3   OH245867   0.062   0.774   5.276  0.3683 -0.6209 -0.3049
 8151TIP3    H145868   0.041   0.691   5.233 -1.0376  0.6354 -2.1863
 8151TIP3    H245869  -0.018   0.799   5.321  0.8336 -0.3366  0.3905
 8152TIP3   OH245870   6.226   5.829  12.649 -0.3929  0.3662  0.1220
 8152TIP3    H145871   6.210   5.923  12.644  0.2773  0.4764  0.0282
 8152TIP3    H245872   6.253   5.813  12.739 -0.6113  0.2459  0.1673
 8153TIP3   OH245873   0.927   5.595   0.130 -0.2664 -0.3092 -0.2155
 8153TIP3    H145874   0.918   5.684   0.164  1.4450 -1.1943  3.0388
 8153TIP3    H245875   0.838   5.561   0.128 -0.9720  1.4643 -1.6756
 8154TIP3   OH245876   0.570   6.012   2.001  0.0269  0.5159 -0.8156
 8154TIP3    H145877   0.645   6.067   2.022  0.8452 -0.6003 -0.6672
 8154TIP3    H245878   0.546   5.972   2.084  0.4828 -0.5495 -1.1610
 8155TIP3   OH245879   0.995   4.618   1.145  0.0702  0.5563 -0.1013
 8155TIP3    H145880   1.087   4.639   1.129 -0.2033  0.7662 -1.5787
 8155TIP3    H245881   0.991   4.522   1.143  0.2734  0.5450  0.0486
 8156TIP3   OH245882   5.405   5.851   1.759 -0.1850 -0.0508 -0.8451
 8156TIP3    H145883   5.350   5.838   1.682 -1.4029 -0.9526  0.1292
 8156TIP3    H245884   5.465   5.776   1.759  0.0969  0.1714 -1.1293
 8157TIP3   OH245885   1.642   6.732  12.958 -0.4234 -0.0998  0.1604
 8157TIP3    H145886   1.679   6.794  13.021  0.2686  2.7029 -2.7538
 8157TIP3    H245887   1.560   6.702  12.998  0.8898 -0.0120  3.1588
 8158TIP3   OH245888   4.602   6.411  14.090 -0.9744  0.2571 -0.1050
 8158TIP3    H145889   4.529   6.388  14.147 -1.6448  1.5334 -0.4052
 8158TIP3    H245890   4.676   6.426  14.149 -1.5599  1.1980  0.4134
 8159TIP3   OH245891   6.125   6.266   4.364 -0.7048 -0.2854 -0.2429
 8159TIP3    H145892   6.106   6.242   4.274 -2.5693  1.2791 -0.3275
 8159TIP3    H245893   6.187   6.339   4.358 -2.0130  0.8478 -0.3575
 8160TIP3   OH245894   4.962   1.946  14.842 -0.5096 -0.3320  0.0142
 8160TIP3    H145895   4.931   1.894  14.768 -0.7849 -0.0029 -0.1063
 8160TIP3    H245896   5.010   2.018  14.801 -2.4685  1.0712  0.0278
 8161TIP3   OH245897   0.325   5.805  15.170  0.2739  0.1268  0.0314
 8161TIP3    H145898   0.320   5.724  15.220  0.5998  0.0686 -0.0270
 8161TIP3    H245899   0.309   5.779  15.079  0.7353  0.0672 -0.0388
 8162TIP3   OH245900   3.602   2.635  12.775  0.0373  0.0838  0.4750
 8162TIP3    H145901   3.530   2.591  12.731  0.1414  0.0155  0.3702
 8162TIP3    H245902   3.670   2.568  12.782  1.3061  0.9276 -2.2540
 8163TIP3   OH245903   0.667   3.470  13.392  0.5859  0.2433  0.1356
 8163TIP3    H145904   0.670   3.563  13.415 -1.3571  0.6311 -1.0127
 8163TIP3    H245905   0.713   3.464  13.308 -0.9220  0.5239 -0.7402
 8164TIP3   OH245906   0.686   5.591   0.715 -0.2490  0.3508 -0.6414
 8164TIP3    H145907   0.751   5.531   0.679  0.2802  1.0077 -0.7991
 8164TIP3    H245908   0.604   5.541   0.714  0.4306 -0.8601  0.5392
 8165TIP3   OH245909   0.199   6.177   5.571  0.6742  0.2408 -0.2258
 8165TIP3    H145910   0.196   6.174   5.666  1.1336 -1.5755 -0.2431
 8165TIP3    H245911   0.289   6.201   5.551  0.3039  1.7699 -0.2350
 8166TIP3   OH245912   4.700   4.812  15.194 -0.3548  0.2672 -1.3858
 8166TIP3    H145913   4.776   4.754  15.201 -1.4995 -1.2120 -0.5697
 8166TIP3    H245914   4.724   4.889  15.245  0.7182 -0.0133 -1.4376
 8167TIP3   OH245915   1.997   3.862   3.962 -0.2307  0.1002  0.0031
 8167TIP3    H145916   2.049   3.910   3.898  1.3576 -0.0410  1.1204
 8167TIP3    H245917   2.000   3.917   4.041 -1.8759  0.1251  0.0777
 8168TIP3   OH245918   0.551   4.875  16.605 -0.1145 -0.5303 -0.0016
 8168TIP3    H145919   0.570   4.888  16.698  1.7936 -2.8757  0.0312
 8168TIP3    H245920   0.468   4.827  16.605 -0.2918 -0.2349  0.4642
 8169TIP3   OH245921   1.615   2.466  17.109  0.6514  0.1570 -0.5366
 8169TIP3    H145922   1.707   2.455  17.082  0.4008  0.3037 -1.5038
 8169TIP3    H245923   1.565   2.451  17.028 -0.1752  0.1131 -0.0242
 8170TIP3   OH245924   3.930   2.864  14.727 -0.6806 -0.1635  0.0641
 8170TIP3    H145925   3.992   2.828  14.791 -0.6742 -1.5995 -0.7260
 8170TIP3    H245926   3.984   2.923  14.674  0.2770 -2.0271 -1.1507
 8171TIP3   OH245927   3.894   6.520   3.215 -0.0371  0.6432  0.1433
 8171TIP3    H145928   3.883   6.434   3.255 -1.4747  0.9669  0.5052
 8171TIP3    H245929   3.806   6.557   3.213  0.3786  1.6309 -1.1083
 8172TIP3   OH245930   1.050   3.830   3.676  0.0111  0.0749  0.1700
 8172TIP3    H145931   1.011   3.870   3.754 -0.4118  1.0076 -0.5097
 8172TIP3    H245932   1.104   3.900   3.638 -1.0558  0.1646 -1.2600
 8173TIP3   OH245933   3.437   3.029  14.960 -0.3314  0.4185  0.1585
 8173TIP3    H145934   3.437   2.938  14.929 -2.3440  0.6078 -0.5066
 8173TIP3    H245935   3.460   3.022  15.053  0.0279 -0.7023  0.0022
 8174TIP3   OH245936   4.039   4.802   3.533  0.2524  0.2104  0.1132
 8174TIP3    H145937   3.971   4.765   3.589 -0.5495  2.5281  0.7988
 8174TIP3    H245938   4.093   4.728   3.508 -1.6115 -1.4683  0.8417
 8175TIP3   OH245939   0.454   2.660  15.747  0.2438 -0.6992 -0.2037
 8175TIP3    H145940   0.369   2.703  15.737  0.6122 -0.0730 -0.7045
 8175TIP3    H245941   0.506   2.694  15.675  0.8080 -1.3582 -0.1089
 8176TIP3   OH245942   0.294   4.969  16.445 -0.5012  0.3397  0.1448
 8176TIP3    H145943   0.307   5.000  16.355  0.8801  1.3206  0.6584
 8176TIP3    H245944   0.342   4.886  16.448 -0.6846  0.2223 -0.0541
 8177TIP3   OH245945   5.989   0.380  15.795 -0.1596 -0.6042 -0.2992
 8177TIP3    H145946   5.987   0.450  15.860 -0.2740 -1.3711  0.5457
 8177TIP3    H245947   5.967   0.423  15.712  1.6902  0.7125 -0.1551
 8178TIP3   OH245948   2.881   0.821  12.822 -0.1467  0.1515 -0.0261
 8178TIP3    H145949   2.812   0.853  12.879  1.3032  1.9210  0.8346
 8178TIP3    H245950   2.919   0.900  12.784  1.1476 -0.7950 -0.7726
 8179TIP3   OH245951   2.178   2.778  13.254  0.3824 -0.3414  0.2730
 8179TIP3    H145952   2.205   2.775  13.346  0.2606 -2.6740  0.2771
 8179TIP3    H245953   2.095   2.730  13.251  0.4288 -0.3861 -1.0642
 8180TIP3   OH245954   2.448   5.903   5.097 -0.0015  0.1589 -0.1031
 8180TIP3    H145955   2.538   5.922   5.123 -0.5710  1.2305  1.2406
 8180TIP3    H245956   2.439   5.809   5.108  0.9214  0.0608 -0.1361
 8181TIP3   OH245957   2.625   3.630   2.666 -0.0475 -1.0058 -0.1326
 8181TIP3    H145958   2.555   3.587   2.714  0.7068 -0.2651  1.7084
 8181TIP3    H245959   2.706   3.594   2.702  0.5552 -0.6902 -1.1108
 8182TIP3   OH245960   3.903   3.708   0.290  0.4900  0.0286 -0.2209
 8182TIP3    H145961   3.847   3.784   0.274 -0.2158 -0.1759  1.1038
 8182TIP3    H245962   3.844   3.633   0.287  0.9967 -0.3727 -0.4637
 8183TIP3   OH245963   5.557   1.526  15.561  0.1216  0.1123 -0.5654
 8183TIP3    H145964   5.522   1.600  15.511 -0.1266 -0.8319 -1.8250
 8183TIP3    H245965   5.488   1.460  15.556  1.5581 -1.3307 -2.0278
 8184TIP3   OH245966   4.776   5.097  16.912 -0.1252  0.2453  0.2396
 8184TIP3    H145967   4.701   5.092  16.853  1.0633 -0.1277 -1.2859
 8184TIP3    H245968   4.737   5.108  16.999 -1.9079  1.0754 -0.6198
 8185TIP3   OH245969   5.197   1.154  16.688 -0.1528  0.3119  0.5071
 8185TIP3    H145970   5.150   1.224  16.734  1.2938  0.7196  1.4472
 8185TIP3    H245971   5.142   1.076  16.700 -1.3142  1.0770  0.2694
 8186TIP3   OH245972   6.753   1.426   1.273 -0.2758 -0.2742  0.0710
 8186TIP3    H145973   6.738   1.345   1.224 -0.1729 -0.5239  0.4507
 8186TIP3    H245974   6.847   1.425   1.293 -0.2184  0.0864 -0.1862
 8187TIP3   OH245975   5.419   0.987   3.110 -0.1215  0.1620  0.1174
 8187TIP3    H145976   5.456   0.934   3.040 -1.0404  0.7227 -0.8415
 8187TIP3    H245977   5.476   0.973   3.185  0.9097 -0.4430 -0.7561
 8188TIP3   OH245978   1.157   4.684  12.121 -0.1556 -0.3900  0.0484
 8188TIP3    H145979   1.202   4.740  12.185 -2.1807  2.5539 -0.8931
 8188TIP3    H245980   1.064   4.693  12.143 -0.7922 -0.5606 -2.3309
 8189TIP3   OH245981   4.418   4.767   5.771  0.2440  0.4233 -0.0469
 8189TIP3    H145982   4.403   4.747   5.864 -1.3588  1.8203  0.0634
 8189TIP3    H245983   4.492   4.712   5.746 -0.2310 -1.1118  1.6577
 8190TIP3   OH245984   1.944   0.659   3.357 -0.3997 -0.0253  0.5572
 8190TIP3    H145985   2.037   0.643   3.371 -0.6006 -0.7770  1.1549
 8190TIP3    H245986   1.923   0.614   3.275 -0.2990 -0.1166  0.5821
 8191TIP3   OH245987   3.258   4.033  15.866 -0.2061  0.2444  0.3212
 8191TIP3    H145988   3.186   4.087  15.897 -1.2760 -1.0392  0.1853
 8191TIP3    H245989   3.293   3.992  15.946 -0.2186  0.1827  0.2957
 8192TIP3   OH245990   6.785   0.710   3.515  0.2036 -1.1512  0.5618
 8192TIP3    H145991   6.742   0.659   3.584 -1.3406  0.9133  1.2561
 8192TIP3    H245992   6.802   0.795   3.556 -2.2028  0.7170 -1.9248
 8193TIP3   OH245993   5.154   3.624  15.081  0.4290  0.1364  0.3452
 8193TIP3    H145994   5.202   3.615  15.164  1.1714 -0.0343 -0.0900
 8193TIP3    H245995   5.081   3.683  15.102  0.5641  0.0381  1.1376
 8194TIP3   OH245996   3.279   5.101   5.533  0.0550  0.0644  0.1212
 8194TIP3    H145997   3.321   5.125   5.450 -0.8825 -1.0241 -0.7098
 8194TIP3    H245998   3.352   5.083   5.592  0.7474  0.4334 -0.5892
 8195TIP3   OH245999   3.578   3.635   5.412 -0.1058 -0.1047 -0.5844
 8195TIP3    H146000   3.606   3.580   5.486 -0.6252 -2.9787 -2.3787
 8195TIP3    H246001   3.650   3.627   5.349 -0.5552  0.6750 -1.2002
 8196TIP3   OH246002   0.500   4.669  12.467  0.3630 -0.6822 -0.2053
 8196TIP3    H146003   0.421   4.621  12.490 -0.1065  0.5053  0.7900
 8196TIP3    H246004   0.564   4.601  12.443 -0.8047 -1.6723 -0.5902
 8197TIP3   OH246005   4.756   2.878  16.822 -0.4826 -0.1191  0.4042
 8197TIP3    H146006   4.751   2.960  16.872 -2.9960  0.8610 -1.2499
 8197TIP3    H246007   4.734   2.903  16.733 -0.9327 -2.5573 -0.2438
 8198TIP3   OH246008   5.023   5.595   5.470  0.3600  0.0507 -0.2304
 8198TIP3    H146009   4.951   5.531   5.467  0.8392 -0.6293  1.5484
 8198TIP3    H246010   5.045   5.602   5.562  1.4342  1.5776 -0.5682
 8199TIP3   OH246011   1.191   0.689   1.977  0.2450  0.4489 -0.2698
 8199TIP3    H146012   1.223   0.734   1.899  0.2896  0.5767 -0.1783
 8199TIP3    H246013   1.101   0.720   1.988  0.5760  1.2203  0.3188
 8200TIP3   OH246014   2.645   1.959  16.723 -0.2453  0.3834  0.6151
 8200TIP3    H146015   2.694   1.926  16.798  0.2477  0.9029  0.5250
 8200TIP3    H246016   2.644   1.887  16.660  2.1656  0.9957 -0.2383
 8201TIP3   OH246017   1.778   2.202  15.603  0.1045 -0.2109 -0.0738
 8201TIP3    H146018   1.735   2.262  15.541 -2.5593 -0.4947  1.3424
 8201TIP3    H246019   1.750   2.115  15.574  1.1495 -0.5485 -0.0962
 8202TIP3   OH246020   2.836   0.334  10.855  0.1311 -0.2914 -0.4649
 8202TIP3    H146021   2.830   0.289  10.771  0.2304  1.5728 -1.5333
 8202TIP3    H246022   2.758   0.306  10.904  0.0098 -1.3021 -1.2124
 8203TIP3   OH246023   2.728   0.825  14.296  0.1412  0.4181 -0.0039
 8203TIP3    H146024   2.662   0.797  14.232  0.7132  0.2240 -0.5215
 8203TIP3    H246025   2.700   0.913  14.321 -1.0139 -0.1431  0.7472
 8204TIP3   OH246026   0.455   6.299  10.477 -0.3393 -0.2791  0.2827
 8204TIP3    H146027   0.373   6.348  10.474 -0.0459  0.1883 -1.3522
 8204TIP3    H246028   0.430   6.208  10.460 -0.7659 -0.5807  2.2748
 8205TIP3   OH246029   2.222   2.614  14.399  0.0086 -0.2351 -0.6226
 8205TIP3    H146030   2.215   2.649  14.487  0.0014 -1.4871 -0.1066
 8205TIP3    H246031   2.315   2.599  14.385 -0.1042 -1.4054 -0.2499
 8206TIP3   OH246032   1.782   2.862  16.120 -0.1798 -0.0206 -0.2079
 8206TIP3    H146033   1.788   2.909  16.203 -0.4110 -1.2669  0.5375
 8206TIP3    H246034   1.689   2.867  16.096 -0.3373 -0.6678  0.2323
 8207TIP3   OH246035   1.672   0.725  15.244  0.4474  0.4055  0.1110
 8207TIP3    H146036   1.741   0.791  15.253  0.5730  0.2578  0.2188
 8207TIP3    H246037   1.707   0.647  15.287  0.5077  0.1102 -0.4571
 8208TIP3   OH246038   0.968   1.079  14.359  0.3728  0.4284 -0.3849
 8208TIP3    H146039   0.965   0.986  14.337  1.2024  0.3936 -0.3583
 8208TIP3    H246040   1.053   1.092  14.401  0.2655  1.1982 -0.3875
 8209TIP3   OH246041   1.198   6.573   2.810 -0.0523 -0.2627  0.0405
 8209TIP3    H146042   1.178   6.480   2.819 -1.2452 -0.0495 -0.2029
 8209TIP3    H246043   1.238   6.581   2.723  0.2826 -0.5796  0.1642
 8210TIP3   OH246044   4.278   0.032   3.058  0.3063  0.8270 -0.1111
 8210TIP3    H146045   4.270  -0.062   3.075 -0.5050  0.8774 -0.1736
 8210TIP3    H246046   4.271   0.039   2.963 -0.1273  0.9852 -0.0728
 8211TIP3   OH246047   5.885   2.765  12.515 -0.0170 -0.3848  0.2948
 8211TIP3    H146048   5.955   2.701  12.525  1.2172  0.9649  0.7122
 8211TIP3    H246049   5.912   2.839  12.570 -2.5929 -0.4541  1.8209
 8212TIP3   OH246050   5.368   0.512  13.281 -0.1458  0.6302  0.1207
 8212TIP3    H146051   5.408   0.499  13.195  0.4239  1.9069  0.1700
 8212TIP3    H246052   5.274   0.505  13.266 -0.0346  0.6282 -0.5698
 8213TIP3   OH246053   4.244   5.113   1.891 -0.2549  0.5986  0.5156
 8213TIP3    H146054   4.249   5.198   1.847  3.0967  1.0736  1.5139
 8213TIP3    H246055   4.205   5.132   1.976  1.1328  1.3616  1.0225
 8214TIP3   OH246056   3.755   5.093  14.923 -0.0556  0.1241  0.3069
 8214TIP3    H146057   3.793   5.005  14.927  5.5783  2.1415  0.5059
 8214TIP3    H246058   3.727   5.111  15.012 -2.7237 -1.7883 -0.0191
 8215TIP3   OH246059   0.021   3.276   5.096 -0.1942  0.1632 -0.0017
 8215TIP3    H146060  -0.071   3.249   5.105 -0.1023  0.1442  1.0832
 8215TIP3    H246061   0.047   3.245   5.009 -1.1073 -0.1626 -0.1732
 8216TIP3   OH246062   5.681   3.619  10.516 -0.2064  0.3602  0.1274
 8216TIP3    H146063   5.602   3.666  10.491 -0.7348 -0.5143  0.1136
 8216TIP3    H246064   5.649   3.541  10.562  0.6753  0.9327  1.8291
 8217TIP3   OH246065   5.155   3.389  15.649  0.2428 -0.5796  0.3728
 8217TIP3    H146066   5.092   3.437  15.596  1.7498  0.0586 -0.9398
 8217TIP3    H246067   5.125   3.299  15.648 -0.3860 -0.3694 -0.6290
 8218TIP3   OH246068   1.026   4.412  12.011  0.4079  0.4452  0.0166
 8218TIP3    H146069   1.119   4.388  12.009  0.1426 -0.6475 -0.0585
 8218TIP3    H246070   1.002   4.427  11.919  0.4690  0.5481  0.0183
 8219TIP3   OH246071   1.184   1.297  14.530 -0.0957  0.7653  0.0514
 8219TIP3    H146072   1.214   1.270  14.617 -0.0514  0.3968 -0.0766
 8219TIP3    H246073   1.200   1.220  14.474 -3.7563 -0.5457  0.5190
 8220TIP3   OH246074   4.092   4.546   0.546 -0.1499  0.1119 -0.3886
 8220TIP3    H146075   4.123   4.488   0.477 -0.0640 -1.6288  1.0093
 8220TIP3    H246076   4.003   4.515   0.565 -0.3715  0.9015 -0.0869
 8221TIP3   OH246077   5.021   4.604  12.117 -0.2523 -0.0254  0.3977
 8221TIP3    H146078   5.032   4.623  12.024 -0.9086  1.0741  0.5338
 8221TIP3    H246079   5.079   4.529  12.133 -1.1847 -1.1449 -1.1887
 8222TIP3   OH246080   3.742   1.117  16.531  0.5188 -0.6741 -0.2624
 8222TIP3    H146081   3.757   1.036  16.482  2.8142  0.6878 -2.0157
 8222TIP3    H246082   3.819   1.126  16.587 -0.5237 -0.5082  1.1962
 8223TIP3   OH246083   3.681   2.822   5.706 -0.1079  0.2173  0.1267
 8223TIP3    H146084   3.586   2.834   5.710  0.0287  0.8472  2.1040
 8223TIP3    H246085   3.713   2.852   5.790  1.8837  0.1135 -0.5474
 8224TIP3   OH246086   2.141   0.247  17.061  0.0703  0.9095 -0.3115
 8224TIP3    H146087   2.215   0.301  17.088 -0.6956  1.3981  0.9389
 8224TIP3    H246088   2.101   0.218  17.144  0.0575 -1.0418 -0.9330
 8225TIP3   OH246089   4.331   1.744  13.663  0.2404 -0.0904  0.5392
 8225TIP3    H146090   4.391   1.709  13.729  0.8140  1.4862  0.8891
 8225TIP3    H246091   4.311   1.669  13.607  0.3372 -1.2867  2.0489
 8226TIP3   OH246092   2.129   6.716   4.823 -0.0243  0.3601  0.2757
 8226TIP3    H146093   2.106   6.705   4.731  1.1218  0.9069 -0.0961
 8226TIP3    H246094   2.152   6.809   4.831  0.5204  0.1746  0.9683
 8227TIP3   OH246095   4.910   4.301   1.757  0.2528 -0.2062  0.0525
 8227TIP3    H146096   4.987   4.353   1.780  0.7510 -0.2264 -1.4508
 8227TIP3    H246097   4.865   4.286   1.840  3.0046 -2.0598  1.3568
 8228TIP3   OH246098   3.764   2.304   6.409  0.2541  0.6829  0.5065
 8228TIP3    H146099   3.669   2.306   6.416  0.0158  0.4673 -1.7296
 8228TIP3    H246100   3.792   2.392   6.434 -0.8186  1.5887 -1.2566
 8229TIP3   OH246101   0.961   3.895   6.154  0.7144  0.2194 -0.3199
 8229TIP3    H146102   0.971   3.801   6.171 -2.4294  0.0036  1.0512
 8229TIP3    H246103   0.924   3.900   6.066 -2.3150 -0.2022  0.8071
 8230TIP3   OH246104   1.310   4.067   6.336 -0.5309  0.0175 -0.2533
 8230TIP3    H146105   1.318   3.999   6.403  3.2988 -0.1089 -0.6216
 8230TIP3    H246106   1.287   4.146   6.385  1.1211 -0.3034  1.1255
 8231TIP3   OH246107   4.005   4.110   0.166  0.2138 -0.8640  1.0214
 8231TIP3    H146108   4.037   4.034   0.213  0.1378 -1.7386 -0.2794
 8231TIP3    H246109   3.942   4.150   0.225 -1.2090 -2.9323  1.0073
 8232TIP3   OH246110   3.077   0.389  12.846 -0.5009 -0.2175  0.3058
 8232TIP3    H146111   2.982   0.382  12.839 -0.6113  0.0477  1.3087
 8232TIP3    H246112   3.098   0.475  12.809 -0.5874 -0.4786 -0.3639
 8233TIP3   OH246113   4.811   0.745   4.560 -0.1432 -0.2636  0.1754
 8233TIP3    H146114   4.763   0.794   4.627  0.1335  1.7856 -1.0292
 8233TIP3    H246115   4.831   0.661   4.601 -0.7511  0.5741  2.3306
 8234TIP3   OH246116   5.034   5.318   2.996 -0.3142 -0.5789  0.2726
 8234TIP3    H146117   5.013   5.375   3.071 -0.1947  1.3593 -1.0755
 8234TIP3    H246118   5.106   5.263   3.027  1.3915  1.8414  0.9040
 8235TIP3   OH246119   3.852   2.789   0.651 -0.5438 -0.3203 -0.1750
 8235TIP3    H146120   3.817   2.808   0.564  2.4275 -0.5006 -1.5061
 8235TIP3    H246121   3.876   2.697   0.648  0.0467 -0.2058  0.6867
 8236TIP3   OH246122   6.281   1.395   2.408  0.0163 -0.1375 -0.0882
 8236TIP3    H146123   6.219   1.437   2.468  1.4874  2.5673 -0.3028
 8236TIP3    H246124   6.234   1.392   2.325 -1.0756 -1.4996  0.5262
 8237TIP3   OH246125   4.237   1.658  10.833  0.1358  0.3385 -0.3529
 8237TIP3    H146126   4.218   1.751  10.842  1.0843  0.3049  3.7123
 8237TIP3    H246127   4.157   1.614  10.860  0.2950 -0.0188 -0.4603
 8238TIP3   OH246128   0.759   5.207  10.972 -0.2865 -0.1043 -0.9126
 8238TIP3    H146129   0.719   5.283  10.930 -1.3035  0.0257  0.2156
 8238TIP3    H246130   0.743   5.135  10.911 -2.0202  0.0135 -0.6682
 8239TIP3   OH246131   3.931   3.435   5.681  0.1272 -0.2123 -0.4581
 8239TIP3    H146132   3.935   3.529   5.695 -0.1262 -0.4077  1.1167
 8239TIP3    H246133   3.905   3.399   5.766 -1.3553 -1.5744 -1.4279
 8240TIP3   OH246134   2.526   0.217   3.410 -0.4417 -0.6018  0.0796
 8240TIP3    H146135   2.549   0.254   3.325  0.6327  0.1246  0.6534
 8240TIP3    H246136   2.609   0.211   3.457 -0.8469 -2.0914  0.6715
 8241TIP3   OH246137   0.146   5.550  13.587 -0.1322  0.1009 -0.1924
 8241TIP3    H146138   0.103   5.469  13.612  1.4445 -1.5109 -2.3122
 8241TIP3    H246139   0.180   5.586  13.668 -1.6728 -0.8328  0.9188
 8242TIP3   OH246140   4.654   2.623  11.727  0.2277 -0.2070 -0.4104
 8242TIP3    H146141   4.579   2.670  11.692 -0.1337  0.0615  0.6883
 8242TIP3    H246142   4.722   2.631  11.659 -0.2099  0.9021 -0.7250
 8243TIP3   OH246143   4.778   6.086  17.185  0.0038  0.1632  0.1201
 8243TIP3    H146144   4.760   6.008  17.237  1.1403 -0.0336  0.2444
 8243TIP3    H246145   4.760   6.159  17.244 -1.6868  0.0425 -0.1946
 8244TIP3   OH246146   3.888   1.505  17.063  0.2081 -0.6767 -0.2927
 8244TIP3    H146147   3.799   1.495  17.096 -0.5168  2.3661 -0.9921
 8244TIP3    H246148   3.878   1.557  16.983  2.4314 -2.5911 -1.9568
 8245TIP3   OH246149   1.089   0.713   3.102  0.5432  0.1020 -0.1585
 8245TIP3    H146150   1.037   0.634   3.085  0.3417  0.1648  0.1538
 8245TIP3    H246151   1.175   0.680   3.127  0.3011 -0.0357  0.5071
 8246TIP3   OH246152   4.710   2.927   0.624 -0.3758  0.2109 -0.3062
 8246TIP3    H146153   4.639   2.953   0.565  1.2574  2.8069 -1.2953
 8246TIP3    H246154   4.732   3.006   0.673 -0.1524 -1.3079  2.2476
 8247TIP3   OH246155   4.741   0.917  11.797  0.3200 -1.0477  0.0084
 8247TIP3    H146156   4.712   0.931  11.707 -1.7748  2.1660  0.9982
 8247TIP3    H246157   4.760   1.004  11.830 -0.5358 -1.9042  3.1139
 8248TIP3   OH246158   0.012   4.991   4.077 -0.1050  0.2248  0.1675
 8248TIP3    H146159   0.036   5.083   4.072  0.2962  0.0971 -0.4012
 8248TIP3    H246160   0.048   4.952   3.997  0.9743 -0.7059  1.0543
 8249TIP3   OH246161   0.594   5.120  16.425  0.2462 -0.2454  0.0234
 8249TIP3    H146162   0.570   5.180  16.496 -0.1143  0.7186 -0.8939
 8249TIP3    H246163   0.531   5.049  16.432 -0.3603  0.2950  0.1068
 8250TIP3   OH246164   0.208   1.880   4.564 -0.1329  0.4187 -0.3262
 8250TIP3    H146165   0.300   1.868   4.544  0.2888  1.1427  1.0076
 8250TIP3    H246166   0.200   1.851   4.655 -1.2278  0.3141 -0.4474
 8251TIP3   OH246167   2.196   3.419   0.146 -0.2446  0.2478 -0.3003
 8251TIP3    H146168   2.215   3.352   0.081 -0.8086 -1.0728  0.8601
 8251TIP3    H246169   2.214   3.378   0.230 -4.5820 -0.0294  0.7661
 8252TIP3   OH246170   2.738   1.872   1.505  0.0938 -0.5288  0.1150
 8252TIP3    H146171   2.795   1.845   1.433 -1.0299  0.1206 -1.0732
 8252TIP3    H246172   2.753   1.808   1.574  3.1230  0.2538  0.3414
 8253TIP3   OH246173   4.391   1.081   3.368 -0.2710  0.3016 -0.1085
 8253TIP3    H146174   4.398   1.007   3.428 -0.2270 -0.1022 -0.6014
 8253TIP3    H246175   4.468   1.073   3.311 -0.1218  0.8815  0.0007
 8254TIP3   OH246176   6.656   1.812  16.972  0.9087 -0.4969 -0.3071
 8254TIP3    H146177   6.749   1.786  16.973  1.1953  0.4870  0.8919
 8254TIP3    H246178   6.609   1.730  16.987  1.6246 -0.8942 -0.1551
 8255TIP3   OH246179   0.515   4.339   3.632 -0.1426 -0.1974  0.3460
 8255TIP3    H146180   0.552   4.427   3.644  0.5729 -0.1780 -1.6606
 8255TIP3    H246181   0.476   4.342   3.545 -0.7337 -1.6676  0.5480
 8256TIP3   OH246182   1.608   1.983   4.019 -0.6490 -0.3324  0.0764
 8256TIP3    H146183   1.548   1.992   4.093  0.4656  2.0774  0.7861
 8256TIP3    H246184   1.609   1.889   4.000 -3.3705 -0.6416  1.0500
 8257TIP3   OH246185   0.980   6.573   1.195 -0.5402 -0.3615  0.0786
 8257TIP3    H146186   0.982   6.657   1.150 -1.6189 -0.4889 -0.2346
 8257TIP3    H246187   0.939   6.591   1.280 -0.9082 -0.5977 -0.0478
 8258TIP3   OH246188   1.100   3.672  13.876 -0.2279 -0.1561 -0.4901
 8258TIP3    H146189   1.147   3.631  13.948 -0.0804 -1.5509 -1.3332
 8258TIP3    H246190   1.042   3.735  13.918  1.5406  0.7820  0.6530
 8259TIP3   OH246191   1.381   5.695   5.435  0.2123 -0.1778 -0.6852
 8259TIP3    H146192   1.429   5.622   5.475 -1.9171 -0.3415  1.8553
 8259TIP3    H246193   1.412   5.772   5.482 -1.5884 -0.2434  0.7280
 8260TIP3   OH246194   2.194   0.577  16.899  0.2296  0.0805  0.0308
 8260TIP3    H146195   2.254   0.513  16.860 -0.8416 -0.5840 -0.6096
 8260TIP3    H246196   2.235   0.601  16.982  2.1090  0.7913 -1.0397
 8261TIP3   OH246197   2.502   5.269   5.223  0.8886  0.2181  0.2341
 8261TIP3    H146198   2.580   5.320   5.204 -0.4213  1.5709 -2.0082
 8261TIP3    H246199   2.523   5.221   5.303  3.9349  0.5978 -0.2329
 8262TIP3   OH246200   1.702   3.641   1.479  0.4178  0.6460 -0.2694
 8262TIP3    H146201   1.798   3.635   1.474  0.3647 -1.8335  0.1821
 8262TIP3    H246202   1.685   3.729   1.513  2.4799  1.4159 -1.0351
 8263TIP3   OH246203   6.015   4.589  16.543  0.0199 -0.5143 -0.2873
 8263TIP3    H146204   5.993   4.659  16.481  0.6650  1.3762  1.5038
 8263TIP3    H246205   6.001   4.509  16.493 -2.4157  0.7775 -1.9450
 8264TIP3   OH246206   1.719   2.888   4.730  0.2813  0.0231  0.1615
 8264TIP3    H146207   1.756   2.892   4.818  0.9719 -1.0277 -0.0742
 8264TIP3    H246208   1.625   2.880   4.745  0.2418  1.2676  0.7740
 8265TIP3   OH246209   6.386   5.994   0.122 -0.4081 -0.2188  0.3868
 8265TIP3    H146210   6.326   6.001   0.048 -1.5272 -1.1294  1.1646
 8265TIP3    H246211   6.373   5.905   0.155 -0.1892  0.2712  1.8711
 8266TIP3   OH246212   2.534   4.594  12.365 -0.3712  0.5057  0.1002
 8266TIP3    H146213   2.468   4.526  12.354 -0.6752  0.9164 -0.7477
 8266TIP3    H246214   2.539   4.636  12.279 -0.3248  1.6747  0.6585
 8267TIP3   OH246215   2.714   1.967  11.797 -0.1955  0.5783 -0.3732
 8267TIP3    H146216   2.698   1.952  11.704 -1.6406 -1.0105  0.0832
 8267TIP3    H246217   2.629   1.996  11.832  0.2561  0.8920  0.5044
 8268TIP3   OH246218   4.927   1.591  14.244 -0.1114  0.1504 -0.1406
 8268TIP3    H146219   4.994   1.533  14.209 -0.2886  0.9973 -2.0275
 8268TIP3    H246220   4.848   1.569  14.194 -1.2057 -0.6101  1.8058
 8269TIP3   OH246221   3.166   2.150  13.325  0.0263  0.1262  0.3515
 8269TIP3    H146222   3.078   2.152  13.362 -0.3846 -1.2350 -0.4878
 8269TIP3    H246223   3.223   2.127  13.399 -0.4866 -0.3147  0.6059
 8270TIP3   OH246224   0.991   5.233   1.850  0.4349  0.1718  1.0385
 8270TIP3    H146225   0.999   5.280   1.768  0.2480 -2.3818 -0.5716
 8270TIP3    H246226   0.896   5.230   1.867  0.3291 -0.7144  0.3923
 8271TIP3   OH246227   4.013   4.272   4.021  0.4748 -0.0650  0.1463
 8271TIP3    H146228   3.975   4.358   4.005 -1.9433 -0.8533  1.3051
 8271TIP3    H246229   3.969   4.239   4.100  0.4024 -2.8564 -0.9182
 8272TIP3   OH246230   4.933   4.534   4.351 -0.0145 -0.3964  0.3304
 8272TIP3    H146231   4.851   4.564   4.312 -0.6426 -0.5341  1.4866
 8272TIP3    H246232   4.999   4.549   4.283 -0.5346  2.1474  0.2946
 8273TIP3   OH246233   4.514   4.804  12.221 -0.4187  0.0632  0.5003
 8273TIP3    H146234   4.465   4.778  12.299 -1.1254 -1.1635 -0.3033
 8273TIP3    H246235   4.448   4.847  12.165 -1.0160 -2.6905 -1.1224
 8274TIP3   OH246236   3.801   2.440   4.587  0.7727  0.4616 -0.3473
 8274TIP3    H146237   3.876   2.496   4.605  0.9594  0.0966  0.0208
 8274TIP3    H246238   3.727   2.487   4.627  0.7111  1.0791 -1.1674
 8275TIP3   OH246239   0.162   2.877  13.767 -0.1512  0.0823 -0.2775
 8275TIP3    H146240   0.162   2.949  13.829 -1.1047 -0.6244  0.5677
 8275TIP3    H246241   0.255   2.855  13.756  0.0481  0.4170  0.6546
 8276TIP3   OH246242   5.575   1.730   1.543 -0.5314  0.1507 -0.2834
 8276TIP3    H146243   5.601   1.673   1.615  0.2870  0.6546 -0.1741
 8276TIP3    H246244   5.496   1.689   1.508 -0.9433 -0.1044  0.8902
 8277TIP3   OH246245   4.949   2.648  14.024  0.0241  0.3770  0.6552
 8277TIP3    H146246   4.990   2.703  13.957  0.1876  0.0753  0.5090
 8277TIP3    H246247   5.022   2.603  14.067 -0.1327  0.0494  0.5805
 8278TIP3   OH246248   3.729   5.377   1.119 -0.0971  0.7682 -0.0586
 8278TIP3    H146249   3.647   5.373   1.069  0.5142 -3.2642 -1.1355
 8278TIP3    H246250   3.796   5.396   1.053  0.1092  1.4809  0.3532
 8279TIP3   OH246251   5.859   5.976  14.339  0.1895 -0.3704 -0.7685
 8279TIP3    H146252   5.807   6.020  14.272  0.8145  0.2160 -0.8768
 8279TIP3    H246253   5.884   6.045  14.399 -2.0117 -1.1731  1.2248
 8280TIP3   OH246254   1.326   3.986   2.748 -0.2210 -0.1437  0.3280
 8280TIP3    H146255   1.351   3.910   2.800  1.3302 -1.0049 -1.5241
 8280TIP3    H246256   1.372   3.974   2.665  0.8667  3.3311  0.2754
 8281TIP3   OH246257   2.690   3.813   0.744  0.1414 -1.2675  0.3781
 8281TIP3    H146258   2.762   3.874   0.728 -1.5638  0.7488  0.0113
 8281TIP3    H246259   2.653   3.841   0.828 -2.2462 -0.0529 -0.9773
 8282TIP3   OH246260   4.442   0.897  15.731 -0.0222 -0.4322 -0.1036
 8282TIP3    H146261   4.374   0.845  15.774 -0.3027 -0.5615 -0.6809
 8282TIP3    H246262   4.449   0.859  15.643 -1.4374  1.5252 -1.1506
 8283TIP3   OH246263   4.813   6.465   0.890 -0.0806  0.3841  0.1250
 8283TIP3    H146264   4.856   6.496   0.970 -1.1917 -2.1231  1.8146
 8283TIP3    H246265   4.883   6.428   0.837  0.5902  1.5822  0.1277
 8284TIP3   OH246266   2.961   3.131  16.172  0.0330  0.5920 -0.0141
 8284TIP3    H146267   2.866   3.126  16.179  0.1688 -3.1915  1.9252
 8284TIP3    H246268   2.990   3.166  16.257  0.3941 -0.4407  0.3056
 8285TIP3   OH246269   6.102   5.203   0.592  0.6365  0.5640  0.2215
 8285TIP3    H146270   6.112   5.142   0.520 -0.6967  0.1908  0.3288
 8285TIP3    H246271   6.151   5.281   0.565 -0.5879  0.7918 -1.5371
 8286TIP3   OH246272   4.323   1.399   4.056  0.1023 -0.2480 -0.0790
 8286TIP3    H146273   4.403   1.349   4.043  0.5311  0.3235  0.2573
 8286TIP3    H246274   4.353   1.487   4.081 -0.6151  0.2904 -0.9974
 8287TIP3   OH246275   6.782   0.291  15.881 -0.0951  0.0718  0.4242
 8287TIP3    H146276   6.854   0.294  15.818  0.8433  0.0218  1.4836
 8287TIP3    H246277   6.732   0.214  15.855 -1.7404  1.8730 -2.3783
 8288TIP3   OH246278   4.097   4.987  14.990 -0.2551 -0.2183 -0.6854
 8288TIP3    H146279   4.027   4.931  14.957  1.0482 -1.1060 -2.0774
 8288TIP3    H246280   4.178   4.943  14.964  0.9480 -0.5807  3.0037
 8289TIP3   OH246281   0.368   0.571  16.227 -0.4052 -0.2997 -0.0707
 8289TIP3    H146282   0.283   0.553  16.268  1.5876 -1.8606  3.9335
 8289TIP3    H246283   0.412   0.486  16.226  1.7796  0.7747 -0.3854
 8290TIP3   OH246284   1.790   4.892  12.119 -0.0446 -0.3175  0.8498
 8290TIP3    H146285   1.736   4.820  12.152 -0.3234 -1.7414 -2.3411
 8290TIP3    H246286   1.878   4.872  12.152 -0.4301 -1.1982  1.3801
 8291TIP3   OH246287   0.883   6.125   5.422  0.4025 -0.2238  0.2381
 8291TIP3    H146288   0.948   6.101   5.356 -0.1984  0.3900 -0.6045
 8291TIP3    H246289   0.826   6.187   5.377 -2.2560 -2.5325  0.1132
 8292TIP3   OH246290   5.534   5.240  13.760  0.0790  0.0576 -0.1665
 8292TIP3    H146291   5.606   5.194  13.716 -0.5605  0.3784 -1.6251
 8292TIP3    H246292   5.544   5.218  13.852  2.0606  0.1041 -0.3217
 8293TIP3   OH246293   1.089   4.465  13.171 -0.0916  0.6458 -0.4932
 8293TIP3    H146294   1.095   4.404  13.245  1.4168  1.5493  0.1779
 8293TIP3    H246295   1.090   4.552  13.211 -2.0969  1.1695 -1.4414
 8294TIP3   OH246296   4.269   1.260  14.313 -0.2694 -0.0777  0.6741
 8294TIP3    H146297   4.322   1.322  14.264  0.3559  0.3315  1.8271
 8294TIP3    H246298   4.282   1.177  14.268 -0.0952  0.3610 -0.1186
 8295TIP3   OH246299   1.623   5.552  13.805 -0.2760  0.2419  0.6439
 8295TIP3    H146300   1.682   5.628  13.809  0.0342 -0.0227  1.1281
 8295TIP3    H246301   1.538   5.590  13.783 -0.0329  0.6847  0.4485
 8296TIP3   OH246302   1.971   5.598  14.337  0.0457  0.6790 -0.1160
 8296TIP3    H146303   2.049   5.642  14.300  0.6661 -0.5503 -0.3221
 8296TIP3    H246304   2.001   5.564  14.421 -0.7095  1.4536  0.4809
 8297TIP3   OH246305   3.684   0.124   5.192  0.0151 -0.1023 -0.0603
 8297TIP3    H146306   3.602   0.155   5.231  0.0030 -0.9946  0.6644
 8297TIP3    H246307   3.752   0.157   5.250  0.0629 -0.5842  0.1655
 8298TIP3   OH246308   1.187   2.426   3.362 -0.2251  0.6516 -0.2339
 8298TIP3    H146309   1.211   2.426   3.270  1.2162  1.3645  0.1249
 8298TIP3    H246310   1.269   2.440   3.409 -1.0234  0.9261  1.1395
 8299TIP3   OH246311   1.271   6.414   6.615 -0.4958  0.5702 -0.5044
 8299TIP3    H146312   1.179   6.414   6.641 -0.7037 -1.4658 -1.0559
 8299TIP3    H246313   1.319   6.398   6.696 -0.6904  0.7561 -0.3515
 8300TIP3   OH246314   2.127   2.565  13.470 -0.4262  0.1649  0.6637
 8300TIP3    H146315   2.055   2.618  13.435 -0.3904  0.2079  0.6553
 8300TIP3    H246316   2.110   2.561  13.564 -1.1996 -0.9699  0.4988
 8301TIP3   OH246317   3.621   4.624   3.705  0.5194  0.3152 -0.1557
 8301TIP3    H146318   3.653   4.568   3.776  0.0933  0.9419  0.5496
 8301TIP3    H246319   3.525   4.617   3.711  0.4221  1.8615  0.5805
 8302TIP3   OH246320   3.066   6.569   4.230  0.5671 -0.2199  0.2652
 8302TIP3    H146321   3.085   6.497   4.170 -0.0335  0.3593 -0.6584
 8302TIP3    H246322   3.110   6.545   4.312  0.6118 -1.4852 -0.1087
 8303TIP3   OH246323   6.620   2.704   1.209 -0.1142 -0.0322 -0.6680
 8303TIP3    H146324   6.695   2.726   1.263 -0.5205 -0.3172  0.0309
 8303TIP3    H246325   6.602   2.783   1.158  0.2509  0.2511 -0.3564
 8304TIP3   OH246326   4.613   0.718  11.086 -0.7155  0.5560  0.7709
 8304TIP3    H146327   4.679   0.759  11.142  0.6516 -0.2740 -0.1804
 8304TIP3    H246328   4.640   0.739  10.997 -1.3282 -0.4086  0.3386
 8305TIP3   OH246329   3.475   0.472  12.523  0.4209 -0.3041 -0.3500
 8305TIP3    H146330   3.525   0.442  12.598 -0.9603 -1.5914  0.1078
 8305TIP3    H246331   3.437   0.555  12.551 -0.1093 -0.7898  0.4173
 8306TIP3   OH246332   3.220   4.892  12.757  0.2327 -0.4461  0.0238
 8306TIP3    H146333   3.219   4.806  12.800 -0.8221  0.5088  2.0394
 8306TIP3    H246334   3.302   4.932  12.784  0.8781 -0.9027 -1.1808
 8307TIP3   OH246335   0.609   0.826   4.745 -0.0937  0.1496 -0.5307
 8307TIP3    H146336   0.592   0.919   4.765 -0.0237  0.1640 -0.5392
 8307TIP3    H246337   0.701   0.814   4.766 -0.1262  0.0584 -0.4408
 8308TIP3   OH246338   4.853   5.631  13.190 -0.0348 -0.2798 -0.1699
 8308TIP3    H146339   4.885   5.602  13.276  0.4097  2.6306  0.7278
 8308TIP3    H246340   4.932   5.653  13.141 -0.3673 -0.2954 -0.7254
 8309TIP3   OH246341   5.040   1.856  13.238 -0.0636 -0.3536  0.2230
 8309TIP3    H146342   4.954   1.895  13.222  0.7054  1.2810 -0.1930
 8309TIP3    H246343   5.089   1.926  13.281  0.9315 -1.4207  0.8732
 8310TIP3   OH246344   0.629   6.724  10.517  0.2092 -0.3904  0.0931
 8310TIP3    H146345   0.698   6.744  10.579  0.0531  0.5742 -0.0332
 8310TIP3    H246346   0.561   6.790  10.533  0.2984  0.0870 -1.2975
 8311TIP3   OH246347   0.395   6.065   0.680 -0.3320  0.2210 -0.2349
 8311TIP3    H146348   0.391   6.050   0.585 -0.2016  1.4181 -0.4463
 8311TIP3    H246349   0.459   6.001   0.711  1.7400  1.5851 -1.3954
 8312TIP3   OH246350   3.224   5.382   5.097  0.5243 -0.1356 -0.2223
 8312TIP3    H146351   3.159   5.399   5.166  0.7749 -1.3159  0.3324
 8312TIP3    H246352   3.292   5.447   5.112  0.0114  0.3840 -0.0997
 8313TIP3   OH246353   0.243   2.792  16.412  0.0375 -0.1021 -0.5333
 8313TIP3    H146354   0.236   2.698  16.396  0.6770 -0.2043 -0.2581
 8313TIP3    H246355   0.286   2.826  16.333 -2.8161  0.4354 -1.9714
 8314TIP3   OH246356   6.749   4.281  12.960  0.5128  0.0290  0.0416
 8314TIP3    H146357   6.816   4.336  13.001  1.2002 -0.6123 -0.2005
 8314TIP3    H246358   6.719   4.223  13.031  0.8500 -0.2758 -0.0612
 8315TIP3   OH246359   2.660   2.093  15.076 -0.3560 -0.2555 -0.5706
 8315TIP3    H146360   2.666   2.015  15.022  0.5151 -1.4274  1.1106
 8315TIP3    H246361   2.705   2.070  15.157 -1.0791  1.6060  0.4406
 8316TIP3   OH246362   0.773   2.661  14.724  0.0775  0.6039 -0.2343
 8316TIP3    H146363   0.815   2.575  14.725 -2.6576 -0.8298 -0.1134
 8316TIP3    H246364   0.803   2.701  14.643 -0.2765 -1.3826 -1.4036
 8317TIP3   OH246365   0.386   1.842  11.988  0.1210  0.0038  0.5436
 8317TIP3    H146366   0.478   1.862  11.969  0.4026 -0.8026  1.0267
 8317TIP3    H246367   0.338   1.879  11.914  1.1346 -2.4971 -1.5098
 8318TIP3   OH246368   0.520   2.875  12.190  0.6277 -0.1886 -0.5663
 8318TIP3    H146369   0.501   2.884  12.284  0.6673  0.5341 -0.6211
 8318TIP3    H246370   0.539   2.782  12.179  1.9426 -0.0745  0.4002
 8319TIP3   OH246371   4.467   2.706   5.644  0.0667  0.4849  0.2375
 8319TIP3    H146372   4.426   2.682   5.561  0.1939 -0.8390  0.5338
 8319TIP3    H246373   4.427   2.790   5.668 -2.2537 -0.5721  0.3505
 8320TIP3   OH246374   5.461   5.729   2.458  0.3064  0.4884  0.5150
 8320TIP3    H146375   5.432   5.683   2.537 -0.2369  1.8697  1.1339
 8320TIP3    H246376   5.552   5.701   2.447  0.4055  0.2963  1.6461
 8321TIP3   OH246377   0.827   5.752   0.873  0.5769  0.2461 -0.1365
 8321TIP3    H146378   0.741   5.712   0.861  0.6612 -1.3666  3.2825
 8321TIP3    H246379   0.889   5.680   0.858  1.1667  0.7268 -0.0471
 8322TIP3   OH246380   4.075   6.095   2.847 -0.4252 -0.0155 -0.2162
 8322TIP3    H146381   4.014   6.126   2.915  2.5184 -1.6303  3.4899
 8322TIP3    H246382   4.045   6.006   2.827 -1.0395  0.3071 -0.7925
 8323TIP3   OH246383   4.992   1.250  11.244 -0.3515 -0.1474  0.4826
 8323TIP3    H146384   4.970   1.176  11.188 -1.2846  1.7685 -1.8552
 8323TIP3    H246385   4.948   1.231  11.327 -1.4052 -1.7205 -0.3874
 8324TIP3   OH246386   2.247   6.250   2.785  0.0220 -0.3093 -0.1143
 8324TIP3    H146387   2.290   6.331   2.810 -1.9275  1.1050 -1.1321
 8324TIP3    H246388   2.237   6.256   2.690 -0.0809 -1.7918 -0.2236
 8325TIP3   OH246389   2.446   3.171   1.970 -0.1438 -0.4083  0.1741
 8325TIP3    H146390   2.516   3.232   1.994 -0.6836 -0.0414  0.8517
 8325TIP3    H246391   2.491   3.087   1.958  0.5514  0.0286 -0.3911
 8326TIP3   OH246392   6.045   1.986   2.041  0.5470 -0.1350  0.4306
 8326TIP3    H146393   5.952   2.001   2.022  0.0744 -2.2513  0.7510
 8326TIP3    H246394   6.075   2.068   2.079 -0.3705  1.6741 -2.3924
 8327TIP3   OH246395   0.122   0.733   4.019  0.3384  0.4723 -0.3013
 8327TIP3    H146396   0.142   0.812   3.970  0.5120  0.8840  0.4162
 8327TIP3    H246397   0.078   0.764   4.098 -1.1459 -0.2729 -0.7991
 8328TIP3   OH246398   5.892   2.274  12.298  0.0393 -0.6131 -0.5259
 8328TIP3    H146399   5.955   2.234  12.357  0.2292 -1.2680 -1.1622
 8328TIP3    H246400   5.843   2.335  12.353  1.7617  0.5294 -0.2000
 8329TIP3   OH246401   0.544   2.367  16.556  0.0061  0.2118  0.1847
 8329TIP3    H146402   0.532   2.447  16.505 -1.6242  0.6887  1.2502
 8329TIP3    H246403   0.474   2.309  16.526  1.4614 -1.0494 -0.9301
 8330TIP3   OH246404   3.388   0.238  11.520 -0.1578 -0.4745  0.2978
 8330TIP3    H146405   3.388   0.194  11.605 -0.5149  0.1772  0.6493
 8330TIP3    H246406   3.480   0.247  11.497  0.1559  2.2509  2.1813
 8331TIP3   OH246407   0.140   4.988   2.901 -0.1674  0.6392  0.2217
 8331TIP3    H146408   0.099   4.987   2.815 -0.3013  2.1926  0.2465
 8331TIP3    H246409   0.233   5.004   2.884  0.0382 -0.3902  0.3070
 8332TIP3   OH246410   5.122   2.331   1.530  0.4801 -0.2992  0.6184
 8332TIP3    H146411   5.096   2.422   1.542  1.9723  0.3079 -0.5483
 8332TIP3    H246412   5.045   2.290   1.491  0.7217  1.1366 -1.4934
 8333TIP3   OH246413   3.133   5.821  16.453  0.0335  0.1640 -1.0203
 8333TIP3    H146414   3.166   5.903  16.490  1.0736 -1.4821  2.0102
 8333TIP3    H246415   3.142   5.833  16.358  0.3476  3.4186 -0.7041
 8334TIP3   OH246416   3.877   3.387  14.804 -0.5227  0.1413 -0.3386
 8334TIP3    H146417   3.877   3.482  14.791  0.9518 -0.0462 -2.1778
 8334TIP3    H246418   3.969   3.366  14.824 -0.7152 -0.9603 -0.5286
 8335TIP3   OH246419   3.768   4.039   4.610  0.1641 -0.0020  0.4639
 8335TIP3    H146420   3.760   4.012   4.702 -1.7888  0.1608  0.3705
 8335TIP3    H246421   3.678   4.041   4.578  0.8137  0.0200 -1.4468
 8336TIP3   OH246422   2.369   1.276   4.717 -0.3420  0.0720  0.4526
 8336TIP3    H146423   2.289   1.226   4.702 -0.3861 -0.0976  1.1956
 8336TIP3    H246424   2.395   1.306   4.630 -1.4199  0.4508  0.2382
 8337TIP3   OH246425   5.994   2.056   3.555 -0.6365  0.0955 -0.6493
 8337TIP3    H146426   5.974   2.127   3.617 -0.9070 -1.9275  1.7288
 8337TIP3    H246427   5.911   2.012   3.541  0.0234 -1.6165  0.4453
 8338TIP3   OH246428   6.263   5.638  11.956 -0.3124  0.2142  0.4929
 8338TIP3    H146429   6.238   5.720  11.913 -1.8746  0.5022  1.8367
 8338TIP3    H246430   6.238   5.570  11.894  0.9641  0.7348 -0.6223
 8339TIP3   OH246431   1.647   5.772   1.255  0.3250 -0.0969  0.0732
 8339TIP3    H146432   1.620   5.815   1.174  0.8204 -1.3563 -0.7961
 8339TIP3    H246433   1.738   5.748   1.240  0.3652 -0.5315  0.9353
 8340TIP3   OH246434   1.183   4.834  16.718 -0.2159  0.6232  0.1237
 8340TIP3    H146435   1.161   4.794  16.634 -0.6682 -0.7021  0.8379
 8340TIP3    H246436   1.265   4.879  16.702 -0.0170 -0.0570 -0.9066
 8341TIP3   OH246437   4.861   5.195  13.659 -0.2277 -0.2648  0.5321
 8341TIP3    H146438   4.816   5.164  13.738 -0.2104  1.9801  1.5058
 8341TIP3    H246439   4.953   5.176  13.676 -0.1126  1.0049  1.5272
 8342TIP3   OH246440   2.905   0.594  12.561  0.5782 -0.3341  0.0670
 8342TIP3    H146441   2.959   0.666  12.594 -0.0035  0.1629 -0.0256
 8342TIP3    H246442   2.966   0.535  12.518  0.8731  1.0959 -1.6196
 8343TIP3   OH246443   2.446   2.655  12.552 -0.2667  0.0624 -0.1126
 8343TIP3    H146444   2.400   2.639  12.470 -2.0386  0.2703  0.7909
 8343TIP3    H246445   2.390   2.617  12.620  0.8636  0.3981  1.0655
 8344TIP3   OH246446   4.002   6.170   5.473 -0.0536 -0.2841  0.6393
 8344TIP3    H146447   4.069   6.198   5.411  0.8232  0.6292  1.9494
 8344TIP3    H246448   3.920   6.180   5.425  0.5650  0.7530 -0.2447
 8345TIP3   OH246449   3.112   4.560  13.893 -0.1078 -0.1814 -0.6968
 8345TIP3    H146450   3.048   4.626  13.870  0.0467 -0.1489 -1.0490
 8345TIP3    H246451   3.172   4.604  13.954 -0.5875 -0.3024 -0.1301
 8346TIP3   OH246452   5.367   1.264  11.598 -0.0564  0.1543 -0.7732
 8346TIP3    H146453   5.335   1.218  11.521 -1.0692 -0.7785  0.1616
 8346TIP3    H246454   5.406   1.194  11.652 -1.0908  0.4473  0.4075
 8347TIP3   OH246455   2.279   6.624  16.158 -0.0623 -0.2442  0.1882
 8347TIP3    H146456   2.252   6.598  16.246 -0.6253  0.4002  0.2115
 8347TIP3    H246457   2.372   6.601  16.154 -0.2522 -1.1174  0.6245
 8348TIP3   OH246458   4.741   1.243   3.323 -0.3915  0.3489 -0.7409
 8348TIP3    H146459   4.807   1.192   3.370 -1.9678  0.2786  1.4986
 8348TIP3    H246460   4.724   1.192   3.243  1.4889 -0.1349 -0.8851
 8349TIP3   OH246461   1.308   6.782   0.473 -0.2299  0.3127 -0.0084
 8349TIP3    H146462   1.383   6.808   0.420 -0.7079 -2.4014 -2.2977
 8349TIP3    H246463   1.328   6.692   0.501 -1.8726  0.1557  0.8226
 8350TIP3   OH246464   1.634   3.009  15.546  0.4574 -0.1361  0.1304
 8350TIP3    H146465   1.588   2.954  15.609  0.6730  0.9274  1.2373
 8350TIP3    H246466   1.725   2.977  15.548  0.1011 -1.3193 -1.0402
 8351TIP3   OH246467   0.027   2.312  14.042 -0.1428  0.0438 -0.3076
 8351TIP3    H146468   0.079   2.376  13.993  0.1891  0.2696  0.3357
 8351TIP3    H246469  -0.002   2.249  13.976  0.1129  0.4713 -0.8310
 8352TIP3   OH246470   2.203   0.528  14.169 -0.2867  0.1158 -0.7008
 8352TIP3    H146471   2.159   0.455  14.212  2.6084 -0.7935  1.0109
 8352TIP3    H246472   2.229   0.494  14.084  0.3347 -0.5878 -0.2326
 8353TIP3   OH246473   2.943   5.649  16.763  0.5299  0.1814 -0.1738
 8353TIP3    H146474   3.022   5.690  16.729  1.8244  0.6848  3.0145
 8353TIP3    H246475   2.974   5.569  16.805 -0.5648  0.4891  1.3252
 8354TIP3   OH246476   1.081   2.832  11.428  0.7158  0.2826 -0.4166
 8354TIP3    H146477   1.110   2.907  11.481 -0.0701 -0.2265  0.7710
 8354TIP3    H246478   1.007   2.796  11.476 -0.2658  0.0140 -2.0749
 8355TIP3   OH246479   4.534   0.372  10.814 -0.5974  0.0262  0.2957
 8355TIP3    H146480   4.538   0.353  10.720 -0.0967 -1.1594  0.5330
 8355TIP3    H246481   4.499   0.461  10.820  0.6786  0.6572 -1.0605
 8356TIP3   OH246482   5.607   1.710  13.233  0.0388 -0.6958 -0.3071
 8356TIP3    H146483   5.537   1.724  13.296 -0.8128 -0.7260 -1.2165
 8356TIP3    H246484   5.679   1.766  13.262 -0.6433 -0.0883  0.2102
 8357TIP3   OH246485   1.794   3.427   2.961  0.1774  0.0269 -0.0163
 8357TIP3    H146486   1.845   3.346   2.956  1.0287  0.2884  3.0118
 8357TIP3    H246487   1.858   3.496   2.943 -0.0666  0.1603 -0.3855
 8358TIP3   OH246488   5.559   2.986   4.249 -0.4102 -0.0989 -0.4895
 8358TIP3    H146489   5.597   3.050   4.189 -0.6441 -1.4352 -2.1082
 8358TIP3    H246490   5.470   2.973   4.218 -0.5882 -0.7157  0.2373
 8359TIP3   OH246491   0.933   4.373   2.906 -0.2315  0.3081 -0.1479
 8359TIP3    H146492   1.015   4.364   2.857 -0.6282 -0.4707 -0.6927
 8359TIP3    H246493   0.867   4.393   2.839 -0.5972  0.2969  0.2044
 8360TIP3   OH246494   1.248   6.640   3.472 -0.6645 -0.1864 -0.2426
 8360TIP3    H146495   1.181   6.595   3.524 -1.1717  0.5320 -0.2528
 8360TIP3    H246496   1.307   6.571   3.444 -2.0055 -1.0135 -1.1603
 8361TIP3   OH246497   1.878   4.528   6.449  0.2529  0.3802  0.2753
 8361TIP3    H146498   1.837   4.488   6.372  0.1471  0.1045  0.4729
 8361TIP3    H246499   1.816   4.595   6.478 -0.3597 -0.4464  0.9372
 8362TIP3   OH246500   2.549   1.650   0.160  0.3152  0.0884 -0.0822
 8362TIP3    H146501   2.527   1.621   0.249  0.4040 -2.0319 -0.7030
 8362TIP3    H246502   2.644   1.663   0.161  0.6718 -2.1267 -0.3948
 8363TIP3   OH246503   2.420   5.791  14.844 -0.1958  0.1200  0.6132
 8363TIP3    H146504   2.411   5.774  14.750  1.6954  0.1297  0.3992
 8363TIP3    H246505   2.375   5.874  14.858 -2.3179 -0.8669  0.1397
 8364TIP3   OH246506   0.287   0.595  17.149  0.7106  0.3938  0.1654
 8364TIP3    H146507   0.277   0.684  17.115 -0.7362  0.1685 -0.0533
 8364TIP3    H246508   0.297   0.541  17.071 -2.0740 -0.0562  0.0189
 8365TIP3   OH246509   3.645   1.122  12.034 -0.0226  0.4596  0.0870
 8365TIP3    H146510   3.640   1.155  12.124  1.5855  1.6258 -0.1884
 8365TIP3    H246511   3.720   1.062  12.035 -1.0497 -0.8675 -0.1230
 8366TIP3   OH246512   0.464   5.989   5.385 -0.5371  0.2072 -0.3303
 8366TIP3    H146513   0.514   6.068   5.364 -2.1950  1.4026  0.0196
 8366TIP3    H246514   0.530   5.922   5.400  0.9433  1.6463 -0.1677
 8367TIP3   OH246515   4.071   3.703   4.185  0.0654  0.0288  0.0793
 8367TIP3    H146516   4.028   3.644   4.247  1.0787  1.0976  1.8914
 8367TIP3    H246517   4.153   3.660   4.163 -0.1512 -0.2011 -0.3012
 8368TIP3   OH246518   1.869   4.190   5.178 -0.7767  0.3907 -0.4008
 8368TIP3    H146519   1.953   4.211   5.219 -0.1086 -2.0995 -0.3103
 8368TIP3    H246520   1.813   4.167   5.252 -0.8994  0.0677 -0.5943
 8369TIP3   OH246521   1.002   4.117   6.340 -0.0204 -0.3208 -0.5294
 8369TIP3    H146522   1.010   4.030   6.302  0.8779 -0.0905 -0.9014
 8369TIP3    H246523   1.091   4.139   6.370 -0.3514  0.2233  0.1026
 8370TIP3   OH246524   5.870   0.364  13.383 -0.0962  0.0702  0.0520
 8370TIP3    H146525   5.824   0.283  13.405 -1.5966  0.8739  0.0127
 8370TIP3    H246526   5.849   0.424  13.455  1.5195  0.2463  0.4086
 8371TIP3   OH246527   5.934   2.565  11.948 -0.4144 -0.6493  0.6500
 8371TIP3    H146528   5.968   2.476  11.942  0.1967 -0.3726 -0.4075
 8371TIP3    H246529   5.911   2.588  11.858  0.5131  0.6476  0.7058
 8372TIP3   OH246530   5.441   4.783  11.521 -0.3583 -0.2814  0.0109
 8372TIP3    H146531   5.505   4.853  11.509 -0.3660 -0.1964  0.4513
 8372TIP3    H246532   5.483   4.721  11.580  1.7589 -3.3176 -4.1908
 8373TIP3   OH246533   3.713   6.169  14.339  0.7578 -0.6837 -0.2555
 8373TIP3    H146534   3.784   6.203  14.285  2.1067  1.6165  2.6551
 8373TIP3    H246535   3.662   6.246  14.364 -1.1873 -1.9381 -0.0611
 8374TIP3   OH246536   4.063   0.004   2.355 -0.7095  0.1803 -0.0541
 8374TIP3    H146537   3.984   0.057   2.352 -0.0224  1.3242  0.8059
 8374TIP3    H246538   4.096   0.005   2.265 -1.2954  0.2721 -0.2723
 8375TIP3   OH246539   6.071   4.682  14.075 -0.3783 -0.3698 -0.3662
 8375TIP3    H146540   5.988   4.635  14.072  0.1061 -1.2348 -0.6751
 8375TIP3    H246541   6.136   4.618  14.045  0.3578  0.3823 -0.4267
 8376TIP3   OH246542   5.342   3.630   4.659 -0.5069  0.0696 -0.2095
 8376TIP3    H146543   5.285   3.576   4.714 -1.6995  1.1621 -0.3161
 8376TIP3    H246544   5.288   3.706   4.637  0.4041  0.2836 -1.8050
 8377TIP3   OH246545   3.565   4.192  12.656 -0.6600  0.4409  0.0101
 8377TIP3    H146546   3.607   4.110  12.631  1.8578  2.2066 -2.0458
 8377TIP3    H246547   3.607   4.216  12.739  0.3883  0.8073 -0.6136
 8378TIP3   OH246548   5.560   2.740   1.317  0.1303  0.2796 -0.5805
 8378TIP3    H146549   5.626   2.759   1.384 -0.4273 -0.7143  0.2933
 8378TIP3    H246550   5.480   2.782   1.349  0.3076  1.4863 -1.6383
 8379TIP3   OH246551   5.855   6.139  12.597 -0.4741 -0.2147 -0.2460
 8379TIP3    H146552   5.940   6.099  12.582  0.8033  1.2032  2.5484
 8379TIP3    H246553   5.821   6.156  12.509  2.2381 -0.5189 -1.4566
 8380TIP3   OH246554   6.263   5.676   5.041 -0.2094 -0.6835 -0.2425
 8380TIP3    H146555   6.232   5.590   5.012  1.7213 -1.0184 -1.4809
 8380TIP3    H246556   6.193   5.736   5.015 -1.4425 -1.8118  0.3460
 8381TIP3   OH246557   2.735   2.025   0.323  0.2589 -0.5832  0.5599
 8381TIP3    H146558   2.749   1.967   0.398  0.0354 -0.9729  0.3006
 8381TIP3    H246559   2.822   2.058   0.302  0.3816 -0.8008  0.7234
 8382TIP3   OH246560   4.576   6.572   2.259  0.6464 -0.4967  1.0291
 8382TIP3    H146561   4.671   6.561   2.253  0.7829  0.0514  2.0732
 8382TIP3    H246562   4.564   6.648   2.316 -0.4427 -1.2027  1.7575
 8383TIP3   OH246563   3.860   5.207   1.926  0.0378 -0.0031 -0.3886
 8383TIP3    H146564   3.854   5.113   1.909  0.2683 -0.0252 -0.3463
 8383TIP3    H246565   3.907   5.213   2.009  1.1906  0.1931 -1.0318
 8384TIP3   OH246566   5.453   4.788   1.393 -0.6100 -0.4129 -0.7061
 8384TIP3    H146567   5.369   4.759   1.430 -0.0051  0.3210  1.4026
 8384TIP3    H246568   5.502   4.707   1.381 -1.0910 -0.7338 -0.5743
 8385TIP3   OH246569   0.373   4.044   0.953 -0.1477  0.4716 -0.3472
 8385TIP3    H146570   0.367   4.139   0.956  0.5363  0.5060  1.3653
 8385TIP3    H246571   0.460   4.027   0.916  0.5893  0.5965  1.2344
 8386TIP3   OH246572   5.781   5.860  13.575  0.0771  0.6368  0.2530
 8386TIP3    H146573   5.818   5.815  13.651  1.0011 -0.4919 -0.8146
 8386TIP3    H246574   5.700   5.900  13.607  0.5669  0.3900  1.8674
 8387TIP3   OH246575   1.850   2.775  15.053  0.0148 -0.5000 -0.1115
 8387TIP3    H146576   1.773   2.728  15.023  0.0516 -0.7570  0.1971
 8387TIP3    H246577   1.837   2.787  15.147 -0.6528  1.3416 -0.3913
 8388TIP3   OH246578   4.386   4.099  11.673  0.2072 -0.1422 -0.3105
 8388TIP3    H146579   4.308   4.126  11.721 -0.0574 -0.9031 -0.2987
 8388TIP3    H246580   4.434   4.181  11.658 -0.8140  0.3976 -0.7266
 8389TIP3   OH246581   5.249   4.289  15.743 -0.5593  0.4154 -0.1162
 8389TIP3    H146582   5.268   4.233  15.817 -1.4722 -2.2151 -1.7301
 8389TIP3    H246583   5.324   4.280  15.685 -0.2656  1.7050  0.0325
 8390TIP3   OH246584   4.155   1.327   6.189  0.3615  0.1375 -0.0794
 8390TIP3    H146585   4.206   1.355   6.265 -0.6269  1.3136  0.1885
 8390TIP3    H246586   4.065   1.355   6.208 -0.0933 -0.4470 -1.2365
 8391TIP3   OH246587   5.478   2.284   0.698 -0.3070  0.0401  0.3895
 8391TIP3    H146588   5.436   2.358   0.743 -1.8488 -1.0779  0.8639
 8391TIP3    H246589   5.414   2.256   0.632 -0.3763 -1.7217  1.1438
 8392TIP3   OH246590   4.007   5.103  13.933 -0.2086  0.1027 -0.2316
 8392TIP3    H146591   3.956   5.082  13.855 -0.0019 -1.6749  0.0795
 8392TIP3    H246592   3.945   5.147  13.991 -0.9997 -0.6863 -0.4538
 8393TIP3   OH246593   4.986   2.136   0.315  0.0417  1.1750  0.1732
 8393TIP3    H146594   4.955   2.048   0.338 -0.4082  1.0962 -0.6976
 8393TIP3    H246595   5.077   2.123   0.289  0.7826  1.3650  2.4857
 8394TIP3   OH246596   2.310   5.680   3.066  0.5756  0.0376 -0.0697
 8394TIP3    H146597   2.350   5.761   3.098 -0.5948 -0.1006  1.9103
 8394TIP3    H246598   2.225   5.677   3.109 -0.4186 -1.0530 -2.0157
 8395TIP3   OH246599   3.022   1.161  11.721 -0.2437  0.3111 -0.0025
 8395TIP3    H146600   3.056   1.136  11.635 -0.0691 -0.1430  0.1959
 8395TIP3    H246601   2.945   1.105  11.734 -0.4449  0.5880  0.0087
 8396TIP3   OH246602   6.478   2.548   2.733 -0.0392 -0.2551 -0.2842
 8396TIP3    H146603   6.385   2.546   2.756 -0.3648 -1.5883 -1.5383
 8396TIP3    H246604   6.506   2.456   2.737  1.9471  0.3356  2.5787
 8397TIP3   OH246605   3.102   2.854   3.965  0.4305 -0.0576  0.1889
 8397TIP3    H146606   3.159   2.908   4.019 -0.9015  2.0561 -0.4124
 8397TIP3    H246607   3.021   2.847   4.015  0.5601 -1.5201  0.2361
 8398TIP3   OH246608   6.265   0.095   2.758  0.0587 -0.0229  0.4177
 8398TIP3    H146609   6.232   0.041   2.830  2.2656 -1.6079  0.3494
 8398TIP3    H246610   6.204   0.079   2.687 -1.5881  0.7797  1.5698
 8399TIP3   OH246611   4.653   1.063   6.143  0.5328 -0.2627 -0.6552
 8399TIP3    H146612   4.658   1.132   6.210 -0.7809 -1.3799  0.6670
 8399TIP3    H246613   4.744   1.040   6.126  0.9146 -0.6024  1.5063
 8400TIP3   OH246614   4.207   0.524   2.501  0.0659  0.2487 -0.2629
 8400TIP3    H146615   4.130   0.561   2.457 -1.7327 -1.6205  1.0740
 8400TIP3    H246616   4.231   0.589   2.567  0.1924  1.2339 -1.2624
 8401TIP3   OH246617   6.028   3.886  10.812  0.4193 -0.2884  0.0811
 8401TIP3    H146618   6.051   3.798  10.844 -0.9441 -0.9708 -0.7314
 8401TIP3    H246619   5.954   3.871  10.753  0.7563  1.3172 -0.7907
 8402TIP3   OH246620   6.692   5.095  10.683  0.0420  0.2241 -0.0593
 8402TIP3    H146621   6.621   5.134  10.631 -1.1968  0.0768  1.4524
 8402TIP3    H246622   6.647   5.048  10.753  1.6362  1.1477  1.6726
 8403TIP3   OH246623   1.326   5.497  14.386 -0.1618 -0.4806 -0.0192
 8403TIP3    H146624   1.320   5.404  14.406 -1.2950 -0.0733  1.7870
 8403TIP3    H246625   1.342   5.501  14.292 -0.0057 -2.4879 -0.1127
 8404TIP3   OH246626   5.624   4.265   3.876 -0.3696  0.3715  0.2204
 8404TIP3    H146627   5.706   4.252   3.924  0.0387  2.2701  0.0907
 8404TIP3    H246628   5.589   4.348   3.908 -1.0477  0.7587 -1.4067
 8405TIP3   OH246629   6.757   6.672  12.002 -0.2487  0.5025 -0.2615
 8405TIP3    H146630   6.752   6.705  12.091  0.0206 -2.5966  1.0409
 8405TIP3    H246631   6.851   6.673  11.981  0.0562 -1.4536  0.7292
 8406TIP3   OH246632   1.123   3.572  13.406 -0.1466  0.0554  0.3021
 8406TIP3    H146633   1.105   3.501  13.345 -0.3645  1.1462 -0.9447
 8406TIP3    H246634   1.116   3.532  13.493 -3.6077 -0.7628 -0.2201
 8407TIP3   OH246635   1.868   0.608  14.466 -0.3595 -0.1274  0.7412
 8407TIP3    H146636   1.811   0.614  14.543 -0.9131 -0.4226  0.3544
 8407TIP3    H246637   1.928   0.536  14.487 -2.0157 -1.8236 -0.0632
 8408TIP3   OH246638   5.499   5.436   2.220  0.5880 -0.8663 -0.0729
 8408TIP3    H146639   5.444   5.454   2.143  0.8152 -1.9811 -0.5062
 8408TIP3    H246640   5.531   5.347   2.207  2.2464 -0.3669  0.3313
 8409TIP3   OH246641   6.291   5.716   0.135 -0.1698 -0.0443  0.5621
 8409TIP3    H146642   6.308   5.706   0.229  0.0989  1.3295  0.6839
 8409TIP3    H246643   6.374   5.696   0.093  0.7153  2.5690  0.8802
 8410TIP3   OH246644   5.833   2.669  13.482 -0.2288  0.2879  0.4829
 8410TIP3    H146645   5.757   2.623  13.519 -1.4910  1.6214 -0.3713
 8410TIP3    H246646   5.821   2.760  13.508  1.7612  0.3476  1.3697
 8411TIP3   OH246647   0.509   6.670   4.833  0.4237 -0.4450  0.4474
 8411TIP3    H146648   0.533   6.605   4.899 -2.4681 -1.3473  0.7462
 8411TIP3    H246649   0.480   6.618   4.758  1.1555  0.5614 -0.5724
 8412TIP3   OH246650   3.089   3.903   5.764  0.1611  0.0917 -0.1675
 8412TIP3    H146651   3.130   3.979   5.723 -0.1083 -0.8348 -2.2385
 8412TIP3    H246652   3.000   3.902   5.729  0.4894 -1.7739 -1.0524
 8413TIP3   OH246653   3.006   6.020  13.207  0.1460  0.5123 -0.1831
 8413TIP3    H146654   3.068   6.076  13.254 -1.0244  0.9807  0.8804
 8413TIP3    H246655   2.938   6.001  13.272 -0.7605 -0.0794 -1.2802
 8414TIP3   OH246656   2.104   2.557   0.291 -0.5446 -0.7711 -0.7322
 8414TIP3    H146657   2.166   2.558   0.218  1.6455  1.4038  0.9884
 8414TIP3    H246658   2.063   2.643   0.289 -0.5302 -0.7235  0.5319
 8415TIP3   OH246659   6.449   5.635  11.090 -0.0236 -0.5570 -0.3881
 8415TIP3    H146660   6.507   5.694  11.139  0.5731 -0.9548 -0.6074
 8415TIP3    H246661   6.387   5.602  11.155  0.3899 -0.6154 -0.0211
 8416TIP3   OH246662   5.308   3.994  16.794 -0.1694 -0.0138  0.4414
 8416TIP3    H146663   5.347   4.061  16.849 -0.6975  0.5661  0.1292
 8416TIP3    H246664   5.358   3.996  16.712 -2.2553  2.4361 -0.9296
 8417TIP3   OH246665   5.194   6.778   4.307  0.1658 -0.1388  0.1762
 8417TIP3    H146666   5.128   6.732   4.256  0.0011  1.3498 -1.0434
 8417TIP3    H246667   5.255   6.813   4.242  0.5377  0.9408  1.0675
 8418TIP3   OH246668   1.699   5.629  11.308 -0.2198 -0.3003  0.3293
 8418TIP3    H146669   1.785   5.589  11.318 -0.8609 -1.2749  2.8177
 8418TIP3    H246670   1.638   5.556  11.313 -1.2633  0.5941  1.0463
 8419TIP3   OH246671   0.713   3.398  14.499 -0.0434  0.4219 -0.3854
 8419TIP3    H146672   0.781   3.465  14.502  0.9033 -0.4643 -1.0243
 8419TIP3    H246673   0.760   3.318  14.471 -1.1685 -0.4428  0.1214
 8420TIP3   OH246674   2.959   2.533   1.994 -0.3320 -0.5182 -0.0396
 8420TIP3    H146675   3.021   2.582   2.048 -1.1925 -1.2472  1.6689
 8420TIP3    H246676   2.922   2.467   2.053 -2.0881 -0.6631 -1.2352
 8421TIP3   OH246677   2.964   3.881  16.809 -0.2302 -0.0747 -0.5107
 8421TIP3    H146678   2.945   3.964  16.765  0.4829  1.0344  1.2062
 8421TIP3    H246679   3.058   3.883  16.825 -0.4263 -0.5537  0.8156
 8422TIP3   OH246680   0.348   2.263  13.696 -0.4888 -0.6384  0.2736
 8422TIP3    H146681   0.368   2.354  13.719 -2.0352 -0.1937  0.0123
 8422TIP3    H246682   0.270   2.243  13.748 -1.7171 -0.9230 -1.6087
 8423TIP3   OH246683   1.310   2.214  16.844 -0.0248 -0.6659 -0.5215
 8423TIP3    H146684   1.342   2.303  16.833 -1.1622 -0.3782 -1.7063
 8423TIP3    H246685   1.325   2.195  16.937 -1.6404  1.5360  0.2854
 8424TIP3   OH246686   4.850   5.229  11.137  0.2300  0.1984  0.0206
 8424TIP3    H146687   4.777   5.287  11.114 -1.6098 -2.4438 -1.3316
 8424TIP3    H246688   4.918   5.249  11.074  0.0906  1.6058  0.2819
 8425TIP3   OH246689   3.231   1.849  16.635  0.0355  0.1589 -0.3836
 8425TIP3    H146690   3.192   1.924  16.679 -0.6924 -0.2989 -0.2288
 8425TIP3    H246691   3.185   1.845  16.550 -0.2946 -0.4055 -0.1835
 8426TIP3   OH246692   0.140   3.822   1.060  0.1119 -0.1753  0.1512
 8426TIP3    H146693   0.170   3.816   0.969  3.1711 -0.3208  1.0774
 8426TIP3    H246694   0.115   3.914   1.070 -0.2400 -0.1512 -0.8033
 8427TIP3   OH246695   1.159   0.349   3.353 -0.5342  0.3051  0.4299
 8427TIP3    H146696   1.072   0.338   3.317 -0.1524 -0.9160 -0.1593
 8427TIP3    H246697   1.217   0.304   3.292  0.3981  0.2440  1.3192
 8428TIP3   OH246698   5.818   3.456   3.134  0.4832  0.2899 -0.1604
 8428TIP3    H146699   5.819   3.414   3.220  4.0896 -1.3255 -0.7723
 8428TIP3    H246700   5.742   3.419   3.089  0.7114 -1.8664  1.0876
 8429TIP3   OH246701   3.986   5.179  11.693  0.8053  0.6213 -0.6716
 8429TIP3    H146702   3.912   5.137  11.735 -0.3132  1.0359 -2.1583
 8429TIP3    H246703   3.984   5.269  11.726 -0.0735  0.9475 -1.5619
 8430TIP3   OH246704   2.686   4.215   6.717  0.5822  0.3299  0.3614
 8430TIP3    H146705   2.735   4.229   6.799  1.7923 -2.3193  0.2110
 8430TIP3    H246706   2.751   4.178   6.657 -1.3645 -2.8560 -0.0280
 8431TIP3   OH246707   3.181   0.904  14.097 -0.3123  0.3830 -0.0445
 8431TIP3    H146708   3.207   0.843  14.027 -1.4673 -0.2925  0.0828
 8431TIP3    H246709   3.099   0.867  14.131 -0.7284  1.6931  0.4388
 8432TIP3   OH246710   0.882   0.010   1.722  0.1053  0.0643  0.1910
 8432TIP3    H146711   0.839  -0.067   1.683  0.5586  0.6589 -1.5899
 8432TIP3    H246712   0.842   0.018   1.809 -1.2316 -1.1279 -0.2612
 8433TIP3   OH246713   5.834   5.254   2.272  0.0203 -0.2559 -0.1119
 8433TIP3    H146714   5.929   5.270   2.267 -0.1706  1.4211  0.9693
 8433TIP3    H246715   5.819   5.232   2.364 -0.6976 -0.1383 -0.1989
 8434TIP3   OH246716   4.063   3.253  13.560  0.3019  0.6101 -0.2027
 8434TIP3    H146717   3.969   3.233  13.569  0.4153 -0.5111 -1.2043
 8434TIP3    H246718   4.068   3.308  13.482  0.6296 -0.9163 -1.3144
 8435TIP3   OH246719   3.312   0.138   0.077  0.3227  0.1841 -0.0541
 8435TIP3    H146720   3.303   0.128  -0.018  0.5803 -0.5476 -0.0148
 8435TIP3    H246721   3.346   0.226   0.089 -1.5313  0.9965 -0.5143
 8436TIP3   OH246722   5.643   2.521   0.536  0.2299 -0.8241 -0.4305
 8436TIP3    H146723   5.549   2.502   0.538  0.3402 -1.5563 -1.5672
 8436TIP3    H246724   5.673   2.505   0.626 -1.1396  1.7301  0.5978
 8437TIP3   OH246725   0.356   2.774  13.216  0.0747 -0.0397 -0.1339
 8437TIP3    H146726   0.361   2.680  13.199 -1.0094  0.0820 -1.2538
 8437TIP3    H246727   0.263   2.794  13.217  0.2961  1.0687 -0.2282
 8438TIP3   OH246728   6.267   0.220  13.601 -0.7679  0.1288  0.1090
 8438TIP3    H146729   6.259   0.305  13.558  0.7986  0.6233  0.7206
 8438TIP3    H246730   6.262   0.240  13.695 -0.2998 -0.4406  0.2624
 8439TIP3   OH246731   1.439   6.717   4.283 -0.3279 -0.2723 -0.0345
 8439TIP3    H146732   1.379   6.684   4.217 -1.8406 -0.7895  1.5242
 8439TIP3    H246733   1.390   6.786   4.329  1.1246  0.9472 -0.2205
 8440TIP3   OH246734   0.935   4.154  14.813 -0.1792  0.2838 -0.0220
 8440TIP3    H146735   0.971   4.192  14.733 -0.9012  1.2049  0.0734
 8440TIP3    H246736   1.012   4.132  14.866  0.3456  3.7250  0.8793
 8441TIP3   OH246737   5.795   1.795   1.236  0.9818 -0.1837  0.0855
 8441TIP3    H146738   5.724   1.757   1.185 -0.6224  0.9293  1.3717
 8441TIP3    H246739   5.805   1.736   1.310  1.6686 -0.5338 -0.2801
 8442TIP3   OH246740   1.520   4.423  14.382 -0.0910 -0.0072  0.1173
 8442TIP3    H146741   1.586   4.493  14.385  1.1947 -0.6410 -4.5695
 8442TIP3    H246742   1.572   4.342  14.379 -1.2326 -0.7339 -0.6395
 8443TIP3   OH246743   1.070   4.614   4.358 -0.0244 -0.0312  0.0840
 8443TIP3    H146744   1.129   4.666   4.413 -2.4716  1.2057  1.7511
 8443TIP3    H246745   1.127   4.567   4.298  2.5065  2.7487  0.1095
 8444TIP3   OH246746   1.366   0.729  15.823 -0.0149 -0.2463  0.6950
 8444TIP3    H146747   1.341   0.674  15.749  0.2255  0.2494  0.2333
 8444TIP3    H246748   1.290   0.785  15.838  0.3804  0.5041  0.0056
 8445TIP3   OH246749   5.889   0.843  15.789  0.0523 -0.0096 -0.0026
 8445TIP3    H146750   5.876   0.915  15.727 -0.2349  0.4432  0.5691
 8445TIP3    H246751   5.878   0.884  15.875  2.2146 -0.2360  0.4341
 8446TIP3   OH246752   1.035   5.070   2.415 -0.4873 -0.7088 -0.2975
 8446TIP3    H146753   1.018   5.098   2.325  1.6260 -1.6779 -1.0625
 8446TIP3    H246754   1.041   5.152   2.465 -2.7576 -0.1923 -0.7496
 8447TIP3   OH246755   3.846   0.473   4.737  0.2432  0.1140  0.2494
 8447TIP3    H146756   3.913   0.404   4.732 -0.2869 -0.5317  1.7731
 8447TIP3    H246757   3.793   0.460   4.658  0.2320 -1.1532  0.4427
 8448TIP3   OH246758   5.167   4.454   1.833 -0.1129 -0.9122 -0.1611
 8448TIP3    H146759   5.221   4.490   1.762 -0.1886 -1.6244 -0.5883
 8448TIP3    H246760   5.096   4.517   1.844 -0.1061 -0.8045 -0.7277
 8449TIP3   OH246761   0.216   5.681   5.031  0.5968  0.4155 -0.3023
 8449TIP3    H146762   0.263   5.683   4.948  0.5040 -0.0319 -0.3650
 8449TIP3    H246763   0.146   5.618   5.019  1.0870 -0.2815  0.3812
 8450TIP3   OH246764   1.979   4.925  15.752  0.8565 -0.6481  0.4389
 8450TIP3    H146765   2.045   4.963  15.694  0.6605 -1.9758 -0.6972
 8450TIP3    H246766   2.000   4.961  15.838  2.0966  0.1841 -0.1777
 8451TIP3   OH246767   5.581   0.305   1.798 -0.0266 -0.0527  0.0599
 8451TIP3    H146768   5.653   0.294   1.736 -0.4851 -0.0011 -0.4874
 8451TIP3    H246769   5.530   0.224   1.789 -0.3181  0.1300  0.0699
 8452TIP3   OH246770   0.200   5.003   3.191  0.3940 -0.1251 -0.4419
 8452TIP3    H146771   0.181   5.010   3.097 -2.7026  1.2734  0.1675
 8452TIP3    H246772   0.296   5.009   3.196  0.7223 -0.9101 -3.5158
 8453TIP3   OH246773   2.852   1.810   1.155 -0.5003  0.0015 -0.3133
 8453TIP3    H146774   2.870   1.828   1.063  0.5323 -1.8455 -0.5228
 8453TIP3    H246775   2.763   1.777   1.156  0.2805 -2.2891 -1.0560
 8454TIP3   OH246776   0.072   5.267   3.321  0.2380 -0.8331  0.0042
 8454TIP3    H146777   0.044   5.297   3.407  0.7072  1.1063 -0.4788
 8454TIP3    H246778  -0.003   5.220   3.286 -0.4241 -0.4902  0.9384
 8455TIP3   OH246779   4.388   2.147  10.987 -0.1955 -0.2162  0.2948
 8455TIP3    H146780   4.377   2.160  10.892 -1.0607  0.7858  0.5064
 8455TIP3    H246781   4.471   2.101  10.995  0.3569  0.4853 -0.9121
 8456TIP3   OH246782   0.072   5.538  14.654  0.3989 -0.1495  0.1884
 8456TIP3    H146783   0.157   5.581  14.665 -1.8474  4.5288  1.8376
 8456TIP3    H246784   0.026   5.592  14.591 -2.2388 -0.9654  1.2728
 8457TIP3   OH246785   1.408   5.337   1.773 -0.3746 -0.0264  0.4360
 8457TIP3    H146786   1.379   5.246   1.776 -0.5232  0.0297  0.7834
 8457TIP3    H246787   1.410   5.359   1.680  0.3092 -0.5909  0.3060
 8458TIP3   OH246788   6.409   1.597   0.268 -0.5459 -0.2592 -0.0129
 8458TIP3    H146789   6.475   1.608   0.336 -1.1861  0.9686  0.4449
 8458TIP3    H246790   6.452   1.624   0.187  0.0691 -1.2738 -0.0428
 8459TIP3   OH246791   5.378   1.417   3.483 -0.3219  0.3196 -0.4434
 8459TIP3    H146792   5.319   1.423   3.559 -0.4392  1.9937 -0.6465
 8459TIP3    H246793   5.454   1.369   3.516 -0.8681  0.0098  0.4093
 8460TIP3   OH246794   4.912   2.232   6.693  0.4862  0.3382  1.0307
 8460TIP3    H146795   4.892   2.310   6.745  0.0573  0.3000  0.9304
 8460TIP3    H246796   5.002   2.245   6.662  0.7819  0.3140  1.8641
 8461TIP3   OH246797   5.419   6.508  14.823 -0.5515  0.1488  0.6293
 8461TIP3    H146798   5.403   6.419  14.854  1.1667 -1.0256 -1.5718
 8461TIP3    H246799   5.437   6.558  14.902  1.2025 -2.1175  1.7992
 8462TIP3   OH246800   6.185   0.690   3.381 -0.1564  0.6579  0.0531
 8462TIP3    H146801   6.094   0.692   3.353  0.0104  0.0852 -0.5595
 8462TIP3    H246802   6.204   0.780   3.408 -0.0725  1.5177 -2.5472
 8463TIP3   OH246803   5.680   5.461   1.376 -0.5857 -0.4115  0.0278
 8463TIP3    H146804   5.657   5.524   1.308  1.4224 -1.5332 -1.7721
 8463TIP3    H246805   5.618   5.389   1.365 -0.3338 -0.5399 -0.5437
 8464TIP3   OH246806   3.257   5.860  10.814  0.3368  0.1219  0.5053
 8464TIP3    H146807   3.289   5.949  10.799 -0.9800  0.3122 -1.7172
 8464TIP3    H246808   3.313   5.805  10.759  1.5567 -0.5605  2.3522
 8465TIP3   OH246809   1.318   6.013   3.498  0.1433 -0.0557  0.3753
 8465TIP3    H146810   1.317   6.089   3.440  1.0226 -0.2747  0.0595
 8465TIP3    H246811   1.229   5.978   3.492 -0.4273  1.2256  0.9170
 8466TIP3   OH246812   6.754   0.686   0.951  0.0261 -0.2928 -0.1408
 8466TIP3    H146813   6.760   0.701   0.856  0.7082 -1.1955 -0.2471
 8466TIP3    H246814   6.690   0.751   0.981  1.4630  1.5606 -0.8589
 8467TIP3   OH246815   3.949   0.573   3.142 -0.0453  0.4800  0.0968
 8467TIP3    H146816   3.960   0.489   3.096 -1.7932  0.1416  0.2161
 8467TIP3    H246817   3.981   0.555   3.231  1.0584  0.4249 -0.2909
 8468TIP3   OH246818   0.887   0.284   3.277  0.2763 -0.2331 -0.1862
 8468TIP3    H146819   0.834   0.235   3.214  2.5297 -0.8765 -1.7237
 8468TIP3    H246820   0.823   0.325   3.336 -1.8272 -2.0331 -1.0687
 8469TIP3   OH246821   5.398   2.201   2.075 -0.4869  0.2576  0.2798
 8469TIP3    H146822   5.338   2.128   2.091 -0.0275  0.0510  1.0971
 8469TIP3    H246823   5.366   2.271   2.132 -0.2768  0.3294  0.3098
 8470TIP3   OH246824   4.061   5.607   0.007  0.5873  0.1234 -0.5195
 8470TIP3    H146825   4.007   5.678  -0.028  0.5230 -0.4689 -1.6479
 8470TIP3    H246826   4.142   5.610  -0.044 -0.9986 -3.2101 -3.6090
 8471TIP3   OH246827   3.085   5.674  15.516 -0.8563  0.2741 -0.0740
 8471TIP3    H146828   3.088   5.717  15.430 -1.2416  1.6588  0.5802
 8471TIP3    H246829   3.006   5.707  15.557 -1.7360 -1.8711  0.0936
 8472TIP3   OH246830   4.071   4.298  15.430  0.4497  0.0493 -0.3401
 8472TIP3    H146831   4.104   4.387  15.447  1.7297 -0.6922  1.3010
 8472TIP3    H246832   4.085   4.286  15.336 -1.9692  2.4099 -1.1317
 8473TIP3   OH246833   3.300   2.574  13.067  0.2942 -0.0510 -0.0732
 8473TIP3    H146834   3.246   2.644  13.029  1.6881  0.7842 -0.6028
 8473TIP3    H246835   3.384   2.616  13.085 -0.1833 -0.4485  3.8174
 8474TIP3   OH246836   2.869   6.187   1.861  0.4516 -0.1949  0.8078
 8474TIP3    H146837   2.938   6.169   1.924  1.0665  1.4341  0.6500
 8474TIP3    H246838   2.916   6.214   1.782 -0.3298 -1.2444 -0.0439
 8475TIP3   OH246839   2.403   5.606   2.019 -0.2868 -0.0298 -0.1971
 8475TIP3    H146840   2.496   5.609   1.998 -0.2235  2.4294  0.1738
 8475TIP3    H246841   2.364   5.674   1.965 -1.7591 -0.5395  0.1786
 8476TIP3   OH246842   0.759   5.988  13.830  0.1198  0.3266  0.4351
 8476TIP3    H146843   0.797   6.075  13.838  0.8011  0.2799 -1.6615
 8476TIP3    H246844   0.738   5.962  13.920 -0.7589  2.9066  1.0627
 8477TIP3   OH246845   3.174   1.752   4.450 -0.5708  0.3709  0.0395
 8477TIP3    H146846   3.196   1.703   4.529 -0.0660  2.7039  1.4373
 8477TIP3    H246847   3.256   1.755   4.400  0.0119  1.5761  1.0069
 8478TIP3   OH246848   1.408   6.571  12.760  0.2261 -0.3331  0.0711
 8478TIP3    H146849   1.398   6.476  12.770  0.6739 -0.3656  0.2593
 8478TIP3    H246850   1.319   6.604  12.754  0.0609 -1.0429 -2.7108
 8479TIP3   OH246851   6.575   2.048  14.807 -0.2003 -0.0515 -0.8149
 8479TIP3    H146852   6.519   2.087  14.740  0.9291  0.3677 -1.5495
 8479TIP3    H246853   6.633   1.990  14.758  0.6211  0.2381 -0.2058
 8480TIP3   OH246854   6.329   0.835   4.632 -0.1170 -0.4169  0.2944
 8480TIP3    H146855   6.400   0.776   4.608 -0.4317 -1.2640  1.3638
 8480TIP3    H246856   6.264   0.778   4.675 -1.4566  0.3233 -0.6816
 8481TIP3   OH246857   6.121   2.187  12.561  0.1657 -0.3620  0.1877
 8481TIP3    H146858   6.169   2.224  12.635  0.0462  0.1036  0.0354
 8481TIP3    H246859   6.029   2.197  12.585  0.0703  1.1878 -0.6621
 8482TIP3   OH246860   3.341   4.528  15.003  0.1741 -0.4073 -0.4371
 8482TIP3    H146861   3.262   4.561  15.046  0.1734 -2.3168  1.1408
 8482TIP3    H246862   3.403   4.514  15.074  0.6771 -2.3038 -1.2081
 8483TIP3   OH246863   4.099   5.064  16.617  0.2465 -0.0207  0.1288
 8483TIP3    H146864   4.034   5.103  16.558  0.3422  0.7989  0.5520
 8483TIP3    H246865   4.160   5.020  16.559 -0.5345 -0.5656 -0.2903
 8484TIP3   OH246866   5.980   5.023  10.160  0.1278 -0.0285  0.7981
 8484TIP3    H146867   6.060   5.002  10.112  0.0943  0.4497  0.5266
 8484TIP3    H246868   5.964   5.115  10.142  0.8245  0.5357  2.7621
 8485TIP3   OH246869   3.124   2.080  16.756  0.3571 -0.3961 -0.2893
 8485TIP3    H146870   3.200   2.138  16.762 -0.0232 -0.0214  2.2481
 8485TIP3    H246871   3.051   2.138  16.734  0.4547 -0.3745 -0.5491
 8486TIP3   OH246872   2.333   0.477  16.628  0.1135 -0.5548  0.7913
 8486TIP3    H146873   2.406   0.506  16.574  0.1636 -0.3969  0.9405
 8486TIP3    H246874   2.350   0.384  16.645 -0.7057 -1.0144 -0.7343
 8487TIP3   OH246875   3.750   1.453  15.563 -0.2792  0.3143  0.6173
 8487TIP3    H146876   3.751   1.502  15.481  0.1846 -0.7924 -0.0752
 8487TIP3    H246877   3.707   1.370  15.540 -0.5887  0.1932  1.6125
 8488TIP3   OH246878   5.466   3.853  12.406 -0.7607  0.0218  0.1991
 8488TIP3    H146879   5.460   3.778  12.466 -0.6913 -0.7115 -0.6870
 8488TIP3    H246880   5.552   3.891  12.425  0.1216 -1.3958 -0.7605
 8489TIP3   OH246881   2.328   2.138   5.810 -0.2492 -1.3078  0.6090
 8489TIP3    H146882   2.394   2.195   5.850  0.7847 -1.8297 -0.2913
 8489TIP3    H246883   2.252   2.194   5.798  0.1199 -0.6072  1.4029
 8490TIP3   OH246884   3.734   2.083  11.448  0.1895  0.4848 -0.2566
 8490TIP3    H146885   3.828   2.099  11.439  0.5556 -0.6056  1.1661
 8490TIP3    H246886   3.694   2.140  11.383  1.9209 -0.3174 -2.1624
 8491TIP3   OH246887   0.604   3.699   2.921  0.1260  0.3881 -0.2555
 8491TIP3    H146888   0.569   3.788   2.923  0.3479  0.4874 -0.6690
 8491TIP3    H246889   0.695   3.709   2.892 -0.2884 -0.0933 -1.8048
 8492TIP3   OH246890   1.238   0.151  10.384 -0.0144  0.1129 -0.0708
 8492TIP3    H146891   1.260   0.244  10.375 -1.0104  0.8194  3.5259
 8492TIP3    H246892   1.144   0.147  10.367 -0.0841 -0.1332  0.3673
 8493TIP3   OH246893   2.168   2.021   2.906 -0.2172  0.1151  0.4699
 8493TIP3    H146894   2.138   1.931   2.916  2.9862 -1.3631 -1.6455
 8493TIP3    H246895   2.123   2.053   2.828 -0.1835 -0.2174  0.3122
 8494TIP3   OH246896   4.341   3.555   4.145  0.7213 -0.2090 -0.3923
 8494TIP3    H146897   4.364   3.541   4.237  0.0868 -0.7771 -0.3129
 8494TIP3    H246898   4.389   3.487   4.098  2.3789  1.1081 -0.6897
 8495TIP3   OH246899   3.555   2.553   2.814 -0.2383 -0.6065 -0.0010
 8495TIP3    H146900   3.531   2.625   2.872 -0.1663  1.3957 -2.3218
 8495TIP3    H246901   3.645   2.572   2.787 -0.9911 -0.2223 -2.4516
 8496TIP3   OH246902   6.571   3.114  15.762 -0.2345 -0.4828  0.5780
 8496TIP3    H146903   6.590   3.183  15.826  3.2532 -1.8179  1.2054
 8496TIP3    H246904   6.615   3.142  15.682  0.6263 -1.5954  0.6328
 8497TIP3   OH246905   3.617   1.934  14.981 -0.5291 -0.2217 -0.3529
 8497TIP3    H146906   3.582   1.899  14.899 -0.2002  0.6810 -0.8873
 8497TIP3    H246907   3.712   1.935  14.968 -0.1990 -2.6515  1.0813
 8498TIP3   OH246908   1.109   5.005  15.679  0.0235 -0.0403  0.3942
 8498TIP3    H146909   1.167   5.001  15.603  0.5422  1.4297  0.6647
 8498TIP3    H246910   1.023   5.026  15.642 -0.2936 -1.8467  0.0236
 8499TIP3   OH246911   2.645   5.793   5.530  0.2491  0.1075  0.3181
 8499TIP3    H146912   2.706   5.721   5.517  0.0793 -0.2486  1.4198
 8499TIP3    H246913   2.698   5.862   5.571  0.1875  0.2636  0.1390
 8500TIP3   OH246914   1.401   2.473  16.808 -0.3605 -0.1448  0.6488
 8500TIP3    H146915   1.307   2.491  16.813 -0.6332 -0.4765 -1.8403
 8500TIP3    H246916   1.438   2.554  16.773 -0.2359 -1.0220 -1.4198
 8501TIP3   OH246917   4.376   6.365   4.395 -0.3103 -0.2325 -0.0070
 8501TIP3    H146918   4.446   6.430   4.400 -0.3039 -0.1338 -1.1362
 8501TIP3    H246919   4.297   6.414   4.419  0.0169 -0.4350  1.6541
 8502TIP3   OH246920   1.288   1.848   5.898 -0.0547  0.3978  0.2213
 8502TIP3    H146921   1.348   1.919   5.924  1.2158 -1.0313  1.3858
 8502TIP3    H246922   1.248   1.819   5.980 -0.5521 -0.2360 -0.2404
 8503TIP3   OH246923   6.245   3.467   1.254  0.1770 -0.6835  0.4467
 8503TIP3    H146924   6.254   3.453   1.348 -0.4046 -0.9508  0.4724
 8503TIP3    H246925   6.156   3.437   1.234 -0.1026  0.4103  0.0004
 8504TIP3   OH246926   4.161   6.048  17.190  0.1675  0.1318 -0.0225
 8504TIP3    H146927   4.201   6.097  17.118 -0.4186  0.6552 -0.0009
 8504TIP3    H246928   4.236   6.015  17.240  0.6757  3.0006  1.3334
 8505TIP3   OH246929   6.331   5.918   1.665 -0.3446  0.7577  0.0738
 8505TIP3    H146930   6.253   5.920   1.721 -1.2558  4.4188 -1.0532
 8505TIP3    H246931   6.392   5.978   1.708 -0.5279  2.5635 -2.0676
 8506TIP3   OH246932   3.241   4.599  16.883 -0.2465  0.0261 -0.4052
 8506TIP3    H146933   3.277   4.514  16.857  2.2457  0.4130  1.4291
 8506TIP3    H246934   3.249   4.654  16.806  0.3728 -0.7396 -0.9009
 8507TIP3   OH246935   3.895   0.824   6.635  0.7533 -0.1365  0.1886
 8507TIP3    H146936   3.811   0.798   6.598  0.8774  0.6139 -0.6590
 8507TIP3    H246937   3.917   0.754   6.697 -0.1789 -0.6623 -0.0570
 8508TIP3   OH246938   3.008   4.723   6.046  0.4240 -0.6456  0.0492
 8508TIP3    H146939   3.044   4.687   6.127  1.6990  3.7890  1.7354
 8508TIP3    H246940   2.917   4.742   6.067  0.7590  0.5202  0.5088
 8509TIP3   OH246941   6.532   1.488   1.663  0.5075 -0.4420  0.0550
 8509TIP3    H146942   6.593   1.438   1.610  0.9872 -0.1102  0.2860
 8509TIP3    H246943   6.475   1.423   1.704  0.5848 -0.7378 -0.3077
 8510TIP3   OH246944   3.338   2.444   3.190  0.6281  0.1290 -0.3542
 8510TIP3    H146945   3.353   2.516   3.251 -1.9363  0.4190  0.0717
 8510TIP3    H246946   3.301   2.487   3.112  1.7108 -0.4684 -1.2241
 8511TIP3   OH246947   1.537   2.785  13.283  0.3351  0.3975 -0.2811
 8511TIP3    H146948   1.609   2.823  13.233  0.5337  0.9808  0.4330
 8511TIP3    H246949   1.480   2.859  13.303  0.7213  0.3379  1.1230
 8512TIP3   OH246950   1.537   6.705   0.757 -0.0691  0.1627  0.5413
 8512TIP3    H146951   1.528   6.621   0.803  4.0404 -0.0123  1.4381
 8512TIP3    H246952   1.589   6.683   0.679  0.8288  1.7738  0.6494
 8513TIP3   OH246953   6.725   5.096  11.896 -0.3989 -0.0171 -0.1932
 8513TIP3    H146954   6.629   5.092  11.890 -0.4873  1.9679 -0.5425
 8513TIP3    H246955   6.742   5.139  11.980  0.0562  2.5667 -1.5183
 8514TIP3   OH246956   4.859   4.282  12.665 -0.4058 -0.1247  0.0187
 8514TIP3    H146957   4.811   4.222  12.608  0.1431 -0.2989 -0.2671
 8514TIP3    H246958   4.937   4.305  12.615 -1.5609  2.4850 -0.8240
 8515TIP3   OH246959   6.580   2.647  16.761 -0.3330 -0.5150 -0.4352
 8515TIP3    H146960   6.654   2.627  16.704 -0.6692  0.5165 -1.2564
 8515TIP3    H246961   6.542   2.726  16.724 -1.1430 -0.3707  0.6702
 8516TIP3   OH246962   5.837   1.687   5.534 -0.4490  0.1703  0.0978
 8516TIP3    H146963   5.856   1.596   5.513  0.7881  0.0767  1.4951
 8516TIP3    H246964   5.866   1.698   5.624 -1.7572  1.6250  0.3964
 8517TIP3   OH246965   2.052   2.029   0.351  0.1262  0.0982  0.7138
 8517TIP3    H146966   1.970   1.994   0.315 -0.1107  0.9257  0.4393
 8517TIP3    H246967   2.110   1.953   0.356 -0.0224 -0.1437 -0.8684
 8518TIP3   OH246968   5.645   3.646   2.801  0.0406 -0.5770  0.4753
 8518TIP3    H146969   5.716   3.585   2.782  0.0498 -1.0386  1.8378
 8518TIP3    H246970   5.573   3.618   2.745  1.0746  0.2763 -1.3813
 8519TIP3   OH246971   4.955   1.530   5.957 -0.0438 -0.4041  0.1220
 8519TIP3    H146972   4.969   1.444   5.996  1.9061  0.2264  0.9157
 8519TIP3    H246973   4.937   1.587   6.032 -1.1221 -0.0489 -0.3828
 8520TIP3   OH246974   5.231   0.560   0.012  0.1981 -0.6914 -0.2294
 8520TIP3    H146975   5.254   0.481   0.061  1.6638  0.4813  1.1170
 8520TIP3    H246976   5.288   0.628   0.049 -1.4649  1.1489 -0.8714
 8521TIP3   OH246977   2.662   2.508  15.374  0.4459 -0.3479 -0.4934
 8521TIP3    H146978   2.627   2.419  15.381 -0.0100 -0.1476 -0.0891
 8521TIP3    H246979   2.687   2.530  15.464  0.2126  0.0632 -0.5268
 8522TIP3   OH246980   2.426   0.855  13.527 -0.1850 -0.2359 -0.1246
 8522TIP3    H146981   2.458   0.942  13.550 -1.1531  0.1490 -0.1822
 8522TIP3    H246982   2.338   0.852  13.563 -0.8202 -0.5483 -1.6237
 8523TIP3   OH246983   2.596   0.405  10.732  0.9414 -0.2190 -0.0146
 8523TIP3    H146984   2.553   0.474  10.783  1.2308  0.4559 -0.6713
 8523TIP3    H246985   2.594   0.329  10.789 -1.3505 -0.2827 -0.0972
 8524TIP3   OH246986   6.548   1.279  15.839  0.0728  0.0323 -0.0643
 8524TIP3    H146987   6.597   1.200  15.862  1.4453  0.5469 -1.0273
 8524TIP3    H246988   6.580   1.346  15.899 -0.8725 -0.0721  0.5592
 8525TIP3   OH246989   6.169   0.665  14.692  0.1039  0.0652  1.1133
 8525TIP3    H146990   6.200   0.603  14.758  0.8726 -0.7240  0.0609
 8525TIP3    H246991   6.209   0.748  14.715  2.7711 -0.8171  0.0668
 8526TIP3   OH246992   5.416   6.597   3.919  0.5734  0.8732  0.2695
 8526TIP3    H146993   5.380   6.641   3.997 -1.1095 -1.6460  1.0516
 8526TIP3    H246994   5.365   6.632   3.846 -0.8062  0.2738  0.8887
 8527TIP3   OH246995   3.907   0.733   1.910  0.0588 -0.5587  0.1994
 8527TIP3    H146996   3.981   0.787   1.939  1.1108 -1.9618  0.2219
 8527TIP3    H246997   3.851   0.794   1.862  0.5314  0.8380  1.3490
 8528TIP3   OH246998   5.709   1.468   6.158 -0.1546 -0.0659  0.6571
 8528TIP3    H146999   5.659   1.539   6.198  0.7409  1.0947 -0.2179
 8528TIP3    H247000   5.788   1.510   6.125 -0.3520 -1.1556 -1.3612
 8529TIP3   OH247001   2.175   1.117   4.993  0.2910  0.1160  0.2969
 8529TIP3    H147002   2.109   1.186   4.998 -0.2329 -0.3666  0.0834
 8529TIP3    H247003   2.168   1.084   4.903  1.6485  0.8766 -0.1147
 8530TIP3   OH247004   3.853   3.710  12.258 -0.6582  0.7609  0.2185
 8530TIP3    H147005   3.873   3.642  12.323 -0.7530 -0.4085 -0.9404
 8530TIP3    H247006   3.937   3.753  12.242  0.4324 -1.9088 -2.1385
 8531TIP3   OH247007   4.759   0.698   4.249 -0.1336  0.7974  0.2544
 8531TIP3    H147008   4.680   0.691   4.196 -0.6740 -0.3897  1.1673
 8531TIP3    H247009   4.729   0.687   4.339  1.3201 -2.4581  0.4903
 8532TIP3   OH247010   3.478   2.007   0.291  0.1506  0.3541 -0.1454
 8532TIP3    H147011   3.470   1.934   0.229  2.3654  1.4182 -1.8015
 8532TIP3    H247012   3.541   1.976   0.357 -0.8480 -0.1215  0.6086
 8533TIP3   OH247013   4.308   0.614  17.172 -0.0722  0.2545  0.6432
 8533TIP3    H147014   4.245   0.542  17.165  1.0537 -0.5823 -2.3954
 8533TIP3    H247015   4.264   0.679  17.226 -2.9712 -0.8743 -0.1649
 8534TIP3   OH247016   4.165   6.668  14.639  0.2588 -0.1755 -0.2217
 8534TIP3    H147017   4.238   6.606  14.639  0.2862 -0.2213  1.9735
 8534TIP3    H247018   4.203   6.750  14.671 -0.1422  0.5266 -1.4794
 8535TIP3   OH247019   2.496   0.954   1.271  0.3696 -0.4270 -0.2058
 8535TIP3    H147020   2.419   0.907   1.241  0.3617 -1.1193  0.8648
 8535TIP3    H247021   2.486   0.961   1.365  0.6075  1.3286 -0.2620
 8536TIP3   OH247022   2.227   0.957   0.173  0.1947  0.2452 -0.1345
 8536TIP3    H147023   2.174   1.032   0.198  1.4310  0.3635  2.5956
 8536TIP3    H247024   2.180   0.916   0.101 -1.4772  2.5410 -0.4576
 8537TIP3   OH247025   4.464   1.246   2.234  0.2291 -0.1754 -0.2567
 8537TIP3    H147026   4.408   1.263   2.310 -0.5642 -0.0182 -0.8705
 8537TIP3    H247027   4.428   1.300   2.164  0.4359 -0.9440 -0.9832
 8538TIP3   OH247028   2.478   2.004  13.498  0.4736  0.3084  0.7241
 8538TIP3    H147029   2.512   2.079  13.448  0.7479  1.1418  2.1047
 8538TIP3    H247030   2.440   1.947  13.432 -0.9480  2.2899 -0.2794
 8539TIP3   OH247031   4.379   4.037   7.003  0.1910 -0.0973 -0.4494
 8539TIP3    H147032   4.349   4.030   6.912 -0.5441  0.2525 -0.2377
 8539TIP3    H247033   4.351   4.124   7.031  0.7088 -0.0713  0.0138
 8540TIP3   OH247034   3.549   4.986  17.016 -0.4494 -0.1087 -0.0925
 8540TIP3    H147035   3.570   4.926  16.945  0.3318  1.7315 -1.4687
 8540TIP3    H247036   3.556   4.932  17.095  1.5739 -1.5045 -1.1504
 8541TIP3   OH247037   0.828   0.817   0.392 -0.3312 -0.2363 -0.3175
 8541TIP3    H147038   0.912   0.861   0.401 -2.2313  3.5514  0.7300
 8541TIP3    H247039   0.819   0.766   0.472 -0.7158  2.7496  1.6889
 8542TIP3   OH247040   5.728   2.111   2.061  0.0938 -0.0705  0.1903
 8542TIP3    H147041   5.667   2.159   2.116  1.0378 -1.0091  2.1674
 8542TIP3    H247042   5.790   2.177   2.030 -0.5407  0.4970  0.1100
 8543TIP3   OH247043   5.936   2.340   3.658 -0.5982  0.1543 -0.8943
 8543TIP3    H147044   5.953   2.404   3.728 -0.8933 -0.1880 -0.5018
 8543TIP3    H247045   5.883   2.273   3.701 -0.3136 -0.3368 -1.3160
 8544TIP3   OH247046   0.048   0.868   5.997 -0.2455 -0.1741  0.1347
 8544TIP3    H147047   0.015   0.865   6.087 -1.6001  0.8261 -0.2861
 8544TIP3    H247048  -0.000   0.798   5.952  0.4037 -0.6509  0.1782
 8545TIP3   OH247049   0.787   3.325   5.624  0.0053 -0.2042 -0.3378
 8545TIP3    H147050   0.805   3.232   5.610  2.4359  0.2490 -0.6630
 8545TIP3    H247051   0.741   3.353   5.545  1.5474 -0.6209 -1.4385
 8546TIP3   OH247052   6.115   5.918  13.858  0.5173  0.3368  0.1246
 8546TIP3    H147053   6.065   5.839  13.876  1.1399 -0.2695 -0.7654
 8546TIP3    H247054   6.109   5.969  13.939  1.4778 -1.3490  1.3129
 8547TIP3   OH247055   5.163   5.943   4.679  0.0574 -0.1722  1.0170
 8547TIP3    H147056   5.105   5.939   4.755 -0.0928  1.5313  1.0289
 8547TIP3    H247057   5.105   5.931   4.604 -0.2156  0.8873  1.0563
 8548TIP3   OH247058   0.338   0.274   4.521 -0.1649 -0.5989  0.8101
 8548TIP3    H147059   0.294   0.234   4.446  1.3823  1.3107 -1.2543
 8548TIP3    H247060   0.412   0.216   4.539  0.9721  0.2314 -0.9250
 8549TIP3   OH247061   1.396   2.729   3.191  0.2099 -0.0273  0.4469
 8549TIP3    H147062   1.411   2.745   3.098  2.2910  0.2133  0.7764
 8549TIP3    H247063   1.456   2.659   3.214 -1.7455 -1.5407  1.2112
 8550TIP3   OH247064   2.256   4.569  12.644  0.6639 -0.1912 -0.2353
 8550TIP3    H147065   2.221   4.538  12.560 -0.7419 -0.1297  0.2969
 8550TIP3    H247066   2.344   4.531  12.649  1.1056  0.4808 -2.0941
 8551TIP3   OH247067   3.193   0.798  13.674  0.8769 -0.1239  0.1471
 8551TIP3    H147068   3.161   0.881  13.709 -0.6713 -0.7748  0.3543
 8551TIP3    H247069   3.179   0.735  13.744 -0.5079 -1.0728 -0.9313
 8552TIP3   OH247070   6.785   0.895   4.802 -0.2337  0.1804  0.1594
 8552TIP3    H147071   6.825   0.811   4.828  1.1411  0.8933  0.4301
 8552TIP3    H247072   6.724   0.915   4.873 -1.6969 -1.2714 -0.6011
 8553TIP3   OH247073   2.179   3.857   0.423 -0.3719  0.3905  0.4274
 8553TIP3    H147074   2.123   3.906   0.483 -1.4074  1.1090 -1.0576
 8553TIP3    H247075   2.140   3.770   0.420 -1.6534  0.9749 -0.8346
 8554TIP3   OH247076   3.721   5.678  15.661  0.3457 -0.0183  0.4933
 8554TIP3    H147077   3.815   5.693  15.650  0.6516 -1.0692  1.5033
 8554TIP3    H247078   3.684   5.694  15.574  1.3021  1.4029  0.2948
 8555TIP3   OH247079   4.147   1.017  11.175  0.6010  0.2295  0.0436
 8555TIP3    H147080   4.074   0.988  11.120 -1.5980  4.1248  0.5559
 8555TIP3    H247081   4.197   1.076  11.119  2.7886 -1.4589  0.0854
 8556TIP3   OH247082   5.451   5.356  12.264 -0.3123 -0.1104 -0.8162
 8556TIP3    H147083   5.502   5.390  12.190 -1.2378  0.7786 -1.0578
 8556TIP3    H247084   5.431   5.266  12.239 -0.3951  0.0993 -1.5449
 8557TIP3   OH247085   4.717   1.822   2.203 -0.4400 -0.3440 -0.5414
 8557TIP3    H147086   4.712   1.727   2.218 -2.7934  0.0047  1.7208
 8557TIP3    H247087   4.809   1.843   2.216  0.1284 -2.2798 -0.9950
 8558TIP3   OH247088   4.291   5.000   1.429 -0.4835 -0.2943  0.1957
 8558TIP3    H147089   4.301   5.096   1.431 -0.8140 -0.2313 -0.6792
 8558TIP3    H247090   4.373   4.968   1.393 -0.3093 -0.3543  0.6430
 8559TIP3   OH247091   2.654   6.461   1.608 -0.3580 -0.2607 -0.5495
 8559TIP3    H147092   2.729   6.425   1.562 -1.0161 -0.1886 -1.7258
 8559TIP3    H247093   2.616   6.524   1.547 -0.7961  0.4434  0.4147
 8560TIP3   OH247094   5.590   2.714   3.952 -0.5065 -0.2195 -0.2363
 8560TIP3    H147095   5.578   2.720   4.047  0.8462 -0.9693  0.0062
 8560TIP3    H247096   5.536   2.639   3.926  1.6337 -2.1274  0.4868
 8561TIP3   OH247097   4.875   2.677   3.356 -0.4392 -0.2187 -0.3004
 8561TIP3    H147098   4.959   2.635   3.339 -0.1909  1.0052 -2.4848
 8561TIP3    H247099   4.896   2.753   3.411  0.2980  1.2918 -2.5218
 8562TIP3   OH247100   5.749   2.240   0.555  0.3899  0.0208 -0.0616
 8562TIP3    H147101   5.697   2.269   0.629  0.0132  0.8768 -0.6549
 8562TIP3    H247102   5.686   2.227   0.485  0.9014  0.5594 -0.6297
 8563TIP3   OH247103   5.441   3.593  14.598 -0.0424  0.2519 -0.6433
 8563TIP3    H147104   5.478   3.508  14.575  2.0772  0.2769  2.2379
 8563TIP3    H247105   5.505   3.656  14.566  1.5217  0.3970  2.4771
 8564TIP3   OH247106   3.307   1.714  12.953  0.4070  0.8794 -0.0731
 8564TIP3    H147107   3.252   1.758  13.017  1.0273  0.7219  0.5708
 8564TIP3    H247108   3.390   1.761  12.956  0.8176  0.1563  0.0648
 8565TIP3   OH247109   4.177   1.001  14.953 -0.1877 -0.1725  0.0614
 8565TIP3    H147110   4.264   1.041  14.956 -0.9180  1.4892  0.0307
 8565TIP3    H247111   4.129   1.052  14.888 -1.3829 -0.6602  0.5348
 8566TIP3   OH247112   4.694   3.913   3.031  0.6409 -0.1791 -0.0201
 8566TIP3    H147113   4.648   3.991   3.001  1.5982  0.1107 -0.7575
 8566TIP3    H247114   4.698   3.923   3.126 -2.5029 -1.1605  0.3443
 8567TIP3   OH247115   6.220   5.985  15.054 -0.3019 -0.2401  0.0571
 8567TIP3    H147116   6.261   6.034  14.982  1.5103 -1.5081  0.1405
 8567TIP3    H247117   6.225   5.894  15.026 -1.3639 -0.5899  0.9623
 8568TIP3   OH247118   1.689   1.584  12.543 -0.4509  0.0816 -0.2565
 8568TIP3    H147119   1.670   1.678  12.550  1.7729  0.7225 -1.7751
 8568TIP3    H247120   1.704   1.556  12.633 -0.8874  1.2376  0.1936
 8569TIP3   OH247121   0.156   4.982  10.547  0.0692  0.1463  0.6220
 8569TIP3    H147122   0.064   5.003  10.562  0.0702  0.9079 -0.3206
 8569TIP3    H247123   0.202   5.065  10.559  0.6551 -0.2566  1.2272
 8570TIP3   OH247124   6.660   3.607   2.483  0.1930  0.1358  0.1644
 8570TIP3    H147125   6.687   3.526   2.439  2.4154  1.7252 -1.6711
 8570TIP3    H247126   6.742   3.656   2.494 -1.2156  2.7361 -0.1604
 8571TIP3   OH247127   5.446   4.780  14.329 -0.1017 -0.1804 -0.4158
 8571TIP3    H147128   5.532   4.738  14.332 -0.2271 -0.3605  0.8625
 8571TIP3    H247129   5.393   4.732  14.392 -0.8929  0.5031 -0.5393
 8572TIP3   OH247130   5.852   6.783   1.087 -0.1558  0.1298 -0.0399
 8572TIP3    H147131   5.869   6.769   0.993  0.2603  2.7302 -0.4375
 8572TIP3    H247132   5.916   6.728   1.131  0.1317 -0.5965 -1.2938
 8573TIP3   OH247133   4.726   2.428  15.018 -0.2658 -0.1286  0.7338
 8573TIP3    H147134   4.680   2.475  14.948 -1.2304 -2.2989 -0.1801
 8573TIP3    H247135   4.813   2.412  14.984 -0.1078  0.5024  0.8312
 8574TIP3   OH247136   6.235   2.581  12.177 -0.2975  0.5762  0.1553
 8574TIP3    H147137   6.189   2.573  12.261  1.3074 -1.8643  0.8970
 8574TIP3    H247138   6.325   2.601  12.201  0.2768 -0.5884 -0.9300
 8575TIP3   OH247139   0.867   5.005   6.389  0.0005  0.0034 -0.3210
 8575TIP3    H147140   0.833   5.081   6.341  0.8707 -0.2870 -1.4303
 8575TIP3    H247141   0.959   5.000   6.364  0.1594 -0.9305  0.3933
 8576TIP3   OH247142   3.583   1.586  15.055  0.0036 -0.6436  0.0298
 8576TIP3    H147143   3.585   1.534  14.975 -1.0501  0.4940 -0.7876
 8576TIP3    H247144   3.668   1.630  15.058 -0.9694  1.5817 -2.1091
 8577TIP3   OH247145   3.679   5.216  15.789 -0.2013 -0.0167 -0.0289
 8577TIP3    H147146   3.702   5.300  15.750 -1.2466  0.3295  0.0659
 8577TIP3    H247147   3.729   5.213  15.871  0.1635  0.3261 -0.2397
 8578TIP3   OH247148   5.674   6.762  15.865  0.2631  0.6725  0.0788
 8578TIP3    H147149   5.665   6.787  15.773  0.8937 -0.6274 -0.3541
 8578TIP3    H247150   5.594   6.794  15.907 -0.0095  1.3124 -0.8977
 8579TIP3   OH247151   4.783   4.009   0.747 -0.1328 -0.6596 -0.1337
 8579TIP3    H147152   4.709   4.005   0.686 -2.3944  2.3340  2.0708
 8579TIP3    H247153   4.747   3.978   0.830  0.3715  2.4596  1.4221
 8580TIP3   OH247154   2.851   0.429  14.115 -0.0428 -0.2352  0.0201
 8580TIP3    H147155   2.900   0.492  14.168  0.8160 -0.7835 -0.1042
 8580TIP3    H247156   2.876   0.344  14.151  0.3115 -0.5962 -1.0699
 8581TIP3   OH247157   3.054   2.997   2.197  0.2012  0.3380  0.3438
 8581TIP3    H147158   3.108   2.940   2.251 -0.9417 -0.8424  0.2937
 8581TIP3    H247159   3.114   3.064   2.164  1.2529  0.1045  1.6970
 8582TIP3   OH247160   0.596   3.675  14.473  0.3442  0.6764 -0.1525
 8582TIP3    H147161   0.679   3.627  14.473 -0.2155 -0.3309 -0.0995
 8582TIP3    H247162   0.529   3.606  14.472 -0.4911  1.4516 -1.5535
 8583TIP3   OH247163   5.423   2.295  16.565  0.1714 -0.9007 -0.1037
 8583TIP3    H147164   5.329   2.297  16.582  0.3970 -0.2558  1.2216
 8583TIP3    H247165   5.431   2.261  16.476 -1.2491 -2.2460  0.2423
 8584TIP3   OH247166   5.254   3.328   3.776 -0.1906  0.2665 -0.0382
 8584TIP3    H147167   5.174   3.362   3.814  1.1562  1.5916  1.7895
 8584TIP3    H247168   5.300   3.287   3.849  0.5863 -0.9534 -1.1528
 8585TIP3   OH247169   4.231   6.125   0.825 -0.4154 -0.2340  0.4087
 8585TIP3    H147170   4.275   6.209   0.838 -1.7621  0.4203  0.9999
 8585TIP3    H247171   4.140   6.142   0.850 -0.9811 -1.5647 -0.6140
 8586TIP3   OH247172   0.448   5.386  12.127 -0.1336  0.4842 -0.1597
 8586TIP3    H147173   0.536   5.370  12.093  0.3594 -0.5537  1.5060
 8586TIP3    H247174   0.458   5.389  12.222 -1.9362 -0.0050  0.0907
 8587TIP3   OH247175   5.754   1.282  16.219 -0.3811  0.1559  0.2241
 8587TIP3    H147176   5.834   1.324  16.189 -0.7110 -0.6630 -1.9673
 8587TIP3    H247177   5.684   1.342  16.194 -0.5848  0.1689  0.7856
 8588TIP3   OH247178   5.459   2.391  15.265 -0.1635 -0.6688 -0.0904
 8588TIP3    H147179   5.530   2.417  15.207  0.7344  2.1808  2.0453
 8588TIP3    H247180   5.472   2.444  15.344 -3.6509 -1.3304  1.1048
 8589TIP3   OH247181   2.736   3.493  13.722  0.0622  0.1804  0.0994
 8589TIP3    H147182   2.796   3.423  13.748 -1.9673 -1.4490  0.6514
 8589TIP3    H247183   2.790   3.552  13.669  2.0759 -1.2927  0.3860
 8590TIP3   OH247184   3.990   4.679   4.359  0.0513  0.5297 -0.4060
 8590TIP3    H147185   3.934   4.602   4.362  1.1782 -0.4107 -1.8542
 8590TIP3    H247186   3.949   4.742   4.418 -2.2526 -0.2772 -1.0719
 8591TIP3   OH247187   3.454   6.444  12.058  0.0304 -0.0779 -0.1355
 8591TIP3    H147188   3.390   6.494  12.008  0.5073  0.9100  0.2106
 8591TIP3    H247189   3.404   6.373  12.097 -0.6830  0.1826 -0.5630
 8592TIP3   OH247190   3.227   4.532  13.397  0.3222  0.0435  0.1575
 8592TIP3    H147191   3.250   4.511  13.307  0.4093 -1.4715  0.5102
 8592TIP3    H247192   3.152   4.476  13.417  0.1780  0.5080  0.9715
 8593TIP3   OH247193   3.093   1.130   1.169 -0.3917 -0.8467 -0.1642
 8593TIP3    H147194   3.031   1.059   1.188 -0.3698 -0.8324 -0.0397
 8593TIP3    H247195   3.038   1.208   1.162 -0.2669 -0.6157  1.1635
 8594TIP3   OH247196   6.710   2.080  12.176 -0.1392  0.4781 -0.0808
 8594TIP3    H147197   6.778   2.143  12.154  0.6327  0.3808  1.8632
 8594TIP3    H247198   6.716   2.070  12.271 -1.2404 -1.3969 -0.1630
 8595TIP3   OH247199   4.146   2.325   3.375 -0.0583 -0.2153  0.2658
 8595TIP3    H147200   4.153   2.394   3.308 -0.2839 -0.1027  0.3554
 8595TIP3    H247201   4.084   2.263   3.337  0.2075 -0.4090  0.1510
 8596TIP3   OH247202   0.306   4.840  15.802 -0.0246  0.8247 -0.0660
 8596TIP3    H147203   0.286   4.756  15.843 -2.8071  1.4122 -0.0452
 8596TIP3    H247204   0.295   4.825  15.708 -0.2183  1.1062 -0.0886
 8597TIP3   OH247205   4.016   5.231  15.094  0.2880  0.1729 -0.6288
 8597TIP3    H147206   4.053   5.150  15.060 -1.4081 -1.1819  0.6044
 8597TIP3    H247207   3.948   5.255  15.030 -1.5108 -1.2801  0.6136
 8598TIP3   OH247208   3.621   6.713  16.474  0.3436  0.3108 -0.6498
 8598TIP3    H147209   3.581   6.690  16.390 -2.2172  0.1332  0.5481
 8598TIP3    H247210   3.624   6.808  16.475 -3.3035  0.5629  0.5238
 8599TIP3   OH247211   4.432   1.583   3.838  0.0131  0.1625 -0.2345
 8599TIP3    H147212   4.511   1.633   3.859 -0.2810  0.1330  1.0275
 8599TIP3    H247213   4.368   1.610   3.904 -0.8002 -0.3617 -0.7907
 8600TIP3   OH247214   1.518   0.495   5.339  0.1698 -0.1005 -0.0638
 8600TIP3    H147215   1.424   0.512   5.343 -0.0120  0.2612 -3.2151
 8600TIP3    H247216   1.528   0.428   5.271  2.2985  1.7757 -1.7968
 8601TIP3   OH247217   5.001   0.946  15.593 -0.2235 -0.3322  0.3608
 8601TIP3    H147218   5.075   0.886  15.595 -0.2011 -0.3929 -1.2319
 8601TIP3    H247219   4.982   0.964  15.685  2.1599  0.1971  0.7982
 8602TIP3   OH247220   0.225   5.528  11.695  0.0014 -0.1462  0.1468
 8602TIP3    H147221   0.294   5.481  11.742 -0.2658 -1.1256 -0.3936
 8602TIP3    H247222   0.217   5.611  11.741  0.2010 -0.7965  1.4207
 8603TIP3   OH247223   5.342   3.319   5.066 -0.3836 -0.6464  0.4294
 8603TIP3    H147224   5.384   3.402   5.045 -1.4315 -0.5747 -1.6521
 8603TIP3    H247225   5.395   3.283   5.137  0.0342  1.8041  1.4651
 8604TIP3   OH247226   4.121   4.030   3.242 -0.0797  0.1994  0.2195
 8604TIP3    H147227   4.106   3.973   3.317 -1.3919 -1.7196 -1.4097
 8604TIP3    H247228   4.201   3.997   3.202 -0.3721  0.0569 -0.2468
 8605TIP3   OH247229   0.272   2.191   4.891  0.0710  0.1004  0.6059
 8605TIP3    H147230   0.330   2.262   4.919 -1.5558  1.9319 -0.3838
 8605TIP3    H247231   0.272   2.129   4.963  1.6763  1.0280  1.4517
 8606TIP3   OH247232   0.436   1.242   2.203 -0.0126  0.4528 -0.0200
 8606TIP3    H147233   0.489   1.282   2.272 -0.8427  0.3636  0.6753
 8606TIP3    H247234   0.471   1.279   2.122 -0.6551  2.4831  0.5834
 8607TIP3   OH247235   2.253   4.136  11.238  0.2679  0.1875 -0.2469
 8607TIP3    H147236   2.248   4.055  11.188  0.0050 -2.0195  3.0232
 8607TIP3    H247237   2.347   4.156  11.243  0.4340 -0.5924 -0.1483
 8608TIP3   OH247238   2.705   2.760   5.275  0.7259 -0.0895 -0.1296
 8608TIP3    H147239   2.725   2.670   5.302 -0.6471 -0.0356  1.2125
 8608TIP3    H247240   2.747   2.815   5.341  0.9200  0.2252 -0.5160
 8609TIP3   OH247241   3.871   1.098   2.408  0.1404 -0.0667  0.3027
 8609TIP3    H147242   3.923   1.032   2.455 -0.4423 -0.9813 -0.3007
 8609TIP3    H247243   3.787   1.055   2.392  0.7016 -0.2663 -2.6330
 8610TIP3   OH247244   6.393   0.913  16.943 -0.7567  0.1552  0.5295
 8610TIP3    H147245   6.401   1.006  16.962 -1.7646  0.4163 -0.2288
 8610TIP3    H247246   6.428   0.870  17.021 -1.8855  1.1817  1.6502
 8611TIP3   OH247247   5.612   4.878   1.081  0.1418  0.1506 -0.4329
 8611TIP3    H147248   5.582   4.787   1.084 -1.5061  0.6571 -0.3752
 8611TIP3    H247249   5.646   4.889   0.992 -0.7433 -0.2205 -0.8361
 8612TIP3   OH247250   3.158   5.018  15.127  0.0213  0.1355 -0.2842
 8612TIP3    H147251   3.105   5.006  15.205 -0.1502  1.8611 -0.1028
 8612TIP3    H247252   3.139   4.941  15.073  1.7096 -2.1892  2.1779
 8613TIP3   OH247253   5.819   4.181   5.788  0.2324  0.1840  0.1404
 8613TIP3    H147254   5.731   4.146   5.800  0.6317 -0.5178  1.1060
 8613TIP3    H247255   5.874   4.131   5.849  1.1413  1.2341  0.2124
 8614TIP3   OH247256   0.275   6.371   0.507  0.3898 -0.1465  0.3150
 8614TIP3    H147257   0.238   6.429   0.573  2.1817  0.1911  1.0750
 8614TIP3    H247258   0.370   6.377   0.519  0.6789 -2.4750 -0.2390
 8615TIP3   OH247259   1.602   3.898  15.408  0.3311 -0.4506  0.1843
 8615TIP3    H147260   1.654   3.956  15.353  0.2811  0.5068  1.1134
 8615TIP3    H247261   1.512   3.931  15.399  0.0178 -1.4592 -0.6103
 8616TIP3   OH247262   1.008   0.444   0.087  0.3832  0.3434  0.2341
 8616TIP3    H147263   1.088   0.401   0.056  1.1608  1.0203  1.2372
 8616TIP3    H247264   1.039   0.517   0.141 -0.9135  1.0099  0.1308
 8617TIP3   OH247265   1.238   2.022  14.684  0.1711  0.6054 -0.3801
 8617TIP3    H147266   1.318   1.973  14.668  0.4942  1.1493 -0.4487
 8617TIP3    H247267   1.237   2.038  14.778  0.2867  0.8359 -0.4163
 8618TIP3   OH247268   1.913   2.083   3.243 -0.3717 -0.0231  0.9613
 8618TIP3    H147269   1.863   2.007   3.213  1.8449 -1.0727 -0.3394
 8618TIP3    H247270   1.898   2.086   3.337 -2.0442 -0.8853  0.7592
 8619TIP3   OH247271   6.005   6.169  10.508 -0.6266 -0.3173  0.6151
 8619TIP3    H147272   5.977   6.187  10.598 -0.4907 -0.2752  0.6485
 8619TIP3    H247273   5.946   6.222  10.454  0.4122  1.0178  0.7539
 8620TIP3   OH247274   6.090   1.511  14.927  0.0908 -0.0480 -0.3393
 8620TIP3    H147275   6.035   1.526  14.849 -1.2338  0.5472  0.6548
 8620TIP3    H247276   6.112   1.599  14.957 -1.4862 -0.1667  1.3287
 8621TIP3   OH247277   0.398   6.003  10.788 -0.4601 -0.3467 -0.7108
 8621TIP3    H147278   0.347   6.063  10.843 -2.3510 -2.7115  0.3355
 8621TIP3    H247279   0.377   6.028  10.698 -0.3519  1.1944 -0.3205
 8622TIP3   OH247280   3.346   3.605  11.265 -0.2127  0.8217 -0.3130
 8622TIP3    H147281   3.334   3.633  11.174 -0.9336  1.1293 -0.1306
 8622TIP3    H247282   3.438   3.579  11.270 -0.0010  1.4001 -0.9703
 8623TIP3   OH247283   6.166   3.929   6.505 -0.2239  0.5677  0.7164
 8623TIP3    H147284   6.117   4.011   6.518 -0.6954  0.6015 -1.0536
 8623TIP3    H247285   6.256   3.951   6.531 -0.4223  1.5444  0.6269
 8624TIP3   OH247286   6.264   6.660   2.422  0.0933 -0.6363 -0.1540
 8624TIP3    H147287   6.302   6.637   2.338  0.1511 -1.3800  0.0674
 8624TIP3    H247288   6.339   6.682   2.477  0.0513 -0.0959 -0.3098
 8625TIP3   OH247289   2.509   0.095   0.036  0.3761  0.1013 -0.4072
 8625TIP3    H147290   2.437   0.154   0.058  1.5014  1.5943 -0.5688
 8625TIP3    H247291   2.552   0.136  -0.039  1.6631 -0.5043 -0.0373
 8626TIP3   OH247292   0.018   2.153  12.415 -0.1728 -0.1873  0.6682
 8626TIP3    H147293  -0.047   2.197  12.470 -0.2430 -0.1355  0.5451
 8626TIP3    H247294   0.087   2.218  12.403 -0.4407  0.0155  0.1956
 8627TIP3   OH247295   1.958   2.978   4.962 -0.0366  0.6499 -0.0364
 8627TIP3    H147296   1.924   3.022   4.884 -0.7472 -0.8112 -0.5823
 8627TIP3    H247297   2.045   3.016   4.974 -0.8584  2.6618 -0.0717
 8628TIP3   OH247298   2.925   1.738   3.063 -0.0551 -0.1499  0.0924
 8628TIP3    H147299   2.998   1.761   3.006  0.6584  0.5172  1.2361
 8628TIP3    H247300   2.936   1.794   3.140 -1.1675 -0.7925  0.7498
 8629TIP3   OH247301   1.630   6.109   4.189  0.4725  0.4141  0.2927
 8629TIP3    H147302   1.711   6.063   4.208 -0.5146 -0.9912  1.3482
 8629TIP3    H247303   1.613   6.092   4.096  0.4802 -0.8146  0.5027
 8630TIP3   OH247304   3.884   1.800  11.240  1.2142  0.3183 -0.0059
 8630TIP3    H147305   3.946   1.867  11.209  1.4784 -0.7325 -1.8619
 8630TIP3    H247306   3.934   1.719  11.236  0.2607 -0.2821  0.2334
 8631TIP3   OH247307   0.153   6.787   3.403 -0.2788 -0.4111  0.2615
 8631TIP3    H147308   0.136   6.850   3.334  0.5392  0.0585  0.4691
 8631TIP3    H247309   0.186   6.710   3.357 -0.9584 -0.5765  0.0356
 8632TIP3   OH247310   2.834   0.970   2.628 -0.1255  0.0005  0.3577
 8632TIP3    H147311   2.896   0.968   2.555 -0.9263 -1.1066 -0.3168
 8632TIP3    H247312   2.886   1.002   2.703  0.6754  1.2692 -0.7008
 8633TIP3   OH247313   6.579   2.625  14.905 -0.1342 -0.4720 -0.4356
 8633TIP3    H147314   6.673   2.635  14.919  0.0418 -2.5514  0.1472
 8633TIP3    H247315   6.570   2.551  14.845 -1.3906  0.5921 -1.6670
 8634TIP3   OH247316   3.175   3.910   5.336 -0.0721 -0.3471 -0.1845
 8634TIP3    H147317   3.241   3.868   5.391 -1.0688 -0.6120  0.8395
 8634TIP3    H247318   3.127   3.967   5.395  0.2349  1.0813 -1.2396
 8635TIP3   OH247319   1.422   4.323  14.632  0.0777 -0.2388  0.4796
 8635TIP3    H147320   1.510   4.320  14.670  0.1387 -0.6841  0.3077
 8635TIP3    H247321   1.427   4.389  14.564  0.0227  0.4247  1.1015
 8636TIP3   OH247322   1.734   5.325   5.126  0.1075 -0.2420  0.3782
 8636TIP3    H147323   1.703   5.271   5.053  1.3614  0.9206 -1.0830
 8636TIP3    H247324   1.828   5.308   5.129  0.3055  0.8645  0.7293
 8637TIP3   OH247325   6.134   6.293  12.899  0.1789 -0.4949  0.5536
 8637TIP3    H147326   6.135   6.232  12.974  1.5254  0.4297  1.3366
 8637TIP3    H247327   6.058   6.348  12.914  0.7643  0.0636  1.5930
 8638TIP3   OH247328   5.166   4.299  16.581  0.6093 -0.7007 -0.3834
 8638TIP3    H147329   5.117   4.341  16.511  0.7337 -0.2329 -0.1998
 8638TIP3    H247330   5.180   4.209  16.552  1.3991 -0.2869 -1.3431
 8639TIP3   OH247331   4.554   1.085   3.122  0.5117  0.0097 -0.3753
 8639TIP3    H147332   4.475   1.127   3.088 -0.6340 -0.1344  1.9443
 8639TIP3    H247333   4.557   1.001   3.077 -2.1851 -1.1137  1.2789
 8640TIP3   OH247334   2.127   5.570  13.656  0.1157 -0.6132 -0.2383
 8640TIP3    H147335   2.151   5.518  13.579  1.3469 -0.8280  0.2675
 8640TIP3    H247336   2.198   5.555  13.718 -0.5534  0.0412  0.7187
 8641TIP3   OH247337   2.033   0.696   4.537  0.2193 -0.2635  0.0099
 8641TIP3    H147338   2.014   0.644   4.615 -0.4437 -0.1520 -0.0770
 8641TIP3    H247339   2.061   0.632   4.472 -0.1689 -0.4647  0.0382
 8642TIP3   OH247340   4.289   4.531   4.155 -0.8950 -0.1912 -0.7321
 8642TIP3    H147341   4.324   4.591   4.090  0.7917  0.3389  0.6064
 8642TIP3    H247342   4.356   4.463   4.164 -0.5098  0.3960  1.3008
 8643TIP3   OH247343   1.088   4.093   2.141 -0.3411  0.3565 -0.1975
 8643TIP3    H147344   1.146   4.128   2.074  1.1632 -0.5538  0.5807
 8643TIP3    H247345   1.000   4.122   2.114  0.0666 -0.7423 -3.0330
 8644TIP3   OH247346   1.020   1.985  11.097 -0.2625  0.2163 -0.2502
 8644TIP3    H147347   1.078   1.991  11.172 -0.2224  0.1398 -0.2750
 8644TIP3    H247348   0.937   2.019  11.128 -0.2788  0.0747 -0.1376
 8645TIP3   OH247349   4.060   2.242  14.778  0.2982  0.6900 -0.0373
 8645TIP3    H147350   3.974   2.281  14.761  0.8819  2.0052 -0.1562
 8645TIP3    H247351   4.121   2.298  14.730  1.0587 -1.5244 -1.8434
 8646TIP3   OH247352   2.833   2.440   4.745 -0.3020 -0.7079  0.7552
 8646TIP3    H147353   2.918   2.465   4.782 -0.8492  0.6016  1.1972
 8646TIP3    H247354   2.835   2.344   4.744  0.9083 -0.7186  1.3905
 8647TIP3   OH247355   3.704   5.334  12.290  0.2041 -0.2829 -0.1047
 8647TIP3    H147356   3.608   5.331  12.291  0.1809  0.2266 -0.5069
 8647TIP3    H247357   3.729   5.318  12.381 -0.3249  1.2179  0.3287
 8648TIP3   OH247358   4.161   5.106   1.058  0.0430 -1.1735 -0.1921
 8648TIP3    H147359   4.068   5.100   1.038 -0.3713  0.7806  0.9030
 8648TIP3    H247360   4.181   5.026   1.105 -1.1233 -1.5187 -0.2572
 8649TIP3   OH247361   3.103   1.378   2.740  0.1266 -0.2913  0.7047
 8649TIP3    H147362   3.063   1.465   2.747 -1.0430 -0.8233  0.9867
 8649TIP3    H247363   3.090   1.339   2.826 -1.3160 -1.5354 -0.0260
 8650TIP3   OH247364   1.514   6.464  14.860  0.2283  0.2903 -0.0403
 8650TIP3    H147365   1.480   6.376  14.844  0.9238 -0.1340  0.7708
 8650TIP3    H247366   1.436   6.520  14.860 -0.2462 -0.3643 -0.2506
 8651TIP3   OH247367   3.410   4.823   0.233  0.0536 -1.0244  0.1134
 8651TIP3    H147368   3.477   4.884   0.204 -1.7168  1.4544  0.9633
 8651TIP3    H247369   3.432   4.805   0.324  0.1428 -1.0639  0.0844
 8652TIP3   OH247370   5.584   2.601   2.436  0.3490 -0.3638  1.2531
 8652TIP3    H147371   5.550   2.685   2.465 -0.8263 -0.2334 -0.4119
 8652TIP3    H247372   5.674   2.620   2.410  0.2010  0.3012  1.2012
 8653TIP3   OH247373   6.570   1.976   3.745 -0.0546 -0.1718 -0.2165
 8653TIP3    H147374   6.509   1.975   3.671  1.3747 -0.6375 -1.4366
 8653TIP3    H247375   6.514   1.989   3.822 -1.4629  2.0238 -1.4854
 8654TIP3   OH247376   2.501   0.376   4.248  0.5324  0.4719  0.3699
 8654TIP3    H147377   2.422   0.324   4.234  1.7089 -1.1249 -0.9167
 8654TIP3    H247378   2.477   0.441   4.314 -1.7133 -0.1927  0.2817
 8655TIP3   OH247379   2.401   2.984  13.279  0.4459  0.1902 -0.4099
 8655TIP3    H147380   2.353   2.902  13.294  0.4124  0.3105  0.1826
 8655TIP3    H247381   2.485   2.956  13.243  0.9058 -0.2102  0.8918
 8656TIP3   OH247382   5.052   2.742   0.295 -0.3036 -0.8885  0.5427
 8656TIP3    H147383   5.093   2.660   0.267 -1.9309 -1.4692 -0.3199
 8656TIP3    H247384   5.013   2.778   0.215  1.7845  1.6702  0.5453
 8657TIP3   OH247385   1.710   4.499   3.386  0.3007 -0.2171  0.2335
 8657TIP3    H147386   1.644   4.504   3.455  0.8952 -2.3138  1.0342
 8657TIP3    H247387   1.663   4.465   3.310  0.2593 -0.7858  0.5121
 8658TIP3   OH247388   0.527   5.243  14.188  0.2087 -0.0604  0.1003
 8658TIP3    H147389   0.455   5.285  14.236  1.1852  0.5698  1.0319
 8658TIP3    H247390   0.596   5.230  14.253  1.5704  0.8241 -1.1046
 8659TIP3   OH247391   3.814   0.537   1.686  0.1540 -0.2424 -0.1597
 8659TIP3    H147392   3.730   0.563   1.649  0.2787  0.1322 -0.1882
 8659TIP3    H247393   3.855   0.620   1.712  0.5322 -0.4192 -0.1881
 8660TIP3   OH247394   1.335   4.587  14.510  0.0281  0.7063 -0.9257
 8660TIP3    H147395   1.355   4.677  14.537  1.6272  0.1301 -0.0521
 8660TIP3    H247396   1.396   4.571  14.437  1.7095 -0.5118  0.6555
 8661TIP3   OH247397   2.024   5.308   0.425 -0.0242  0.9593 -0.0162
 8661TIP3    H147398   2.095   5.366   0.453 -0.5468  2.2086 -1.1523
 8661TIP3    H247399   1.982   5.355   0.353 -0.9542 -0.5159 -0.4775
 8662TIP3   OH247400   1.363   0.657   4.124  0.1698 -0.7626  0.0815
 8662TIP3    H147401   1.284   0.648   4.070  1.8826  3.2745 -3.8348
 8662TIP3    H247402   1.356   0.745   4.162  1.3620 -1.6134  2.4447
 8663TIP3   OH247403   5.106   4.942   3.186 -0.1714 -0.3689  0.5016
 8663TIP3    H147404   5.142   5.021   3.145 -1.4800 -0.1768 -0.3336
 8663TIP3    H247405   5.129   4.951   3.278  1.3352  0.0505  0.1191
 8664TIP3   OH247406   2.023   1.695  13.440 -0.1997 -0.2137 -0.4217
 8664TIP3    H147407   2.008   1.700  13.346  2.5979  1.0287 -0.8874
 8664TIP3    H247408   2.072   1.775  13.461 -0.0418 -0.8584  1.9465
 8665TIP3   OH247409   2.920   0.689  11.353  0.2131  1.1642  0.3349
 8665TIP3    H147410   2.979   0.673  11.427  1.0761 -0.3976 -0.6456
 8665TIP3    H247411   2.940   0.620  11.291 -2.7557  0.4797 -0.0076
 8666TIP3   OH247412   5.356   2.260  11.302  0.3703  0.3579  0.2176
 8666TIP3    H147413   5.342   2.266  11.397 -0.0202 -1.6053  0.3203
 8666TIP3    H247414   5.269   2.242  11.267  0.9520 -1.9988 -0.1659
 8667TIP3   OH247415   5.034   1.822  11.309 -0.3147 -0.0267  0.6487
 8667TIP3    H147416   5.046   1.913  11.279 -0.2824  0.4129  1.9421
 8667TIP3    H247417   5.123   1.787  11.316 -0.0428  0.9779  3.4435
 8668TIP3   OH247418   5.881   4.277  13.487 -0.2712 -0.3131  0.2781
 8668TIP3    H147419   5.972   4.246  13.488 -0.9409 -2.5150  2.7383
 8668TIP3    H247420   5.874   4.333  13.564 -1.3579 -1.5950  1.1736
 8669TIP3   OH247421   3.421   2.784  14.209 -0.0630 -0.0691  0.1421
 8669TIP3    H147422   3.332   2.792  14.244 -0.2527  1.1861 -0.5720
 8669TIP3    H247423   3.437   2.868  14.166  1.6841 -0.0744  0.7309
 8670TIP3   OH247424   2.938   5.677   4.362 -0.1357 -0.2235  0.1898
 8670TIP3    H147425   2.986   5.612   4.311 -1.6471 -0.7609 -0.6165
 8670TIP3    H247426   2.958   5.761   4.321 -0.5554 -0.5426 -0.6972
 8671TIP3   OH247427   2.640   3.320   2.327 -0.4103 -0.3916  0.1640
 8671TIP3    H147428   2.618   3.397   2.380  1.1385 -0.2827  0.7050
 8671TIP3    H247429   2.624   3.246   2.385  1.3113 -0.2709  0.8732
 8672TIP3   OH247430   0.536   6.057   1.686 -0.2738  0.2116  0.0996
 8672TIP3    H147431   0.577   6.037   1.602 -0.3319 -0.6796  0.2741
 8672TIP3    H247432   0.543   5.975   1.736 -1.7494  0.2109  0.3509
 8673TIP3   OH247433   6.011   2.356  12.925 -0.6886  0.6788 -0.1019
 8673TIP3    H147434   5.923   2.351  12.963 -0.8856  2.4577 -0.2111
 8673TIP3    H247435   5.995   2.375  12.832 -0.2012 -2.6220 -0.9746
 8674TIP3   OH247436   3.222   4.696  16.337 -0.0358 -0.1529 -0.5857
 8674TIP3    H147437   3.261   4.620  16.380  0.1231  0.0523 -0.3631
 8674TIP3    H247438   3.230   4.677  16.243  1.3064  0.2256 -0.5679
 8675TIP3   OH247439   5.959   2.658   3.599 -0.2414 -0.5564 -0.3672
 8675TIP3    H147440   5.890   2.616   3.651 -0.3797  2.2982  2.0253
 8675TIP3    H247441   6.040   2.640   3.648  0.0217 -0.0993 -0.6285
 8676TIP3   OH247442   4.083   1.341   3.915 -0.1976  0.2445 -0.0025
 8676TIP3    H147443   4.020   1.372   3.979 -0.1714 -0.5415  0.4115
 8676TIP3    H247444   4.168   1.365   3.951  0.0745 -3.1134  2.0032
 8677TIP3   OH247445   6.372   4.469   1.577  0.1239 -0.4068 -0.2460
 8677TIP3    H147446   6.285   4.499   1.603  0.2526  0.5881 -0.9300
 8677TIP3    H247447   6.397   4.526   1.504  1.6136 -0.2462  0.3491
 8678TIP3   OH247448   5.118   4.637   6.000 -0.2366  0.3068  0.6924
 8678TIP3    H147449   5.177   4.699   6.044 -0.0288  0.3765  0.3233
 8678TIP3    H247450   5.059   4.606   6.069  2.1696 -2.1584  1.8027
 8679TIP3   OH247451   6.341   1.248  16.477 -0.4813  0.2740 -0.4207
 8679TIP3    H147452   6.314   1.157  16.468 -0.7160  0.4612 -2.0919
 8679TIP3    H247453   6.413   1.258  16.415  1.1543  0.6611  1.4646
 8680TIP3   OH247454   0.013   5.482   4.983 -0.1527 -0.4012 -0.0047
 8680TIP3    H147455   0.018   5.388   4.996 -0.4161 -0.3389  0.5872
 8680TIP3    H247456  -0.080   5.503   4.997 -0.8092 -0.5143 -3.4241
 8681TIP3   OH247457   0.988   6.551   2.528  0.0224 -0.0708 -0.9148
 8681TIP3    H147458   0.896   6.573   2.540 -0.4031 -1.8750 -0.5580
 8681TIP3    H247459   1.033   6.594   2.601 -0.2902  1.9618 -1.8441
 8682TIP3   OH247460   6.287   1.902   2.731  0.0444  0.4867  0.3436
 8682TIP3    H147461   6.360   1.911   2.670 -0.1087 -2.9573 -0.5934
 8682TIP3    H247462   6.211   1.935   2.682  0.6218  2.2770  0.5956
 8683TIP3   OH247463   4.874   0.078   0.865 -0.2403  0.0494 -0.0993
 8683TIP3    H147464   4.847   0.066   0.956 -0.1479 -1.5621 -0.2417
 8683TIP3    H247465   4.942   0.012   0.852  0.2331  0.7316 -1.1400
 8684TIP3   OH247466   6.640   6.403   1.357  0.7886  0.3536 -0.2792
 8684TIP3    H147467   6.670   6.320   1.319 -0.7104  0.3094 -1.4544
 8684TIP3    H247468   6.721   6.451   1.375  1.7942 -1.9245  1.9203
 8685TIP3   OH247469   4.119   2.158   2.917 -0.5234 -0.2467  0.2181
 8685TIP3    H147470   4.058   2.087   2.899  0.1975 -0.3349 -2.1084
 8685TIP3    H247471   4.200   2.113   2.942  0.5428 -0.4648 -3.1223
 8686TIP3   OH247472   0.859   6.658  13.316 -0.2280 -0.3428 -0.5196
 8686TIP3    H147473   0.865   6.749  13.285 -0.7202  0.0902  0.5969
 8686TIP3    H247474   0.950   6.633  13.331 -0.1581  0.5375  0.6925
 8687TIP3   OH247475   2.064   0.078  13.543 -0.0016 -0.5099 -0.4506
 8687TIP3    H147476   2.123   0.129  13.488  0.2787  0.5308  0.7724
 8687TIP3    H247477   2.063   0.124  13.627 -2.1104 -0.8234 -0.2456
 8688TIP3   OH247478   5.201   1.773   5.080 -0.0601  0.5201 -0.1362
 8688TIP3    H147479   5.269   1.742   5.141  0.4556 -1.6435 -1.6682
 8688TIP3    H247480   5.119   1.760   5.127  0.2852 -1.6466 -0.0224
 8689TIP3   OH247481   1.803   1.904  12.881 -0.2216  0.6902  0.3060
 8689TIP3    H147482   1.874   1.861  12.833 -0.6293 -2.2323  2.0616
 8689TIP3    H247483   1.769   1.836  12.939 -1.3066  3.2971  2.9999
 8690TIP3   OH247484   1.712   4.625  14.312 -0.3592  0.2110  0.0062
 8690TIP3    H147485   1.790   4.595  14.358 -1.3690 -0.9598  1.0346
 8690TIP3    H247486   1.730   4.607  14.220  0.8719  0.6504  0.1493
 8691TIP3   OH247487   3.858   0.254  15.139 -0.1216 -0.1774 -0.4840
 8691TIP3    H147488   3.952   0.239  15.137  0.0833  1.0961 -1.2120
 8691TIP3    H247489   3.839   0.306  15.061 -0.8964  2.4333  1.2958
 8692TIP3   OH247490   3.676   6.190   0.663 -0.0517 -0.9387  0.5735
 8692TIP3    H147491   3.709   6.101   0.654 -0.7776 -1.1655  0.0713
 8692TIP3    H247492   3.752   6.242   0.690  0.9239 -1.2902 -1.3480
 8693TIP3   OH247493   5.879   0.335   1.076 -0.4518  0.7617  0.4549
 8693TIP3    H147494   5.919   0.286   1.004 -1.2899  1.4369 -0.4928
 8693TIP3    H247495   5.953   0.372   1.123  0.1740 -0.8316  0.7900
 8694TIP3   OH247496   5.635   3.777  12.030  0.4161 -0.0561  0.3558
 8694TIP3    H147497   5.659   3.754  12.120 -0.8168  0.5076  0.8621
 8694TIP3    H247498   5.622   3.872  12.033  0.2779 -0.0479 -0.4033
 8695TIP3   OH247499   4.069   5.444  11.055  0.1229  0.7801  0.1681
 8695TIP3    H147500   4.067   5.430  10.961  0.0152  1.5317  0.0554
 8695TIP3    H247501   4.085   5.357  11.092  1.1751  0.6365 -0.5853
 8696TIP3   OH247502   0.567   5.000  14.697  0.0812 -0.4841 -0.6123
 8696TIP3    H147503   0.605   5.023  14.612  2.8491 -0.9595  0.4015
 8696TIP3    H247504   0.612   5.058  14.759 -0.4074 -1.5190  0.7478
 8697TIP3   OH247505   2.481   3.133  16.960 -0.0949 -0.1514 -0.3102
 8697TIP3    H147506   2.521   3.208  17.005  0.9234 -0.5036 -0.6079
 8697TIP3    H247507   2.505   3.146  16.868  2.5862 -2.3137 -0.0363
 8698TIP3   OH247508   5.801   4.715  15.416 -0.0751 -0.3736  0.1470
 8698TIP3    H147509   5.748   4.795  15.411  1.1954  0.4326 -0.8412
 8698TIP3    H247510   5.813   4.689  15.324  0.7906 -0.8396  0.3878
 8699TIP3   OH247511   3.387   2.604  11.459  0.0267  0.1793  0.1851
 8699TIP3    H147512   3.309   2.591  11.405 -0.8892 -0.1063  1.5298
 8699TIP3    H247513   3.355   2.651  11.536  1.0381 -0.5982  1.1057
 8700TIP3   OH247514   0.596   6.625  11.721 -0.3488 -0.6595  0.1362
 8700TIP3    H147515   0.541   6.703  11.721  0.6959  0.0951 -0.1113
 8700TIP3    H247516   0.576   6.581  11.804 -0.5834  0.1283  0.5044
 8701TIP3   OH247517   5.120   0.481   0.531 -0.3224  0.2641 -0.4219
 8701TIP3    H147518   5.032   0.516   0.512 -0.7198  0.0522  0.9644
 8701TIP3    H247519   5.106   0.414   0.597  1.0826  1.5798  1.2991
 8702TIP3   OH247520   4.584   3.780  16.018 -1.2575  0.2607 -0.2570
 8702TIP3    H147521   4.540   3.858  16.052  1.4051  0.9336  1.9897
 8702TIP3    H247522   4.610   3.804  15.929 -0.0429  2.2333  0.5567
 8703TIP3   OH247523   5.903   5.919   6.044  0.0239  0.0995 -0.6329
 8703TIP3    H147524   5.829   5.978   6.056 -0.2307 -0.1747 -0.8451
 8703TIP3    H247525   5.872   5.854   5.980  0.1868 -0.4565 -0.1533
 8704TIP3   OH247526   5.689   0.037  13.697 -0.8166 -0.3207 -0.2747
 8704TIP3    H147527   5.743  -0.040  13.713 -2.3355 -1.3810 -0.0102
 8704TIP3    H247528   5.605   0.002  13.667 -1.9323  1.1670  0.9424
 8705TIP3   OH247529   4.274   6.294   5.394 -0.3214 -0.5415  0.2347
 8705TIP3    H147530   4.285   6.345   5.474 -1.9703 -0.4547  0.4382
 8705TIP3    H247531   4.360   6.298   5.351 -0.0802  1.4219  0.8042
 8706TIP3   OH247532   0.881   5.773   5.640  0.0442 -0.4726  0.3787
 8706TIP3    H147533   0.921   5.723   5.711  1.4581 -1.7513 -1.2202
 8706TIP3    H247534   0.915   5.862   5.650  1.6867 -1.0534  0.3012
 8707TIP3   OH247535   3.865   4.619   1.414 -0.1546  0.3815  0.1155
 8707TIP3    H147536   3.953   4.604   1.379 -0.4922 -0.6888 -0.3257
 8707TIP3    H247537   3.874   4.695   1.471  0.8535  0.8650 -0.6643
 8708TIP3   OH247538   6.092   3.919  10.494 -0.4917 -0.0465 -0.0480
 8708TIP3    H147539   6.015   3.939  10.442  0.4322  0.9811 -1.0761
 8708TIP3    H247540   6.089   3.982  10.566 -1.2605 -0.8401  0.6347
 8709TIP3   OH247541   1.192   0.179  12.289 -0.4252 -0.0258 -0.5814
 8709TIP3    H147542   1.279   0.152  12.259 -1.1154 -1.2587 -1.5898
 8709TIP3    H247543   1.165   0.246  12.226  0.3602  1.4782  0.6034
 8710TIP3   OH247544   4.123   5.492   3.561  0.1877 -0.3495 -0.3288
 8710TIP3    H147545   4.189   5.448   3.508 -0.9213 -1.6476 -0.6611
 8710TIP3    H247546   4.043   5.486   3.510 -0.4300  0.2935  0.5354
 8711TIP3   OH247547   3.841   1.322   1.798  0.2215 -0.3384  0.1379
 8711TIP3    H147548   3.813   1.244   1.750 -0.5486 -0.2618  0.4605
 8711TIP3    H247549   3.828   1.394   1.736 -0.0046 -0.3400  0.1844
 8712TIP3   OH247550   3.724   0.603  13.263 -0.5367  0.1155  0.0098
 8712TIP3    H147551   3.657   0.562  13.318 -0.7672  0.1189 -0.2642
 8712TIP3    H247552   3.771   0.661  13.322 -0.0676 -0.6935  0.4550
 8713TIP3   OH247553   0.258   1.585   3.239 -0.1756 -0.2390 -0.1001
 8713TIP3    H147554   0.212   1.544   3.313 -1.6580 -1.8127 -1.7797
 8713TIP3    H247555   0.341   1.615   3.276 -0.7289 -1.2356  2.1288
 8714TIP3   OH247556   4.374   4.646  17.172 -0.3504  0.0318 -0.7587
 8714TIP3    H147557   4.368   4.724  17.227 -0.0847 -1.1569  1.0069
 8714TIP3    H247558   4.421   4.676  17.094  1.8737  1.1433  0.8857
 8715TIP3   OH247559   0.678   5.981   0.940  0.1638  0.0160  0.7343
 8715TIP3    H147560   0.762   5.938   0.958 -0.0240 -0.4449  0.5252
 8715TIP3    H247561   0.653   5.948   0.853 -1.3022 -1.5759  1.6881
 8716TIP3   OH247562   2.942   1.393   5.914 -0.0128 -0.0342 -0.5378
 8716TIP3    H147563   2.893   1.449   5.854  0.7647  1.1868 -0.0822
 8716TIP3    H247564   2.976   1.453   5.980 -0.2467 -1.2430  0.7368
 8717TIP3   OH247565   5.176   6.157   1.948  0.0948  0.0678 -0.1458
 8717TIP3    H147566   5.269   6.157   1.970 -0.2760  2.0416  1.8245
 8717TIP3    H247567   5.132   6.129   2.029 -1.1068  1.9307 -0.0895
 8718TIP3   OH247568   6.334   5.272   5.102 -0.2958  0.2919 -0.1935
 8718TIP3    H147569   6.365   5.345   5.047 -0.2667  1.4192  1.2557
 8718TIP3    H247570   6.254   5.305   5.143  0.6991  0.2384  1.9063
 8719TIP3   OH247571   0.532   1.699   0.144  0.6494  0.8873  0.2971
 8719TIP3    H147572   0.510   1.776   0.196  0.7768  1.6252 -0.7152
 8719TIP3    H247573   0.451   1.676   0.098  0.9300  1.1863 -0.3627
 8720TIP3   OH247574   0.891   3.011  11.878  0.2079 -0.2180  0.3714
 8720TIP3    H147575   0.839   3.004  11.959 -1.2119  1.6610 -0.2741
 8720TIP3    H247576   0.901   2.921  11.848  0.3244 -0.9260  2.3526
 8721TIP3   OH247577   2.300   2.746  16.426  0.1479 -0.2777  0.0327
 8721TIP3    H147578   2.318   2.706  16.341 -2.0153 -1.7357  0.1847
 8721TIP3    H247579   2.359   2.701  16.486  0.2721 -0.6845 -0.3838
 8722TIP3   OH247580   3.777   2.078   0.405 -0.7963  0.4216  0.5596
 8722TIP3    H147581   3.841   2.041   0.345  0.6339  1.0438  1.6396
 8722TIP3    H247582   3.718   2.006   0.426 -0.7338 -0.0486 -0.7811
 8723TIP3   OH247583   4.676   1.433  13.238  0.3101 -0.1630  0.5655
 8723TIP3    H147584   4.656   1.430  13.332  0.2851  1.4740  0.6414
 8723TIP3    H247585   4.722   1.516  13.226  2.1491 -1.2691 -0.5496
 8724TIP3   OH247586   5.758   4.847   1.793 -0.0150  0.0275 -0.0181
 8724TIP3    H147587   5.698   4.791   1.744  1.6098 -0.0102 -2.0822
 8724TIP3    H247588   5.840   4.845   1.743  0.9272  2.0862  1.3003
 8725TIP3   OH247589   3.981   1.429  13.636  0.6530 -0.3586 -0.3186
 8725TIP3    H147590   3.983   1.525  13.640 -2.0108 -0.2530  0.5152
 8725TIP3    H247591   4.064   1.402  13.673  1.2007  1.6255  0.0444
 8726TIP3   OH247592   4.079   2.781  13.332 -0.2566 -0.2802 -0.3290
 8726TIP3    H147593   4.111   2.858  13.379  3.3817 -1.9330  0.2773
 8726TIP3    H247594   4.114   2.790  13.243 -1.8031 -0.1933 -0.9705
 8727TIP3   OH247595   0.507   0.250  11.092  0.0758  0.9085 -0.6554
 8727TIP3    H147596   0.543   0.260  11.180  1.5834 -0.6723 -1.0242
 8727TIP3    H247597   0.561   0.306  11.037 -0.3204  1.2377 -0.7186
 8728TIP3   OH247598   3.782   4.464  13.047 -0.1141 -0.1480  0.0651
 8728TIP3    H147599   3.690   4.469  13.073 -0.7142 -1.7013 -1.5497
 8728TIP3    H247600   3.830   4.460  13.129 -1.4554  0.9143  0.9426
 8729TIP3   OH247601   1.024   6.027  15.141  0.1859  0.2684 -0.3749
 8729TIP3    H147602   1.052   6.108  15.098  0.8854 -0.0771 -0.5915
 8729TIP3    H247603   0.959   6.055  15.205  0.9624  1.0915  0.0747
 8730TIP3   OH247604   1.854   2.603  11.298 -0.6540 -0.2639 -0.7277
 8730TIP3    H147605   1.810   2.668  11.352 -0.1305 -0.6802  0.2266
 8730TIP3    H247606   1.814   2.520  11.321  0.4793 -0.6264  0.0306
 8731TIP3   OH247607   0.258   1.940  11.761 -0.0189 -0.0532  0.4299
 8731TIP3    H147608   0.316   1.993  11.707  1.8860 -1.6829  0.7409
 8731TIP3    H247609   0.244   1.860  11.710 -0.8554 -0.2632  0.9701
 8732TIP3   OH247610   6.239   4.762   4.008 -0.1953  0.1416  0.7658
 8732TIP3    H147611   6.271   4.808   4.086 -0.0504  0.8616  0.2986
 8732TIP3    H247612   6.318   4.730   3.965 -0.3554 -1.8806  1.8410
 8733TIP3   OH247613   1.226   4.325   2.270 -0.1253  0.2033 -1.0474
 8733TIP3    H147614   1.131   4.331   2.282  0.0236  2.0188 -0.4860
 8733TIP3    H247615   1.242   4.362   2.183  0.2840  2.7907  0.0386
 8734TIP3   OH247616   4.331   3.601   3.134  0.0212 -0.4513 -0.1434
 8734TIP3    H147617   4.298   3.591   3.224 -1.6894  0.1239 -0.6691
 8734TIP3    H247618   4.288   3.530   3.086  0.0020 -0.0369 -0.7387
 8735TIP3   OH247619   4.119   4.297   6.397  0.3997 -0.0040  0.8602
 8735TIP3    H147620   4.054   4.302   6.467  1.0827  1.2139  1.4477
 8735TIP3    H247621   4.090   4.360   6.332  0.3818 -0.2892  0.5914
 8736TIP3   OH247622   5.693   2.770   5.026 -0.0267 -0.0646  0.0250
 8736TIP3    H147623   5.772   2.811   5.060 -0.2548  0.5418 -0.1607
 8736TIP3    H247624   5.625   2.794   5.089 -0.2487  0.2148 -0.3183
 8737TIP3   OH247625   5.284   1.748  11.592 -0.4040  0.2490  0.7543
 8737TIP3    H147626   5.281   1.675  11.654 -1.8274 -0.5865 -0.2200
 8737TIP3    H247627   5.268   1.706  11.507  2.7202  1.1448 -0.4185
 8738TIP3   OH247628   4.235   0.957   5.360  0.7533  0.2594 -0.5604
 8738TIP3    H147629   4.175   0.976   5.432 -1.4070 -3.6881 -1.0046
 8738TIP3    H247630   4.183   0.977   5.281  0.6125 -1.5021 -0.9490
 8739TIP3   OH247631   2.810   1.876  16.948 -0.1610 -0.4627 -0.2077
 8739TIP3    H147632   2.762   1.794  16.957  1.5630 -1.4847  0.1225
 8739TIP3    H247633   2.894   1.851  16.910 -0.2914  1.4191 -1.8719
 8740TIP3   OH247634   6.423   6.714  15.482 -0.0620  0.4655 -0.5112
 8740TIP3    H147635   6.506   6.707  15.529 -0.2570  0.0686 -0.2208
 8740TIP3    H247636   6.441   6.775  15.410  0.8427 -0.6080 -1.2402
 8741TIP3   OH247637   2.025   0.648  13.884  0.1018 -0.0268 -0.0398
 8741TIP3    H147638   2.037   0.738  13.915 -0.0512  0.1307 -0.4329
 8741TIP3    H247639   1.991   0.601  13.959 -2.4988  0.8529 -0.5677
 8742TIP3   OH247640   4.753   0.460  16.130 -0.2306  0.2723  0.6456
 8742TIP3    H147641   4.826   0.442  16.189  0.4837  2.1033  0.3877
 8742TIP3    H247642   4.751   0.555  16.123 -2.2016  0.2339  0.0591
 8743TIP3   OH247643   2.909   1.682  14.009  0.1684  0.6575  0.1956
 8743TIP3    H147644   2.915   1.643  13.922 -1.6489  0.7425 -0.0231
 8743TIP3    H247645   2.877   1.771  13.993 -1.9546  0.1013  0.9875
 8744TIP3   OH247646   5.891   5.190   6.235 -0.4977 -0.2962  0.4913
 8744TIP3    H147647   5.948   5.247   6.183 -1.4226 -0.8732 -1.2290
 8744TIP3    H247648   5.820   5.166   6.176 -2.1149 -0.2592  2.3322
 8745TIP3   OH247649   3.317   4.160  13.525  0.1786  0.2945  0.1326
 8745TIP3    H147650   3.359   4.156  13.610 -0.9549 -0.2061  0.6933
 8745TIP3    H247651   3.280   4.248  13.520 -0.0965  0.1923  0.3369
 8746TIP3   OH247652   4.777   5.430  11.422  0.1436  0.0273  0.4610
 8746TIP3    H147653   4.688   5.466  11.420  0.6616  1.5810  2.2496
 8746TIP3    H247654   4.766   5.341  11.458 -0.7658 -0.1764 -0.2844
 8747TIP3   OH247655   0.270   3.866  11.918  0.4612 -0.1012  0.1666
 8747TIP3    H147656   0.182   3.873  11.956  0.3406 -2.1351  0.3641
 8747TIP3    H247657   0.290   3.954  11.887 -2.3886  0.0276 -1.5600
 8748TIP3   OH247658   0.909   3.950  11.328 -0.5536 -0.0054  0.4233
 8748TIP3    H147659   0.958   3.876  11.363  0.2819  0.4459  0.2108
 8748TIP3    H247660   0.928   4.023  11.386  0.6608  0.6892 -0.7877
 8749TIP3   OH247661   4.792   0.262   1.594 -0.2576 -0.4863  0.2731
 8749TIP3    H147662   4.707   0.229   1.623 -0.2761  0.1880  0.9938
 8749TIP3    H247663   4.833   0.186   1.551 -0.7498 -1.1357  0.9232
 8750TIP3   OH247664   2.368   3.666   5.141 -0.1217  0.5773 -0.0444
 8750TIP3    H147665   2.407   3.584   5.171 -2.1358 -0.0062  1.2082
 8750TIP3    H247666   2.334   3.707   5.221 -1.0991  1.5417 -0.9191
 8751TIP3   OH247667   4.884   5.392  15.779  0.0252  0.1786 -0.0378
 8751TIP3    H147668   4.874   5.487  15.784 -1.1158  0.0200  1.1147
 8751TIP3    H247669   4.966   5.379  15.732  0.6026  1.7422  0.4939
 8752TIP3   OH247670   4.818   5.114  15.871  0.1453 -0.5064  0.0836
 8752TIP3    H147671   4.832   5.209  15.868 -1.0469 -0.3435 -1.1875
 8752TIP3    H247672   4.761   5.100  15.946 -0.4772 -0.0784 -0.2947
 8753TIP3   OH247673   0.778   5.591   5.108  1.0048 -0.0506 -0.5639
 8753TIP3    H147674   0.700   5.578   5.162  0.9501  1.3631 -0.2687
 8753TIP3    H247675   0.749   5.650   5.038  2.1215  1.6656  0.3590
 8754TIP3   OH247676   0.890   3.579  14.583  0.4809 -0.0324 -0.1197
 8754TIP3    H147677   0.871   3.606  14.672  2.4018 -0.6168  0.5168
 8754TIP3    H247678   0.975   3.536  14.588 -0.5309 -2.4945 -1.7509
 8755TIP3   OH247679   5.089   1.747   1.858  0.3449  0.5771 -0.7169
 8755TIP3    H147680   4.994   1.758   1.848  0.1468  0.3493  0.6647
 8755TIP3    H247681   5.100   1.654   1.877  0.5083  1.0474  1.9390
 8756TIP3   OH247682   5.615   5.728   0.368  0.1952  0.0101 -0.2438
 8756TIP3    H147683   5.685   5.675   0.404  1.7905  0.5123 -2.4005
 8756TIP3    H247684   5.561   5.666   0.318  0.4791 -0.0225 -0.5142
 8757TIP3   OH247685   0.796   6.682   0.183 -0.4474  0.4604 -0.6629
 8757TIP3    H147686   0.743   6.603   0.177 -0.7988  0.6800 -0.4758
 8757TIP3    H247687   0.785   6.725   0.099  0.7705 -0.3273 -1.2527
 8758TIP3   OH247688   4.865   5.375   3.620 -0.1835  0.1573 -0.6770
 8758TIP3    H147689   4.809   5.373   3.699  0.8466 -2.5575  0.1186
 8758TIP3    H247690   4.861   5.285   3.587 -1.0347  1.3362 -4.1511
 8759TIP3   OH247691   1.195   1.398   5.444  0.2928 -0.0481 -0.4807
 8759TIP3    H147692   1.129   1.420   5.510  0.8116 -1.2409  0.4772
 8759TIP3    H247693   1.270   1.366   5.495  1.0259 -0.2056 -1.6223
 8760TIP3   OH247694   3.457   5.747  11.295 -0.0238 -0.0624 -0.4962
 8760TIP3    H147695   3.401   5.794  11.234 -1.0737 -1.5130 -0.7278
 8760TIP3    H247696   3.422   5.657  11.295  0.9971 -0.5057  0.9605
 8761TIP3   OH247697   3.544   1.156   1.605  0.4272 -0.0393 -0.3194
 8761TIP3    H147698   3.600   1.082   1.627  0.5841  0.2374  0.2282
 8761TIP3    H247699   3.455   1.122   1.617  0.5060  0.1054  0.7914
 8762TIP3   OH247700   3.937   0.263  15.826 -0.1334 -0.3970 -0.4293
 8762TIP3    H147701   3.934   0.193  15.761 -1.9155  0.3326 -1.1818
 8762TIP3    H247702   3.977   0.337  15.780  2.5863 -1.1025  0.6246
 8763TIP3   OH247703   2.183   6.624  10.846 -0.1326  0.4684  0.3061
 8763TIP3    H147704   2.229   6.541  10.856 -3.2021 -1.1545  2.6268
 8763TIP3    H247705   2.222   6.682  10.911 -0.6893 -0.6005  1.6376
 8764TIP3   OH247706   0.349   0.223  16.563  0.8186 -0.6400  0.3305
 8764TIP3    H147707   0.372   0.134  16.590 -0.2329 -0.7286  1.0055
 8764TIP3    H247708   0.295   0.257  16.635 -1.8367 -0.7777 -1.4368
 8765TIP3   OH247709   4.151   3.927   2.889 -0.4920  0.5200  0.3365
 8765TIP3    H147710   4.170   3.984   2.815  0.8899 -0.0005  0.2634
 8765TIP3    H247711   4.056   3.912   2.884 -0.1292 -1.7188 -3.0195
 8766TIP3   OH247712   3.364   6.010   1.345 -0.2576  0.2163  0.0176
 8766TIP3    H147713   3.344   5.919   1.321  0.6542 -0.0699  0.2916
 8766TIP3    H247714   3.388   6.005   1.438 -0.6099  0.8121  0.1478
 8767TIP3   OH247715   1.849   0.503  12.714  0.2480 -0.5775  0.6045
 8767TIP3    H147716   1.913   0.537  12.776  2.4826 -1.6612 -0.9534
 8767TIP3    H247717   1.822   0.419  12.751  2.4288 -1.7639 -0.2862
 8768TIP3   OH247718   4.940   6.421   5.907 -0.4539  0.0405 -0.0274
 8768TIP3    H147719   4.880   6.413   5.980  0.0023 -1.8146  0.2028
 8768TIP3    H247720   4.887   6.401   5.829 -0.5369  0.2133 -0.0148
 8769TIP3   OH247721   2.102   6.112   1.272 -0.3645 -0.3735  0.1916
 8769TIP3    H147722   2.045   6.183   1.298 -0.2772  0.0827 -0.7914
 8769TIP3    H247723   2.075   6.090   1.183 -0.3405 -1.5253  0.4466
 8770TIP3   OH247724   4.448   2.446  15.924 -0.2044 -0.5954  0.4497
 8770TIP3    H147725   4.439   2.446  16.019 -1.3551  3.4142  0.5291
 8770TIP3    H247726   4.359   2.460  15.891  0.6621  3.4643 -0.7602
 8771TIP3   OH247727   1.779   0.759   6.078 -0.0066 -0.7058  0.0653
 8771TIP3    H147728   1.709   0.695   6.068 -0.3026 -0.1107 -2.3415
 8771TIP3    H247729   1.735   0.837   6.113  0.1389 -1.3499  1.8153
 8772TIP3   OH247730   1.997   5.755   0.695 -0.3110  0.2821  0.3017
 8772TIP3    H147731   2.060   5.778   0.626  0.0531 -0.8662  0.2375
 8772TIP3    H247732   2.011   5.662   0.711 -0.0011  0.6378  2.3449
 8773TIP3   OH247733   0.201   1.450   1.437 -0.7528 -0.4647  0.0404
 8773TIP3    H147734   0.216   1.356   1.448 -0.7071 -0.3339  1.1647
 8773TIP3    H247735   0.199   1.485   1.526  0.7098  0.8327 -0.3925
 8774TIP3   OH247736   6.292   5.927   0.573 -0.8078 -0.0690  0.3447
 8774TIP3    H147737   6.293   6.023   0.569 -1.9365  0.0026  1.2219
 8774TIP3    H247738   6.214   5.906   0.624 -1.1259 -1.5078 -0.6799
 8775TIP3   OH247739   3.371   5.084   2.963  0.2985  0.2543 -0.1125
 8775TIP3    H147740   3.291   5.036   2.941  0.5682 -0.1804 -0.1496
 8775TIP3    H247741   3.438   5.049   2.904  0.3810  1.0601 -0.5174
 8776TIP3   OH247742   2.426   5.352  17.016  0.1909  0.1160 -0.2230
 8776TIP3    H147743   2.514   5.385  17.034  0.5665  0.8128 -2.9528
 8776TIP3    H247744   2.439   5.265  16.980 -0.2817 -0.0194 -0.0754
 8777TIP3   OH247745   3.125   2.150   4.771 -0.3806 -0.0302  0.5525
 8777TIP3    H147746   3.132   2.104   4.688  0.8613 -0.0819  0.6679
 8777TIP3    H247747   3.191   2.108   4.827 -1.1427  0.0561  1.5325
 8778TIP3   OH247748   2.149   6.039  15.525 -0.2282 -0.2105 -0.1118
 8778TIP3    H147749   2.238   6.036  15.488  0.4089  0.9340  1.2421
 8778TIP3    H247750   2.112   6.121  15.491 -0.5122 -0.3383 -0.1092
 8779TIP3   OH247751   3.264   3.155   2.087  0.3300  0.1889 -0.6569
 8779TIP3    H147752   3.236   3.241   2.120  0.5794 -0.0980  0.3268
 8779TIP3    H247753   3.339   3.132   2.141 -0.0100 -0.8543 -0.6221
 8780TIP3   OH247754   2.141   3.198   0.817 -0.3117  0.8935  0.2292
 8780TIP3    H147755   2.143   3.116   0.868  2.2420  1.1225  0.6632
 8780TIP3    H247756   2.099   3.174   0.735  0.1042 -0.7936  0.4674
 8781TIP3   OH247757   5.303   2.903   6.005  0.9661  0.4351  0.2608
 8781TIP3    H147758   5.316   2.864   5.918  0.4525  2.6934 -0.9135
 8781TIP3    H247759   5.391   2.907   6.042  1.1496 -0.9165  0.0575
 8782TIP3   OH247760   5.074   5.117   3.686  0.1875 -0.0108  0.4757
 8782TIP3    H147761   5.122   5.195   3.655  0.5080  0.5592  2.2739
 8782TIP3    H247762   5.131   5.044   3.664  1.9082  0.6450  2.4171
 8783TIP3   OH247763   5.372   5.945  17.076  1.4560  0.1502 -0.4480
 8783TIP3    H147764   5.334   5.864  17.041  0.4946  0.5736 -0.3936
 8783TIP3    H247765   5.368   5.934  17.171 -1.5575  1.5104 -0.3170
 8784TIP3   OH247766   3.834   4.527  14.988 -0.1425 -0.4337  0.1320
 8784TIP3    H147767   3.859   4.495  15.074 -2.6313 -0.6839  0.8364
 8784TIP3    H247768   3.917   4.551  14.946  1.0836  0.3611  2.8171
 8785TIP3   OH247769   2.460   2.830  15.579 -0.0087  0.0839 -0.4030
 8785TIP3    H147770   2.472   2.785  15.662  0.1029 -0.1334 -0.5372
 8785TIP3    H247771   2.382   2.884  15.591 -0.6917 -0.8598 -0.5571
 8786TIP3   OH247772   5.630   3.077   1.044 -0.4085 -0.2301  0.1151
 8786TIP3    H147773   5.698   3.028   0.998 -0.0010 -0.8257  1.3074
 8786TIP3    H247774   5.646   3.169   1.021  0.0125 -0.4790 -0.6055
 8787TIP3   OH247775   0.075   1.220   1.966 -0.2219 -0.0597  0.1464
 8787TIP3    H147776   0.086   1.310   1.998  0.3408 -0.4862  1.1826
 8787TIP3    H247777   0.162   1.194   1.936 -0.8828  0.6354 -2.6756
 8788TIP3   OH247778   2.964   3.074   2.518  0.0219  0.0161 -0.0178
 8788TIP3    H147779   2.910   3.114   2.586 -1.3682  1.0926 -1.6468
 8788TIP3    H247780   2.901   3.033   2.459  1.1215 -0.2755 -1.0329
 8789TIP3   OH247781   3.295   0.509   3.091 -0.5428 -0.1199 -0.0684
 8789TIP3    H147782   3.345   0.558   3.156 -0.8797 -1.4135  1.2047
 8789TIP3    H247783   3.350   0.511   3.012  0.8471 -0.2720  0.8577
 8790TIP3   OH247784   1.498   4.788   2.929 -0.3028  0.4323 -0.3944
 8790TIP3    H147785   1.423   4.732   2.952  1.4785 -2.0002 -0.1029
 8790TIP3    H247786   1.518   4.835   3.010 -0.4026 -0.2831  0.0582
 8791TIP3   OH247787   3.310   6.253  11.825  0.5621  0.2677  0.6889
 8791TIP3    H147788   3.251   6.328  11.821 -0.3781 -0.4887 -1.3347
 8791TIP3    H247789   3.397   6.291  11.819  0.1928  1.2847  1.5012
 8792TIP3   OH247790   0.317   0.635  13.909  0.0334  0.2266 -0.4306
 8792TIP3    H147791   0.276   0.549  13.906  0.5721 -0.0374 -0.3353
 8792TIP3    H247792   0.367   0.635  13.990 -2.8863  2.0045  1.5901
 8793TIP3   OH247793   2.074   4.266  12.657 -0.2816 -0.6471 -0.5451
 8793TIP3    H147794   2.125   4.223  12.726 -0.8512 -0.1767  0.1881
 8793TIP3    H247795   2.011   4.319  12.705  1.1434  1.9610 -1.3838
 8794TIP3   OH247796   4.154   0.375  11.017  0.5120  0.0300  0.1415
 8794TIP3    H147797   4.240   0.411  11.039 -0.4327  1.3137  1.9797
 8794TIP3    H247798   4.165   0.340  10.928  2.7196  0.7981  0.0486
 8795TIP3   OH247799   2.054   2.992  13.548 -0.0217 -0.4904  0.2344
 8795TIP3    H147800   2.050   3.050  13.472  0.2168  0.2601  0.7883
 8795TIP3    H247801   2.094   2.911  13.515 -1.0780 -0.6451 -0.7266
 8796TIP3   OH247802   5.760   1.059   4.269  0.5085 -0.0715 -0.3242
 8796TIP3    H147803   5.701   1.053   4.194  0.6002 -2.3084 -0.2835
 8796TIP3    H247804   5.833   1.112   4.238  0.6174 -1.0859 -1.8950
 8797TIP3   OH247805   2.842   3.147  13.483 -0.1835  0.1617  0.0213
 8797TIP3    H147806   2.850   3.226  13.430 -1.8231  0.0905 -0.4127
 8797TIP3    H247807   2.750   3.122  13.473  0.2253 -1.6069  0.4291
 8798TIP3   OH247808   5.559   3.911  13.768  0.2276  0.3284  0.0234
 8798TIP3    H147809   5.576   3.920  13.674  1.1912  0.8583  0.2412
 8798TIP3    H247810   5.473   3.950  13.780  0.2703  0.6239 -0.5769
 8799TIP3   OH247811   3.261   4.581  11.838  0.2288 -0.1002 -0.8139
 8799TIP3    H147812   3.222   4.498  11.865  0.7147  0.0455  0.4533
 8799TIP3    H247813   3.354   4.561  11.826  0.3320  0.2203 -0.5954
 8800TIP3   OH247814   3.777   4.958  16.645  0.0041 -0.2283 -0.2895
 8800TIP3    H147815   3.797   4.904  16.568  0.6085  0.9349 -0.9623
 8800TIP3    H247816   3.852   5.017  16.653 -1.3126  1.5420 -0.4830
 8801TIP3   OH247817   3.217   1.077  16.500  0.7471 -0.3237 -0.5155
 8801TIP3    H147818   3.203   0.983  16.503 -2.4127 -0.0291 -1.9959
 8801TIP3    H247819   3.179   1.111  16.580  0.7784 -0.2030 -0.5496
 8802TIP3   OH247820   4.658   1.106  14.138 -0.1125  0.4367  0.1097
 8802TIP3    H147821   4.742   1.062  14.125  0.6594  1.5702  1.0430
 8802TIP3    H247822   4.630   1.130  14.050 -0.2107 -1.2585 -0.3502
 8803TIP3   OH247823   1.411   4.480   0.841  0.8713 -0.2038  0.1264
 8803TIP3    H147824   1.490   4.432   0.867  2.4136  1.3447 -1.3853
 8803TIP3    H247825   1.410   4.556   0.899 -0.5645 -1.0782  1.3225
 8804TIP3   OH247826   3.892   3.491   6.418  0.2216  0.3079  0.0971
 8804TIP3    H147827   3.850   3.473   6.502  2.6818  1.2369  1.6417
 8804TIP3    H247828   3.981   3.518   6.441  1.0304  0.5018 -2.8375
 8805TIP3   OH247829   1.308   4.797  15.164 -0.0304 -0.3077 -0.0941
 8805TIP3    H147830   1.306   4.719  15.109 -0.5887 -1.3150  1.2801
 8805TIP3    H247831   1.369   4.774  15.235  0.0477  0.6283  0.1544
 8806TIP3   OH247832   3.262   3.303  14.037  0.1291  0.2439  0.0640
 8806TIP3    H147833   3.354   3.303  14.065 -0.0173  1.2646  0.5787
 8806TIP3    H247834   3.223   3.230  14.085  0.1898  1.1430  1.5774
 8807TIP3   OH247835   6.504   1.538   1.179  0.0264 -0.5446 -0.2926
 8807TIP3    H147836   6.588   1.515   1.221  0.0535 -0.2368 -0.1725
 8807TIP3    H247837   6.523   1.534   1.085  0.7998  1.6247 -0.3003
 8808TIP3   OH247838   0.006   4.135  14.382 -0.0884 -0.4701 -0.6447
 8808TIP3    H147839  -0.010   4.129  14.477 -2.2529  1.7141 -0.7862
 8808TIP3    H247840  -0.062   4.193  14.350  0.1082 -1.7725 -3.7227
 8809TIP3   OH247841   4.367   2.311   6.394 -0.0060 -0.5575 -0.4200
 8809TIP3    H147842   4.291   2.282   6.444 -1.1960  0.0853 -1.7622
 8809TIP3    H247843   4.396   2.234   6.346  1.6251 -1.3822  1.7379
 8810TIP3   OH247844   2.111   6.468  14.574  0.1949 -0.1123 -0.2114
 8810TIP3    H147845   2.065   6.461  14.658 -0.4668 -1.0371 -0.6369
 8810TIP3    H247846   2.054   6.521  14.519 -0.4777 -1.3921 -0.7919
 8811TIP3   OH247847   3.564   0.196   1.971 -0.0898  0.2093 -0.7641
 8811TIP3    H147848   3.480   0.238   1.993  0.8133  0.9157  1.6494
 8811TIP3    H247849   3.630   0.263   1.990  1.1465 -0.9327 -0.8673
 8812TIP3   OH247850   6.625   4.608  12.104 -0.0584 -0.4433  0.3371
 8812TIP3    H147851   6.609   4.536  12.042 -2.1771  0.1339  0.1276
 8812TIP3    H247852   6.691   4.662  12.061 -1.0094 -0.4058 -1.1456
 8813TIP3   OH247853   2.779   5.764   1.422  0.3414  0.4933 -0.3741
 8813TIP3    H147854   2.739   5.817   1.352 -0.1636 -0.3807 -0.7661
 8813TIP3    H247855   2.872   5.783   1.417  0.4518 -0.3119 -1.9672
 8814TIP3   OH247856   1.173   2.370  13.155  0.3582 -0.1215  0.2406
 8814TIP3    H147857   1.249   2.409  13.200  1.9152 -3.5018  0.8461
 8814TIP3    H247858   1.108   2.358  13.224 -0.4109  1.7982 -0.0760
 8815TIP3   OH247859   1.416   0.585  12.762 -0.0055  0.1498  0.3024
 8815TIP3    H147860   1.469   0.541  12.828  1.2604 -0.1725 -0.8792
 8815TIP3    H247861   1.390   0.515  12.702  1.4296  0.8334 -1.2030
 8816TIP3   OH247862   0.591   5.889  12.287 -0.3081 -0.1350 -0.2180
 8816TIP3    H147863   0.520   5.919  12.344 -0.0651 -0.6686  0.3703
 8816TIP3    H247864   0.640   5.827  12.340 -1.3140 -2.2928 -1.6912
 8817TIP3   OH247865   2.122   6.410  12.836 -0.1027  0.3583  0.0696
 8817TIP3    H147866   2.202   6.366  12.865  1.2316  3.3875  1.4408
 8817TIP3    H247867   2.107   6.479  12.901 -2.5600  1.3444 -1.3944
 8818TIP3   OH247868   5.981   3.368   5.345 -0.3742  0.5998  0.0396
 8818TIP3    H147869   6.053   3.431   5.354  2.2253 -2.2761  1.1754
 8818TIP3    H247870   6.017   3.299   5.288 -2.7633 -0.3326 -0.4648
 8819TIP3   OH247871   2.107   6.265  15.871  0.0770  0.3152 -0.0783
 8819TIP3    H147872   2.092   6.351  15.911  2.1846 -0.7132  3.3240
 8819TIP3    H247873   2.181   6.279  15.812 -0.3687  1.0477 -0.4772
 8820TIP3   OH247874   6.051   0.319   3.789  0.2326  0.1441  0.3797
 8820TIP3    H147875   6.038   0.313   3.694  1.6171  1.2519  0.0863
 8820TIP3    H247876   6.068   0.411   3.806  1.4527 -0.2367  1.4839
 8821TIP3   OH247877   3.443   1.434  11.286  0.2781 -0.9029  0.1677
 8821TIP3    H147878   3.426   1.382  11.207 -1.3304  0.6813 -0.6143
 8821TIP3    H247879   3.538   1.431  11.298  0.9754  0.9114 -3.4103
 8822TIP3   OH247880   3.117   0.302   5.583  0.8444  0.5721  0.1089
 8822TIP3    H147881   3.142   0.380   5.633  2.4806  0.4761 -0.4927
 8822TIP3    H247882   3.034   0.325   5.543 -0.4142  0.7597  2.6161
 8823TIP3   OH247883   1.711   4.731   4.061  0.1218 -0.0815 -0.5862
 8823TIP3    H147884   1.796   4.744   4.103  0.3078 -1.9188 -0.3193
 8823TIP3    H247885   1.647   4.764   4.125  0.5090 -1.0099  0.2908
 8824TIP3   OH247886   5.911   5.450  14.726 -0.4179 -0.0183 -0.5311
 8824TIP3    H147887   5.873   5.519  14.780 -1.0101  1.2233 -2.4217
 8824TIP3    H247888   6.003   5.477  14.715 -0.3306 -0.2017 -0.2581
 8825TIP3   OH247889   5.302   3.285   3.503 -0.1892 -0.2797  0.3679
 8825TIP3    H147890   5.396   3.287   3.487 -0.2698 -0.9129 -0.2297
 8825TIP3    H247891   5.293   3.304   3.597  0.4008  1.6016  0.0771
 8826TIP3   OH247892   6.383   2.159  17.079  1.2424  0.4760 -0.2164
 8826TIP3    H147893   6.344   2.234  17.035  1.4701 -0.1015 -1.4719
 8826TIP3    H247894   6.403   2.190  17.167  0.7722  1.6920 -0.5145
 8827TIP3   OH247895   4.441   2.749   1.130 -0.5754  0.3657 -0.1734
 8827TIP3    H147896   4.370   2.690   1.152  0.2034 -0.2524  0.7788
 8827TIP3    H247897   4.401   2.816   1.075 -1.7684 -0.2584 -0.0901
 8828TIP3   OH247898   4.464   4.777  13.840  0.1262 -0.1744  0.3597
 8828TIP3    H147899   4.432   4.867  13.847  0.7414  0.0920 -0.1450
 8828TIP3    H247900   4.511   4.775  13.757  1.3058 -0.5959  1.0217
 8829TIP3   OH247901   4.646   1.029  15.897 -0.2870 -0.1053  0.1041
 8829TIP3    H147902   4.604   0.959  15.848 -0.4391 -1.6466  2.2925
 8829TIP3    H247903   4.739   1.023  15.874 -0.2060 -1.4479  0.7223
 8830TIP3   OH247904   6.369   2.290  11.415 -0.2303 -0.3986  0.0576
 8830TIP3    H147905   6.337   2.310  11.327 -3.3140 -0.7740  0.9799
 8830TIP3    H247906   6.336   2.362  11.470  0.9803 -0.5681  1.0607
 8831TIP3   OH247907   2.455   1.777   2.994 -0.4416  0.6842 -0.2443
 8831TIP3    H147908   2.383   1.821   3.039 -0.5567  1.7471 -1.4004
 8831TIP3    H247909   2.520   1.761   3.062 -2.0236 -0.9639  0.9735
 8832TIP3   OH247910   1.489   2.366   1.848 -0.1500  0.6612 -0.2703
 8832TIP3    H147911   1.471   2.395   1.938  1.9979  0.4581  0.2788
 8832TIP3    H247912   1.407   2.326   1.819 -0.2141 -1.5161  2.5077
 8833TIP3   OH247913   5.779   4.818  13.835  1.0230 -0.0459  0.1218
 8833TIP3    H147914   5.693   4.830  13.795  1.1202  0.4392  0.0587
 8833TIP3    H247915   5.798   4.725  13.823  0.8381 -0.0009 -0.5428
 8834TIP3   OH247916   4.041   2.204  12.466  0.2135 -0.5236  0.2300
 8834TIP3    H147917   4.014   2.173  12.552 -1.5784 -0.0844 -0.1403
 8834TIP3    H247918   3.960   2.214  12.417  1.0287  1.0997 -0.8897
 8835TIP3   OH247919   3.642   0.758  15.654  0.0618 -0.2280  0.0361
 8835TIP3    H147920   3.700   0.829  15.680  0.6065 -1.1088  1.3096
 8835TIP3    H247921   3.567   0.802  15.613  0.3619  1.0841  0.8341
 8836TIP3   OH247922   3.265   5.178   4.941  0.0754  0.1062 -0.3137
 8836TIP3    H147923   3.261   5.255   4.998 -0.2743 -0.0663 -0.1072
 8836TIP3    H247924   3.280   5.105   5.000  0.5648  0.0298 -0.5247
 8837TIP3   OH247925   6.697   5.644  12.052 -0.1953 -0.2625 -0.0925
 8837TIP3    H147926   6.640   5.691  12.113  1.0971 -0.1820  1.1077
 8837TIP3    H247927   6.717   5.562  12.096  0.1083 -0.5632 -0.7778
 8838TIP3   OH247928   1.445   5.439  11.708  0.6180  0.3391  0.1770
 8838TIP3    H147929   1.498   5.382  11.764 -0.5323 -1.2374 -0.2744
 8838TIP3    H247930   1.509   5.487  11.656  1.6637 -1.9756 -0.8233
 8839TIP3   OH247931   0.085   1.506  15.614 -0.1834 -0.1588  0.0450
 8839TIP3    H147932   0.157   1.533  15.672 -1.0941  1.2703  0.5620
 8839TIP3    H247933   0.014   1.483  15.674 -0.9370  0.7523 -0.4815
 8840TIP3   OH247934   0.411   4.685  11.699 -0.3752 -0.0446 -0.0043
 8840TIP3    H147935   0.321   4.697  11.668 -0.2619 -0.6289 -0.5787
 8840TIP3    H247936   0.440   4.604  11.657  0.3936  0.1019  0.2364
 8841TIP3   OH247937   6.646   1.079  16.596  0.9843 -0.6206 -0.2182
 8841TIP3    H147938   6.616   1.115  16.679  1.0709 -1.5861  0.2457
 8841TIP3    H247939   6.736   1.050  16.613  0.8151 -1.3163 -0.4944
 8842TIP3   OH247940   3.728   5.380  14.982  0.3172  0.3861 -0.2888
 8842TIP3    H147941   3.649   5.427  14.955  0.1462  0.2277 -0.0653
 8842TIP3    H247942   3.711   5.289  14.958 -0.3236  0.0277  1.3720
 8843TIP3   OH247943   4.279   3.537   3.676  0.4301  0.4477 -0.3291
 8843TIP3    H147944   4.234   3.612   3.715  2.1783  1.9352 -1.0189
 8843TIP3    H247945   4.250   3.462   3.727 -2.9030  1.2465 -0.8368
 8844TIP3   OH247946   3.453   0.658   6.155 -0.1417 -0.1057  0.0061
 8844TIP3    H147947   3.490   0.582   6.199 -1.1132 -0.8598 -0.4254
 8844TIP3    H247948   3.387   0.691   6.216  1.4621  1.4790  0.9538
 8845TIP3   OH247949   1.338   1.494  11.712 -0.2181 -0.2384 -0.3063
 8845TIP3    H147950   1.283   1.513  11.637 -0.5958  0.6547  0.1859
 8845TIP3    H247951   1.363   1.579  11.747  0.6052 -0.6335  0.1193
 8846TIP3   OH247952   5.936   6.573  11.318  0.5848  0.2730 -0.4548
 8846TIP3    H147953   5.958   6.665  11.332  0.0537  0.2248  0.8539
 8846TIP3    H247954   6.020   6.527  11.323  0.8618  0.6934 -1.1987
 8847TIP3   OH247955   6.020   1.531  13.598 -0.4279  0.0246  0.1797
 8847TIP3    H147956   5.983   1.509  13.683  2.2064 -3.6873  0.6175
 8847TIP3    H247957   6.115   1.526  13.612  0.0906 -0.6944 -2.9124
 8848TIP3   OH247958   4.062   2.242   5.309 -0.0166 -0.3580 -0.5436
 8848TIP3    H147959   3.994   2.211   5.249 -1.1255 -0.4228  0.7272
 8848TIP3    H247960   4.110   2.163   5.334 -2.2279 -1.0562  1.9221
 8849TIP3   OH247961   0.906   4.453  15.255  0.7749 -0.2565  0.5208
 8849TIP3    H147962   0.932   4.495  15.337  1.8096  1.0714 -0.4383
 8849TIP3    H247963   0.887   4.526  15.196 -0.8053 -1.1847 -0.1803
 8850TIP3   OH247964   3.685   4.814   3.967 -0.1141 -0.3385  0.0817
 8850TIP3    H147965   3.615   4.872   3.935  0.3720  0.2424  0.0570
 8850TIP3    H247966   3.698   4.840   4.058  0.6547  0.1446 -0.1595
 8851TIP3   OH247967   5.605   2.041  15.074 -0.4209  0.3297  0.6510
 8851TIP3    H147968   5.522   2.076  15.042  0.8286  2.5013 -0.4842
 8851TIP3    H247969   5.645   2.000  14.997 -0.0813  0.0265  0.9847
 8852TIP3   OH247970   0.410   6.112  13.799  0.2429  0.1700  0.1696
 8852TIP3    H147971   0.452   6.156  13.873  0.1461  0.9423 -0.2234
 8852TIP3    H247972   0.414   6.175  13.728 -1.8010  0.3729  0.1742
 8853TIP3   OH247973   0.139   5.383  13.308 -0.7210 -0.0675 -0.0248
 8853TIP3    H147974   0.140   5.406  13.401 -1.2997 -1.0385  0.2330
 8853TIP3    H247975   0.231   5.384  13.283 -0.4697 -0.7512  0.8093
 8854TIP3   OH247976   1.250   5.535  16.976 -0.2040 -0.8236 -0.1010
 8854TIP3    H147977   1.298   5.613  17.005 -0.5604 -0.5171 -0.3229
 8854TIP3    H247978   1.271   5.528  16.883 -0.5741 -0.6940 -0.1962
 8855TIP3   OH247979   0.192   3.645   4.145  0.3584  0.5325  0.0491
 8855TIP3    H147980   0.149   3.682   4.221  0.6459  1.3775 -0.1922
 8855TIP3    H247981   0.206   3.553   4.168 -4.9122 -0.9193 -1.2761
 8856TIP3   OH247982   4.468   3.411  11.680 -0.3014  0.0461 -0.2347
 8856TIP3    H147983   4.492   3.382  11.768  0.1265  0.1744 -0.3057
 8856TIP3    H247984   4.387   3.460  11.692 -0.6740 -0.6077 -0.0228
 8857TIP3   OH247985   4.974   1.587   4.762  0.3466  0.3004 -0.3177
 8857TIP3    H147986   5.069   1.587   4.749  0.9641 -0.9561  3.0945
 8857TIP3    H247987   4.949   1.494   4.758 -0.3602  0.4261  0.7243
 8858TIP3   OH247988   3.921   4.840  14.155 -0.2137 -0.1513 -0.3440
 8858TIP3    H147989   3.902   4.826  14.062 -1.0843 -0.5550 -0.1123
 8858TIP3    H247990   3.855   4.903  14.184 -1.5628 -1.9254  0.5854
 8859TIP3   OH247991   2.292   3.328  15.944 -0.4120 -0.1401 -0.6976
 8859TIP3    H147992   2.225   3.370  15.890 -1.8215 -0.7045  0.5509
 8859TIP3    H247993   2.300   3.383  16.021  0.8738  0.1224 -0.9842
 8860TIP3   OH247994   0.539   5.670  15.890  0.3994 -0.1475  0.1137
 8860TIP3    H147995   0.481   5.604  15.853 -0.2596  0.0961  0.6926
 8860TIP3    H247996   0.568   5.632  15.973  3.4571 -1.5837 -1.4253
 8861TIP3   OH247997   1.380   0.463   2.698  0.0759  1.0402 -0.0961
 8861TIP3    H147998   1.357   0.473   2.606 -0.0296 -1.9587 -0.5040
 8861TIP3    H247999   1.474   0.445   2.698 -0.4477 -2.2198 -0.0507
 8862TIP3   OH248000   2.422   2.083   1.118  0.1403 -0.0645  0.1518
 8862TIP3    H148001   2.385   2.166   1.148 -0.1589 -0.7084  1.6646
 8862TIP3    H248002   2.443   2.035   1.199  1.7358 -0.8496 -0.6796
 8863TIP3   OH248003   0.404   1.476  15.658 -0.0732  0.2376 -0.4962
 8863TIP3    H148004   0.449   1.481  15.574  3.0913 -1.1016  0.9557
 8863TIP3    H248005   0.359   1.391  15.657 -0.8698  0.6529 -1.1583
 8864TIP3   OH248006   2.406   1.945   1.962  0.0743 -0.4427 -0.4131
 8864TIP3    H148007   2.441   2.010   2.022 -1.4388  0.5499 -0.5647
 8864TIP3    H248008   2.456   1.865   1.982  1.4570  0.5486  0.2677
 8865TIP3   OH248009   1.825   1.312  15.426 -0.2136 -0.0066 -0.2243
 8865TIP3    H148010   1.759   1.323  15.358 -1.7258  1.6346  1.3811
 8865TIP3    H248011   1.824   1.218  15.446 -1.2015 -0.1847 -1.0409
 8866TIP3   OH248012   0.488   4.310  11.854 -0.1470 -0.3162 -0.3124
 8866TIP3    H148013   0.556   4.334  11.917  1.1912 -3.4145 -0.4107
 8866TIP3    H248014   0.447   4.231  11.890 -1.4540 -0.3977 -1.8485
 8867TIP3   OH248015   1.507   0.659  12.402 -0.1202  0.7436 -0.2665
 8867TIP3    H148016   1.506   0.754  12.394  3.0255  0.8730 -0.5402
 8867TIP3    H248017   1.571   0.641  12.470  2.2982 -1.1516 -2.7964
 8868TIP3   OH248018   2.329   1.446  16.058 -0.1676  0.4132  0.5694
 8868TIP3    H148019   2.421   1.445  16.084  0.6487 -0.7424 -2.0289
 8868TIP3    H248020   2.324   1.511  15.988 -1.0821 -0.3494 -0.0997
 8869TIP3   OH248021   1.327   4.695   4.493 -0.2053  0.1371  0.4412
 8869TIP3    H148022   1.268   4.643   4.548 -3.3136  2.5466 -0.2733
 8869TIP3    H248023   1.415   4.670   4.521 -1.4967 -3.4960  1.8386
 8870TIP3   OH248024   4.742   1.310   1.158  0.2408  0.0367 -0.1619
 8870TIP3    H148025   4.688   1.246   1.111 -1.5903  0.1328  1.6634
 8870TIP3    H248026   4.786   1.260   1.226  3.0079 -0.1287 -1.9215
 8871TIP3   OH248027   4.890   0.618   5.263  0.3579  0.0361  0.3597
 8871TIP3    H148028   4.943   0.539   5.256 -1.9953 -1.6254 -0.0113
 8871TIP3    H248029   4.857   0.617   5.353 -0.8281 -0.2759 -0.0467
 8872TIP3   OH248030   0.632   0.197  12.839 -0.4531 -0.0229  0.0100
 8872TIP3    H148031   0.667   0.198  12.750  0.0212  0.1282  0.1959
 8872TIP3    H248032   0.571   0.271  12.841  0.0790  0.4214  0.0217
 8873TIP3   OH248033   3.842   6.690   1.112  0.4564 -0.1116  0.3883
 8873TIP3    H148034   3.759   6.645   1.126  0.8794 -1.3365 -0.8957
 8873TIP3    H248035   3.817   6.782   1.101 -0.8613 -0.5768 -0.9095
 8874TIP3   OH248036   0.302   5.130  11.434 -0.5051  0.8080 -0.6005
 8874TIP3    H148037   0.361   5.195  11.473  1.1743 -0.4419 -0.9581
 8874TIP3    H248038   0.340   5.046  11.458 -2.0566 -0.0385 -1.0200
 8875TIP3   OH248039   6.499   2.727  17.006 -0.1714 -0.4422  0.7791
 8875TIP3    H148040   6.536   2.647  16.969  0.4424  0.6709 -1.2023
 8875TIP3    H248041   6.417   2.740  16.958 -1.4873 -1.0800  2.7463
 8876TIP3   OH248042   4.275   2.745   0.216 -0.0586 -0.0633 -0.1785
 8876TIP3    H148043   4.189   2.719   0.249  0.8593 -1.8873  0.9283
 8876TIP3    H248044   4.305   2.812   0.277 -0.7771  0.8038 -0.7408
 8877TIP3   OH248045   3.850   0.159   2.351 -0.3616  0.5471 -0.3905
 8877TIP3    H148046   3.890   0.218   2.416 -1.5453 -0.6437  1.5191
 8877TIP3    H248047   3.770   0.203   2.324 -0.2515  0.6996 -0.4698
 8878TIP3   OH248048   4.270   3.124   4.354  0.1490 -0.3036  0.2931
 8878TIP3    H148049   4.222   3.207   4.349 -0.8874 -0.7262  2.3450
 8878TIP3    H248050   4.214   3.066   4.404  1.9282 -1.4885  1.0302
 8879TIP3   OH248051   0.404   3.565   2.191  0.1813 -0.1585 -0.4734
 8879TIP3    H148052   0.346   3.541   2.119 -0.6635 -2.0568  0.7567
 8879TIP3    H248053   0.417   3.483   2.239  0.9056  0.9986  1.3908
 8880TIP3   OH248054   6.188   0.592  14.032 -0.8133  0.3440  0.4393
 8880TIP3    H148055   6.263   0.595  14.091 -0.9847 -1.7748  0.8355
 8880TIP3    H248056   6.201   0.666  13.973  1.3504  0.2855  0.7666
 8881TIP3   OH248057   6.517   1.768  14.010  0.1289 -0.1276  0.2173
 8881TIP3    H148058   6.453   1.699  14.028  0.0130  0.0262  0.4039
 8881TIP3    H248059   6.581   1.760  14.080  0.6899 -0.7245 -0.3614
 8882TIP3   OH248060   0.840   2.063  12.995  0.1702  0.1804 -0.2988
 8882TIP3    H148061   0.896   2.097  12.924 -1.0683  1.9626 -0.4896
 8882TIP3    H248062   0.818   1.974  12.967  1.1372  0.2212 -1.2733
 8883TIP3   OH248063   5.687   6.383  15.814 -0.1538 -0.4975  0.4429
 8883TIP3    H148064   5.745   6.347  15.881  1.9087 -0.6850 -1.3332
 8883TIP3    H248065   5.700   6.326  15.738 -1.8772  0.1261 -0.3721
 8884TIP3   OH248066   3.168   3.594  12.913 -0.2525 -0.2587 -0.2758
 8884TIP3    H148067   3.185   3.687  12.901 -1.9033  0.1401  0.2242
 8884TIP3    H248068   3.203   3.553  12.834  0.9558  0.6988 -0.2731
 8885TIP3   OH248069   5.186   1.675  16.755 -0.5650 -0.4244  0.1503
 8885TIP3    H148070   5.103   1.631  16.738  0.3711 -1.9370 -0.7681
 8885TIP3    H248071   5.221   1.632  16.833 -0.8978  0.6229  0.8986
 8886TIP3   OH248072   3.006   3.817  17.147 -0.0155 -0.4207  0.3118
 8886TIP3    H148073   3.005   3.827  17.242 -0.0788 -0.0141  0.2708
 8886TIP3    H248074   2.972   3.729  17.131  0.6394 -0.7517  0.6959
 8887TIP3   OH248075   6.154   4.669  13.004  0.3012 -0.6562 -0.3165
 8887TIP3    H148076   6.185   4.738  13.062 -1.2988  0.8305 -1.1444
 8887TIP3    H248077   6.167   4.704  12.916  2.4043 -2.7422 -0.9304
 8888TIP3   OH248078   5.682   6.421  11.048  0.4585  0.1754  0.6990
 8888TIP3    H148079   5.641   6.335  11.041  0.9635 -0.1976  1.9957
 8888TIP3    H248080   5.623   6.480  11.000  0.4688 -0.9873 -0.8027
 8889TIP3   OH248081   5.294   4.124  11.311  0.2110  0.3822  0.3153
 8889TIP3    H148082   5.213   4.135  11.359 -0.9951  1.3504 -1.7919
 8889TIP3    H248083   5.324   4.035  11.333 -0.9718  0.3129  1.7397
 8890TIP3   OH248084   4.427   1.279  17.023  0.7861 -0.4257  0.5895
 8890TIP3    H148085   4.401   1.369  17.044 -0.1344  0.1903 -2.7102
 8890TIP3    H248086   4.515   1.287  16.987  1.5665 -1.1956  2.2088
 8891TIP3   OH248087   5.052   2.950  12.901  0.5564 -0.0676  0.3338
 8891TIP3    H148088   5.142   2.946  12.869  0.4598 -0.2640  0.0860
 8891TIP3    H248089   5.004   2.889  12.845  0.1243  0.5888 -0.0235
 8892TIP3   OH248090   0.217   5.681  16.052  0.3017  0.3819  0.1360
 8892TIP3    H148091   0.182   5.757  16.098  0.9425  0.7640  0.0037
 8892TIP3    H248092   0.280   5.642  16.113 -0.1883 -0.1752  0.2915
 8893TIP3   OH248093   0.409   1.137   4.927  0.1394  0.2666  0.0852
 8893TIP3    H148094   0.347   1.090   4.871  0.5150 -0.9236  0.6410
 8893TIP3    H248095   0.493   1.131   4.882 -0.2791  2.9087 -1.2760
 8894TIP3   OH248096   1.970   4.316   4.957 -0.9953  0.0790 -0.8113
 8894TIP3    H148097   1.918   4.330   4.878 -1.0917  1.6561 -0.5025
 8894TIP3    H248098   1.912   4.267   5.015 -1.1267 -0.5983 -1.4925
 8895TIP3   OH248099   4.495   1.038   4.438 -0.7501  0.2695  0.4852
 8895TIP3    H148100   4.561   1.067   4.501 -0.9865 -1.1854  1.4546
 8895TIP3    H248101   4.458   0.958   4.477 -0.7485 -0.8169 -1.5964
 8896TIP3   OH248102   4.091   4.488  11.472 -0.1110 -0.1146 -0.2391
 8896TIP3    H148103   4.126   4.399  11.461 -0.9494 -0.9123  2.6378
 8896TIP3    H248104   4.015   4.491  11.415 -0.8558 -1.7981  0.5802
 8897TIP3   OH248105   6.223   4.745   3.338  0.0895 -0.6340  0.0797
 8897TIP3    H148106   6.218   4.746   3.242  0.9021 -0.2034  0.0378
 8897TIP3    H248107   6.212   4.836   3.363 -2.7977 -1.0303  0.5692
 8898TIP3   OH248108   5.671   2.063  16.007  0.1952  0.0988  0.2209
 8898TIP3    H148109   5.697   2.062  16.099  2.3244 -0.7898 -0.3477
 8898TIP3    H248110   5.666   1.971  15.982 -2.7160  0.2207 -0.0025
 8899TIP3   OH248111   3.472   2.589  12.346  0.4237 -0.8083 -0.3199
 8899TIP3    H148112   3.492   2.530  12.418  0.1437  1.0932  1.4212
 8899TIP3    H248113   3.380   2.575  12.326 -0.2026  0.4026  1.4979
 8900TIP3   OH248114   4.883   2.805   0.082 -0.4869  0.6267 -0.5146
 8900TIP3    H148115   4.833   2.768   0.009 -2.4227 -0.6375  1.3474
 8900TIP3    H248116   4.851   2.895   0.089  0.3305  1.0436 -1.6784
 8901TIP3   OH248117   6.467   5.956   6.191  0.6495 -0.1760 -0.1768
 8901TIP3    H148118   6.414   6.007   6.252  1.0354  0.1662 -0.1201
 8901TIP3    H248119   6.437   5.865   6.202  2.2690 -0.5075  2.2186
 8902TIP3   OH248120   6.239   0.444   5.393  0.6198  0.4311  0.1943
 8902TIP3    H148121   6.163   0.448   5.451  0.5755  1.7993  0.0790
 8902TIP3    H248122   6.315   0.443   5.452  0.5940  2.4088  0.3185
 8903TIP3   OH248123   0.223   1.274   2.407 -0.1069  0.4533 -0.4256
 8903TIP3    H148124   0.278   1.215   2.355  1.0233  0.8992  0.2309
 8903TIP3    H248125   0.281   1.347   2.430 -1.0799  1.1157 -0.0115
 8904TIP3   OH248126   5.651   5.178  15.822  0.1698 -0.2585 -0.0590
 8904TIP3    H148127   5.672   5.097  15.777  0.0879 -0.5071  0.3468
 8904TIP3    H248128   5.643   5.243  15.752 -1.0733 -0.8630 -0.4999
 8905TIP3   OH248129   3.769   3.613  17.120 -0.1001  0.2461 -0.1768
 8905TIP3    H148130   3.819   3.644  17.044 -0.9463 -0.2692 -0.9718
 8905TIP3    H248131   3.684   3.657  17.113 -0.2128  0.1356  0.4355
 8906TIP3   OH248132   5.628   5.184  12.610  0.1454 -0.8757  0.1585
 8906TIP3    H148133   5.622   5.123  12.683  1.2376  0.1430  1.1367
 8906TIP3    H248134   5.720   5.209  12.606 -0.4551  1.8572  0.8044
 8907TIP3   OH248135   1.904   5.880  13.514 -0.4498  0.3270  0.1531
 8907TIP3    H148136   1.886   5.871  13.420 -0.6214 -0.0711  0.2247
 8907TIP3    H248137   1.859   5.961  13.539 -1.8138 -0.4224  0.2432
 8908TIP3   OH248138   1.797   5.610  14.583 -0.6565 -0.4463  0.0473
 8908TIP3    H148139   1.825   5.660  14.507 -0.5478  0.7065  0.8173
 8908TIP3    H248140   1.706   5.587  14.565 -0.8490  0.4250 -0.1349
 8909TIP3   OH248141   1.397   6.079   0.274 -0.0902 -0.5218 -0.0344
 8909TIP3    H148142   1.454   6.084   0.197 -1.3049 -1.9266 -1.0819
 8909TIP3    H248143   1.375   6.170   0.294  1.2120 -0.0651 -0.5939
 8910TIP3   OH248144   3.958   1.116  14.838 -0.0066  0.6904  0.0989
 8910TIP3    H148145   3.983   1.209  14.844  0.3734  0.8067 -2.3185
 8910TIP3    H248146   3.863   1.118  14.827 -0.0534  0.7579  0.4958
 8911TIP3   OH248147   5.831   5.438   2.987 -0.0006 -0.2109 -0.7864
 8911TIP3    H148148   5.918   5.404   3.005 -0.3962 -0.2143  1.3884
 8911TIP3    H248149   5.842   5.533   2.982  0.1218 -0.2082 -0.4566
 8912TIP3   OH248150   4.404   2.684   2.321 -0.8207 -0.1741 -0.4343
 8912TIP3    H148151   4.374   2.770   2.350  0.9168 -0.2121  1.7721
 8912TIP3    H248152   4.337   2.623   2.351 -1.5229  0.2842 -1.0406
 8913TIP3   OH248153   3.961   3.139   4.982  0.4743 -0.0409 -0.0388
 8913TIP3    H148154   3.945   3.096   4.897 -1.2790 -0.6930  0.5715
 8913TIP3    H248155   3.907   3.218   4.978 -1.1773 -1.0349  1.1459
 8914TIP3   OH248156   0.447   0.649  14.626 -0.2437 -0.4643 -0.4268
 8914TIP3    H148157   0.424   0.574  14.572  0.7724 -0.7844 -0.4273
 8914TIP3    H248158   0.486   0.712  14.564 -1.8465  0.4370 -0.5802
 8915TIP3   OH248159   4.811   1.349  10.617  0.0907  0.1294  0.0554
 8915TIP3    H148160   4.884   1.325  10.560 -0.2917 -2.7771  0.6204
 8915TIP3    H248161   4.768   1.422  10.572  2.1008  0.5584 -1.3105
 8916TIP3   OH248162   6.650   2.800   3.196 -0.5790 -1.0493 -0.2673
 8916TIP3    H148163   6.573   2.834   3.151  1.3864  1.3151 -2.1507
 8916TIP3    H248164   6.662   2.860   3.270 -2.3134 -3.3891  2.0729
 8917TIP3   OH248165   1.333   6.780   3.248 -0.3217 -0.3323  0.1304
 8917TIP3    H148166   1.254   6.759   3.299 -1.8180  0.8956 -1.5748
 8917TIP3    H248167   1.403   6.733   3.293 -1.9865 -1.3710  1.7920
 8918TIP3   OH248168   1.197   0.302  16.928  0.0720  0.4346 -0.2176
 8918TIP3    H148169   1.162   0.214  16.944  0.4905  0.5091  1.2369
 8918TIP3    H248170   1.260   0.291  16.858  0.8946 -0.6419  0.6510
 8919TIP3   OH248171   1.736   4.779   1.662  0.1661  0.2128  0.5851
 8919TIP3    H148172   1.814   4.813   1.619 -0.4286  1.3443  0.3459
 8919TIP3    H248173   1.756   4.783   1.755  0.1207  1.2659  0.5639
 8920TIP3   OH248174   3.962   6.020   0.648 -0.1983  0.3268  0.2600
 8920TIP3    H148175   3.975   5.945   0.590  0.8469 -0.2312  1.1879
 8920TIP3    H248176   4.002   6.093   0.601  0.5427 -0.0969  0.2147
 8921TIP3   OH248177   5.245   0.829  15.033 -0.1709 -0.5111 -0.0723
 8921TIP3    H148178   5.196   0.750  15.055 -1.3803  0.2896  0.2143
 8921TIP3    H248179   5.241   0.883  15.112 -0.2088  0.2412 -0.5703
 8922TIP3   OH248180   3.404   2.302   0.076  0.1122 -0.3884  0.0051
 8922TIP3    H148181   3.464   2.248   0.024  0.2827  0.6880 -0.9847
 8922TIP3    H248182   3.357   2.354   0.011  0.1468  0.8273  0.9214
 8923TIP3   OH248183   0.273   3.389   5.743  0.2477  0.2985  0.0402
 8923TIP3    H148184   0.216   3.312   5.751  0.6490  0.0176  0.1996
 8923TIP3    H248185   0.233   3.441   5.673  1.0385 -0.9952 -1.4217
 8924TIP3   OH248186   4.181   1.692   1.866  0.2841  0.1037  0.4536
 8924TIP3    H148187   4.264   1.698   1.913 -0.3566  0.6134  1.5758
 8924TIP3    H248188   4.114   1.707   1.933 -0.7179 -0.1719 -0.4406
 8925TIP3   OH248189   4.893   3.344   2.427  0.6784  0.2801 -0.2311
 8925TIP3    H148190   4.824   3.312   2.486 -0.1568 -2.4168 -2.4510
 8925TIP3    H248191   4.965   3.369   2.485 -0.7638 -0.4827  1.9939
 8926TIP3   OH248192   5.153   3.803  11.413  0.4108  0.0803 -0.2343
 8926TIP3    H148193   5.113   3.782  11.497 -1.6755  0.4640 -1.0665
 8926TIP3    H248194   5.227   3.860  11.435 -0.4531  0.6611  1.3009
 8927TIP3   OH248195   1.869   1.987  14.762 -0.1600  0.1302  0.6613
 8927TIP3    H148196   1.811   2.031  14.700 -0.1981 -1.9604 -0.8987
 8927TIP3    H248197   1.928   2.055  14.793 -0.3485  1.3172 -1.4459
 8928TIP3   OH248198   5.726   0.243   2.283  0.3007  0.1568  0.0295
 8928TIP3    H148199   5.689   0.308   2.224 -1.8351  0.0136  1.1219
 8928TIP3    H248200   5.715   0.160   2.237  2.4173  0.4163 -1.0738
 8929TIP3   OH248201   1.480   4.893   0.622  0.2184 -0.1879 -0.1443
 8929TIP3    H148202   1.548   4.916   0.686  0.1677  0.0921 -0.1882
 8929TIP3    H248203   1.486   4.798   0.613 -1.2105 -0.5369  1.9277
 8930TIP3   OH248204   0.058   3.281   1.733 -0.1770  0.1047 -0.1772
 8930TIP3    H148205   0.000   3.225   1.681 -0.5085  0.1066  0.1875
 8930TIP3    H248206   0.003   3.315   1.803  0.3666 -0.2123  0.4130
 8931TIP3   OH248207   1.571   0.869  13.445  0.3964 -0.1585  0.4161
 8931TIP3    H148208   1.641   0.896  13.387  1.1574  0.4541  1.5725
 8931TIP3    H248209   1.508   0.941  13.442  0.3851 -0.1749  0.2693
 8932TIP3   OH248210   6.650   0.550  16.466 -0.1292  0.5910  0.1331
 8932TIP3    H148211   6.683   0.577  16.381 -0.3955  0.7456  0.0787
 8932TIP3    H248212   6.679   0.619  16.526  0.2995  0.3421  0.2200
 8933TIP3   OH248213   4.921   3.180   5.273  0.3750 -0.1319  0.3738
 8933TIP3    H148214   4.853   3.172   5.206  0.8174  2.2415 -0.4458
 8933TIP3    H248215   4.974   3.101   5.263 -0.4122 -0.5050 -1.1237
 8934TIP3   OH248216   3.437   3.594   3.652 -0.2734 -0.2030  0.2821
 8934TIP3    H148217   3.365   3.599   3.716 -0.8158 -0.1897 -0.3191
 8934TIP3    H248218   3.516   3.605   3.704 -0.7262  0.1214  0.9126
 8935TIP3   OH248219   2.509   3.435   0.948 -0.6898  0.2364 -0.2762
 8935TIP3    H148220   2.476   3.470   1.031  0.4926  1.6242 -0.3556
 8935TIP3    H248221   2.474   3.346   0.944 -0.4629 -0.0031  1.8879
 8936TIP3   OH248222   3.714   1.982   2.295 -0.1337 -0.6303  0.3120
 8936TIP3    H148223   3.776   1.981   2.222 -0.4611  1.2206 -0.0583
 8936TIP3    H248224   3.763   1.948   2.370  0.8351 -0.6675 -0.3300
 8937TIP3   OH248225   4.891   1.820   1.586 -0.5544 -0.5317  0.6335
 8937TIP3    H148226   4.881   1.789   1.676 -2.0716 -0.3512  0.5492
 8937TIP3    H248227   4.972   1.871   1.587 -0.2654 -0.9864  1.7604
 8938TIP3   OH248228   3.018   2.839   4.395 -0.8956 -0.1628 -0.2148
 8938TIP3    H148229   3.032   2.779   4.468 -4.2841 -0.2106  0.5515
 8938TIP3    H248230   3.047   2.924   4.428 -0.7714 -0.4899  0.5376
 8939TIP3   OH248231   5.822   6.114   4.683  0.3392 -0.1211  0.4184
 8939TIP3    H148232   5.744   6.063   4.661  1.5044 -1.8594  0.1242
 8939TIP3    H248233   5.791   6.204   4.690 -1.9721 -0.9282  1.6979
 8940TIP3   OH248234   3.397   4.632   6.586 -0.5546 -0.0617  0.1806
 8940TIP3    H148235   3.419   4.717   6.548 -0.2792 -1.3209 -2.7721
 8940TIP3    H248236   3.481   4.597   6.617  0.3983 -1.3345 -3.3969
 8941TIP3   OH248237   3.213   3.069   5.204  0.0932 -0.0752  0.8732
 8941TIP3    H148238   3.282   3.077   5.269  1.6478 -2.6006 -0.3288
 8941TIP3    H248239   3.259   3.062   5.120 -1.7021 -0.1974 -0.1608
 8942TIP3   OH248240   2.863   6.449  14.686  0.2660 -0.4181 -0.2986
 8942TIP3    H148241   2.851   6.526  14.630  2.5763  0.8236  0.7438
 8942TIP3    H248242   2.932   6.399  14.643  0.3672 -0.7022  0.1901
 8943TIP3   OH248243   3.352   0.610   2.608  0.0190 -0.3903 -0.0224
 8943TIP3    H148244   3.330   0.700   2.583 -0.2463  0.0251  1.6113
 8943TIP3    H248245   3.268   0.564   2.605 -0.0771 -0.2477  0.4743
 8944TIP3   OH248246   2.801   6.413  15.968  0.3693  0.1957 -0.3800
 8944TIP3    H148247   2.835   6.419  15.879 -0.3059  0.3366 -0.6354
 8944TIP3    H248248   2.712   6.448  15.962 -0.1323 -0.9474  0.0937
 8945TIP3   OH248249   4.820   3.523  10.658  0.9182  0.2905  0.4248
 8945TIP3    H148250   4.731   3.556  10.644  0.9548 -0.5656 -2.2131
 8945TIP3    H248251   4.809   3.429  10.671  1.4675  0.1330 -0.2321
 8946TIP3   OH248252   4.483   4.683   1.139 -0.1845  0.7710 -0.2524
 8946TIP3    H148253   4.442   4.682   1.053  1.2851 -1.1146 -1.0104
 8946TIP3    H248254   4.479   4.592   1.169  0.3851  1.1655  1.1463
 8947TIP3   OH248255   4.212   5.942   1.911  0.2392 -0.3494  0.4419
 8947TIP3    H148256   4.305   5.963   1.920  0.7187 -1.7403 -0.8176
 8947TIP3    H248257   4.206   5.896   1.827 -1.5737 -0.4193  0.5646
 8948TIP3   OH248258   3.271   3.922  16.147 -0.5107 -0.1001 -0.0080
 8948TIP3    H148259   3.296   3.936  16.238 -0.3516 -0.8870  0.0704
 8948TIP3    H248260   3.233   3.834  16.146 -0.6729 -0.0252 -0.6719
 8949TIP3   OH248261   0.558   5.403   5.521 -0.1664  0.7718  0.1512
 8949TIP3    H148262   0.624   5.442   5.579  2.0271  0.5479 -2.0289
 8949TIP3    H248263   0.525   5.327   5.569  1.5115  0.6363  1.1515
 8950TIP3   OH248264   5.910   3.876   1.254  0.0195 -0.4308 -0.5844
 8950TIP3    H148265   5.964   3.938   1.302 -2.4788 -0.1754  2.2489
 8950TIP3    H248266   5.927   3.791   1.296  0.9019 -1.0750 -2.1646
 8951TIP3   OH248267   3.496   5.263   0.638  0.0055  0.1302 -0.5427
 8951TIP3    H148268   3.412   5.218   0.649  0.1216  0.1612  0.6395
 8951TIP3    H248269   3.494   5.297   0.549 -1.6587  0.9744 -0.2276
 8952TIP3   OH248270   5.141   2.666   5.279 -0.2491 -0.1120  0.7015
 8952TIP3    H148271   5.179   2.613   5.209  0.0727 -1.0911  1.5887
 8952TIP3    H248272   5.061   2.619   5.304 -1.3122  1.1675 -0.1652
 8953TIP3   OH248273   2.157   6.286   3.049  0.8192 -0.3173  0.0837
 8953TIP3    H148274   2.188   6.264   2.961  0.1290 -1.0026  0.0010
 8953TIP3    H248275   2.064   6.304   3.038  0.8361  0.1103  0.5956
 8954TIP3   OH248276   6.422   3.467   4.711 -0.3366 -0.2325 -0.2490
 8954TIP3    H148277   6.513   3.439   4.719 -0.4900 -0.8869 -0.7176
 8954TIP3    H248278   6.381   3.402   4.653 -0.4677  1.4774 -2.2308
 8955TIP3   OH248279   6.309   5.038  17.213 -0.2282  0.5140  0.0246
 8955TIP3    H148280   6.318   5.069  17.303 -1.4619  1.0957 -0.0433
 8955TIP3    H248281   6.367   5.095  17.162  0.6893  0.0087  0.4577
 8956TIP3   OH248282   0.555   5.266  15.503  0.0538  0.1942  0.8936
 8956TIP3    H148283   0.516   5.353  15.515  0.6217  0.2845  2.2798
 8956TIP3    H248284   0.636   5.269  15.554 -0.4611 -1.5010  1.8907
 8957TIP3   OH248285   4.977   3.319   4.808  0.8619 -0.4215 -0.0194
 8957TIP3    H148286   5.001   3.273   4.889  1.8495  0.3692  0.1559
 8957TIP3    H248287   4.957   3.249   4.746  0.3388 -1.0485  0.8190
 8958TIP3   OH248288   3.743   2.804   4.297 -0.6594 -0.3696 -0.0915
 8958TIP3    H148289   3.676   2.785   4.231  0.1283 -2.2415 -0.4184
 8958TIP3    H248290   3.803   2.863   4.253 -0.4036 -1.2183 -0.9114
 8959TIP3   OH248291   3.188   6.352   4.693 -0.9686 -0.4161  0.2254
 8959TIP3    H148292   3.219   6.303   4.769 -0.0218 -0.5861 -0.2647
 8959TIP3    H248293   3.136   6.423   4.730  0.8429  0.5055  1.1248
 8960TIP3   OH248294   3.818   6.623  15.535  0.0212  0.1215 -0.0647
 8960TIP3    H148295   3.764   6.582  15.467 -2.0397  0.5198  1.2417
 8960TIP3    H248296   3.772   6.705  15.555  0.8232  0.2175  1.4895
 8961TIP3   OH248297   0.080   2.761  13.232 -0.2035 -0.4084  0.3992
 8961TIP3    H148298   0.016   2.723  13.291  0.5144  0.8181  2.0791
 8961TIP3    H248299   0.106   2.690  13.174 -2.3489 -1.1563  0.2952
 8962TIP3   OH248300   3.330   3.995  12.496 -0.0409 -0.2671 -0.6965
 8962TIP3    H148301   3.257   4.056  12.495  0.1161 -0.0774 -0.4443
 8962TIP3    H248302   3.401   4.042  12.539 -0.5287 -1.3150  1.4110
 8963TIP3   OH248303   1.503   0.215  14.862  0.2958  0.0093  0.5959
 8963TIP3    H148304   1.581   0.270  14.870  1.2871 -1.2913  0.2274
 8963TIP3    H248305   1.501   0.190  14.769 -0.4270 -0.1788  0.6555
 8964TIP3   OH248306   1.092   2.983  13.669 -0.2941  0.6652  0.3517
 8964TIP3    H148307   1.121   2.962  13.580  1.4174 -0.3264  1.0838
 8964TIP3    H248308   1.095   3.078  13.673  0.8817  0.6757 -0.2708
 8965TIP3   OH248309   3.066   4.648   3.421  0.1830 -0.0720  0.2639
 8965TIP3    H148310   3.096   4.659   3.512 -0.8048 -1.9706  0.8729
 8965TIP3    H248311   2.973   4.670   3.425  0.3020  0.5826 -0.4710
 8966TIP3   OH248312   3.128   5.728   4.045 -0.1574  0.3051  0.5725
 8966TIP3    H148313   3.158   5.662   4.107  1.6544 -0.9550 -1.4916
 8966TIP3    H248314   3.096   5.800   4.100 -1.3757 -1.8610  2.9149
 8967TIP3   OH248315   2.770   4.071   2.441  0.2673  0.2827  0.3981
 8967TIP3    H148316   2.695   4.012   2.450 -0.2388  0.9241  0.4922
 8967TIP3    H248317   2.757   4.137   2.510  0.1927  1.1683 -0.4419
 8968TIP3   OH248318   2.600   5.052  14.801 -0.1614  0.2735  0.1522
 8968TIP3    H148319   2.533   4.984  14.796  1.6924 -1.7995  1.4340
 8968TIP3    H248320   2.591   5.089  14.889 -0.3477  0.8423 -0.0963
 8969TIP3   OH248321   5.652   3.537  13.206  0.2649 -0.3814 -0.1395
 8969TIP3    H148322   5.680   3.490  13.284 -0.6758 -1.1128 -0.2250
 8969TIP3    H248323   5.733   3.561  13.161  0.7782 -1.1244  0.3785
 8970TIP3   OH248324   2.270   5.185   0.510  0.0333 -0.1420  0.1159
 8970TIP3    H148325   2.200   5.124   0.535  1.5487 -3.1006 -2.1601
 8970TIP3    H248326   2.236   5.230   0.432 -0.7901  1.4943  1.3581
 8971TIP3   OH248327   5.243   2.495   1.217  0.7854  0.6093  0.3508
 8971TIP3    H148328   5.248   2.574   1.162  1.1544 -0.5424 -1.3572
 8971TIP3    H248329   5.183   2.438   1.171  1.4515 -0.5838  0.9231
 8972TIP3   OH248330   5.338   0.492  12.983  0.0828  0.0058  0.2895
 8972TIP3    H148331   5.310   0.480  12.893  0.4834 -0.9746  0.2847
 8972TIP3    H248332   5.349   0.403  13.017  0.7267  0.3620  1.0526
 8973TIP3   OH248333   4.202   4.167  13.203 -0.5010 -0.2210 -0.0073
 8973TIP3    H148334   4.261   4.243  13.198  0.7704 -1.1826 -0.3584
 8973TIP3    H248335   4.260   4.094  13.223 -1.0475 -1.7739 -3.4116
 8974TIP3   OH248336   0.551   2.319  16.234  0.1490  0.5001  0.3307
 8974TIP3    H148337   0.586   2.329  16.145 -0.3608  1.0112  0.1797
 8974TIP3    H248338   0.593   2.240  16.267 -0.5278 -0.3690 -0.7894
 8975TIP3   OH248339   0.967   0.911   3.252 -0.0132 -0.0823 -0.8460
 8975TIP3    H148340   1.027   0.931   3.324 -0.5823  0.1243 -0.4220
 8975TIP3    H248341   1.009   0.841   3.204 -0.5838 -1.7140  0.9067
 8976TIP3   OH248342   1.019   1.258  12.293  0.5672 -0.5771  0.6174
 8976TIP3    H148343   1.060   1.201  12.228  0.0858  2.0231 -2.1656
 8976TIP3    H248344   1.069   1.340  12.288 -3.1997  1.8804 -1.1704
 8977TIP3   OH248345   6.761   1.813  16.031  0.1781 -0.5268  0.0572
 8977TIP3    H148346   6.786   1.853  16.114 -1.5700 -0.6746  0.7030
 8977TIP3    H248347   6.670   1.785  16.045 -0.0383 -0.8494 -1.7964
 8978TIP3   OH248348   1.489   5.700  14.043  0.3425  0.7595  0.1236
 8978TIP3    H148349   1.523   5.740  13.963 -0.7258  0.6226 -0.4154
 8978TIP3    H248350   1.424   5.636  14.013  0.1737  0.4528  1.0861
 8979TIP3   OH248351   1.757   4.395   2.392 -0.7788 -0.6689  0.1282
 8979TIP3    H148352   1.662   4.406   2.391 -0.5484  2.5302  1.7768
 8979TIP3    H248353   1.782   4.393   2.300 -2.4275 -2.2084 -0.3495
 8980TIP3   OH248354   1.036   4.128  13.883  0.7894 -0.2286 -0.5741
 8980TIP3    H148355   0.995   4.051  13.922 -1.6619  0.8914 -0.7675
 8980TIP3    H248356   1.106   4.151  13.945 -1.0634 -0.2541  1.6639
 8981TIP3   OH248357   2.159   1.981  12.529  0.4555 -0.1495  0.1806
 8981TIP3    H148358   2.085   1.934  12.490  1.0514 -0.4331 -0.6185
 8981TIP3    H248359   2.127   2.006  12.616 -0.5083 -0.4469 -0.0718
 8982TIP3   OH248360   2.585   3.315  15.789  0.0321 -0.3570 -0.6967
 8982TIP3    H148361   2.520   3.323  15.860 -0.5002  1.8897 -1.3673
 8982TIP3    H248362   2.650   3.254  15.824 -1.8069 -1.7597  0.4750
 8983TIP3   OH248363   1.969   0.669   2.172 -0.3854  0.0489  0.1006
 8983TIP3    H148364   2.002   0.580   2.179 -0.2199  0.0183 -0.8748
 8983TIP3    H248365   2.046   0.722   2.154 -0.4797  0.3971  0.6996
 8984TIP3   OH248366   0.828   0.255  13.948  0.0876 -0.0630  0.5341
 8984TIP3    H148367   0.791   0.208  14.023  1.5508 -4.6845 -1.2569
 8984TIP3    H248368   0.756   0.308  13.915 -1.5439 -0.3742  3.2956
 8985TIP3   OH248369   1.298   3.001  11.031 -0.0215  0.1007 -0.2721
 8985TIP3    H148370   1.319   2.996  10.938  0.7310  0.0063 -0.1082
 8985TIP3    H248371   1.323   3.089  11.057  0.9411 -0.2680  0.0989
 8986TIP3   OH248372   4.626   5.361  13.445 -0.5434 -0.0633 -0.6240
 8986TIP3    H148373   4.562   5.291  13.452 -0.4376 -0.0129  1.8858
 8986TIP3    H248374   4.708   5.321  13.474 -0.5467  1.1111  1.1469
 8987TIP3   OH248375   4.638   6.504   3.951  0.5513  0.2773  0.3570
 8987TIP3    H148376   4.576   6.462   3.892 -1.0844  1.6127  1.0483
 8987TIP3    H248377   4.708   6.440   3.962  1.2595  0.1407 -3.4481
 8988TIP3   OH248378   1.065   6.056  12.638  0.0836 -0.2971  0.2522
 8988TIP3    H148379   1.053   6.148  12.663 -1.2851  0.2723 -2.1299
 8988TIP3    H248380   1.144   6.056  12.584 -1.2090  0.0491 -1.7822
 8989TIP3   OH248381   1.229   3.155   3.755  0.1615 -0.1495 -0.2561
 8989TIP3    H148382   1.311   3.113   3.729  0.2299 -0.8914  1.0560
 8989TIP3    H248383   1.255   3.221   3.819 -0.1532  0.5387 -0.8206
 8990TIP3   OH248384   3.563   0.709  11.336 -0.9423 -0.2458 -0.5193
 8990TIP3    H148385   3.556   0.649  11.411 -0.8098 -0.9934 -1.0930
 8990TIP3    H248386   3.621   0.779  11.367 -0.9068 -0.5357  0.0839
 8991TIP3   OH248387   5.945   2.388  15.000  0.2278 -0.3283 -0.1897
 8991TIP3    H148388   5.923   2.342  15.080  0.9298  2.0186  1.4647
 8991TIP3    H248389   6.037   2.412  15.010 -0.1623  1.6498 -0.7756
 8992TIP3   OH248390   4.470   4.309   2.075 -0.1716  0.0443 -0.2039
 8992TIP3    H148391   4.426   4.291   1.992  0.7140 -0.8538 -0.4927
 8992TIP3    H248392   4.401   4.307   2.140 -0.5486 -1.5580 -0.6173
 8993TIP3   OH248393   1.781   3.044  12.073 -0.1044  0.0863  0.1697
 8993TIP3    H148394   1.759   2.957  12.039  0.4839  0.2556 -0.6598
 8993TIP3    H248395   1.801   3.029  12.166  1.6917 -0.9713 -0.3431
 8994TIP3   OH248396   1.487   0.905   4.011 -0.3572  0.6282 -0.1870
 8994TIP3    H148397   1.555   0.894   4.077  1.7556  1.4547 -2.1222
 8994TIP3    H248398   1.516   0.852   3.937 -2.2953  0.2969 -0.7807
 8995TIP3   OH248399   3.067   5.113   6.364 -0.3231  0.0369 -0.1453
 8995TIP3    H148400   3.003   5.071   6.307 -0.8335 -0.1150  0.5383
 8995TIP3    H248401   3.016   5.165   6.425 -0.0508 -2.3952  2.3338
 8996TIP3   OH248402   1.449   2.853   4.230  0.1095 -0.2734  0.4553
 8996TIP3    H148403   1.524   2.897   4.189  0.5440  0.5916  2.1118
 8996TIP3    H248404   1.390   2.924   4.253 -0.1006 -0.7305  1.3569
 8997TIP3   OH248405   5.641   1.251  15.862  0.1118  0.3064 -0.5624
 8997TIP3    H148406   5.581   1.283  15.930 -3.4055 -1.6324 -2.4530
 8997TIP3    H248407   5.670   1.329  15.816 -2.1827  1.2986 -0.4504
 8998TIP3   OH248408   6.494   4.375  14.351  0.5048  0.4407 -0.5814
 8998TIP3    H148409   6.480   4.314  14.423  1.8503  1.1606  0.3298
 8998TIP3    H248410   6.417   4.432  14.353 -0.4159 -0.7405 -0.9972
 8999TIP3   OH248411   3.954   2.121  13.742  0.3388  0.1431 -0.4014
 8999TIP3    H148412   4.017   2.176  13.694 -1.0818 -0.1635 -2.7917
 8999TIP3    H248413   3.995   2.035  13.744  2.1015  0.9082  2.4334
 9000TIP3   OH248414   2.655   5.214   3.960 -0.0335  0.1429 -0.2693
 9000TIP3    H148415   2.749   5.226   3.942  0.3851  0.1227  1.6601
 9000TIP3    H248416   2.639   5.122   3.941  0.0813  0.3736 -1.5765
 9001TIP3   OH248417   6.275   5.800  10.524 -0.0777 -0.0565  0.6730
 9001TIP3    H148418   6.344   5.865  10.537  0.7225 -0.6228 -0.5971
 9001TIP3    H248419   6.317   5.717  10.547  0.3973 -0.6852 -2.1467
 9002TIP3   OH248420   4.709   2.316   4.854  0.0467 -0.5011  0.1055
 9002TIP3    H148421   4.794   2.286   4.888  0.6946  1.1360  0.0155
 9002TIP3    H248422   4.688   2.255   4.783  2.2363  0.3315 -1.3424
 9003TIP3   OH248423   0.232   6.058  14.942  0.5453  0.2002 -0.3781
 9003TIP3    H148424   0.200   5.968  14.950  0.3541  0.3558  0.8539
 9003TIP3    H248425   0.316   6.058  14.988  0.3497  0.7368 -0.0065
 9004TIP3   OH248426   5.324   1.858  10.615  0.1408  0.2470  0.0416
 9004TIP3    H148427   5.240   1.811  10.616  0.2868 -0.0161  0.8369
 9004TIP3    H248428   5.326   1.904  10.699  1.1091 -0.3152  0.3424
 9005TIP3   OH248429   3.828   3.571  11.492  0.0640 -0.2006 -0.0300
 9005TIP3    H148430   3.870   3.618  11.420  0.8251  0.8284  1.0366
 9005TIP3    H248431   3.839   3.629  11.568 -2.5078 -0.3053  0.5162
 9006TIP3   OH248432   3.185   1.866   0.070 -0.2186  0.3118 -0.4481
 9006TIP3    H148433   3.172   1.898   0.159  0.5383 -0.7002  0.0457
 9006TIP3    H248434   3.134   1.926   0.015 -0.6607  0.9714  0.6543
 9007TIP3   OH248435   2.281   1.633   2.215  0.2688  0.1168  0.0669
 9007TIP3    H148436   2.348   1.692   2.250 -1.5827  1.5697  1.4316
 9007TIP3    H248437   2.236   1.686   2.148 -1.2385  0.2312  1.1117
 9008TIP3   OH248438   4.078   6.268   0.569 -0.1742  0.0550 -0.0303
 9008TIP3    H148439   4.171   6.254   0.587  0.4672 -0.2111 -3.0406
 9008TIP3    H248440   4.076   6.341   0.507 -2.0072  0.2102  0.1639
 9009TIP3   OH248441   6.697   0.866  15.016 -0.0923 -0.7986  0.2933
 9009TIP3    H148442   6.689   0.944  14.960 -0.5844 -0.3294  0.9920
 9009TIP3    H248443   6.724   0.796  14.956 -1.6048 -0.5558 -0.7392
 9010TIP3   OH248444   0.700   2.932  16.569 -0.3276 -1.1454 -0.6921
 9010TIP3    H148445   0.739   2.992  16.506 -0.7556  1.1798  1.1383
 9010TIP3    H248446   0.764   2.860  16.576  1.6927  0.5468 -0.7894
 9011TIP3   OH248447   5.470   4.469  12.094 -0.1960  0.1781 -0.0646
 9011TIP3    H148448   5.480   4.401  12.028  0.7593 -0.8578  1.0935
 9011TIP3    H248449   5.433   4.543  12.047  0.5677 -0.4783 -1.7725
 9012TIP3   OH248450   2.149   5.152  17.166 -0.1552 -0.3118  0.0713
 9012TIP3    H148451   2.207   5.122  17.096  1.0200 -1.2578  1.3833
 9012TIP3    H248452   2.134   5.245  17.147  0.3352 -0.4917 -1.2758
 9013TIP3   OH248453   1.868   4.185   4.046 -0.0990  0.1678 -0.3090
 9013TIP3    H148454   1.772   4.191   4.045 -0.0602  1.0755 -0.0013
 9013TIP3    H248455   1.888   4.131   4.122 -0.3217  1.9857  1.1294
 9014TIP3   OH248456   2.794   2.685  13.874  0.2533  0.3669 -0.3567
 9014TIP3    H148457   2.705   2.667  13.842  0.4362  0.6880 -1.0644
 9014TIP3    H248458   2.781   2.732  13.956 -0.2399 -1.9698  1.0167
 9015TIP3   OH248459   0.625   0.592   1.257  0.4593 -0.5308 -0.3985
 9015TIP3    H148460   0.530   0.600   1.247  0.0486 -0.8252  2.4569
 9015TIP3    H248461   0.641   0.498   1.249  0.6832 -0.3922 -1.8110
 9016TIP3   OH248462   1.923   5.643  13.098 -0.0749  0.3312  0.2911
 9016TIP3    H148463   1.917   5.548  13.087  2.0129  0.0540  1.0385
 9016TIP3    H248464   1.946   5.676  13.010  1.2806 -0.1244  0.4533
 9017TIP3   OH248465   1.677   2.146   4.791 -0.0170 -0.1503  0.4613
 9017TIP3    H148466   1.754   2.189   4.828 -0.0294 -0.5155  0.9061
 9017TIP3    H248467   1.666   2.188   4.705 -0.3665  1.1390  1.1149
 9018TIP3   OH248468   2.694   5.020   1.798  0.4138  0.7657 -0.0913
 9018TIP3    H148469   2.675   5.092   1.738  0.0930  0.5433 -0.2582
 9018TIP3    H248470   2.685   5.059   1.885 -1.1543  0.6005 -0.1497
 9019TIP3   OH248471   1.053   3.727   0.155 -0.5382  0.1785  0.0696
 9019TIP3    H148472   1.149   3.727   0.152 -0.5517  0.2487 -0.6580
 9019TIP3    H248473   1.026   3.714   0.063 -1.2372 -2.0342  0.5241
 9020TIP3   OH248474   3.873   1.387   4.082  0.1973  0.1150 -0.0066
 9020TIP3    H148475   3.782   1.360   4.096  0.0289  0.2008 -0.9101
 9020TIP3    H248476   3.908   1.399   4.171 -1.1530  1.7484  0.3604
 9021TIP3   OH248477   6.125   1.318  15.348 -0.0369 -0.2601  0.0931
 9021TIP3    H148478   6.199   1.311  15.409 -0.6364 -2.9121  0.6135
 9021TIP3    H248479   6.051   1.282  15.396 -2.4049  4.3783  0.4623
 9022TIP3   OH248480   2.242   0.057   0.201  0.8156  0.0905 -0.6616
 9022TIP3    H148481   2.203   0.077   0.286 -1.7380 -1.4028 -1.3797
 9022TIP3    H248482   2.295  -0.022   0.217  2.4514  1.2604 -0.0007
 9023TIP3   OH248483   0.057   4.231  12.117 -0.3980 -0.1805  0.8756
 9023TIP3    H148484   0.077   4.286  12.193 -0.8832  1.2002  0.0301
 9023TIP3    H248485  -0.018   4.274  12.076 -0.6362 -1.3558  0.0548
 9024TIP3   OH248486   5.730   5.541   5.302 -0.5234  0.0916  0.6192
 9024TIP3    H148487   5.696   5.615   5.351  0.8874  0.7209  0.7193
 9024TIP3    H248488   5.823   5.563   5.288 -0.7466 -0.2529 -1.9184
 9025TIP3   OH248489   4.323   5.586  17.144 -0.3671  0.4271  0.1453
 9025TIP3    H148490   4.412   5.556  17.163 -0.3280  0.0480 -0.5938
 9025TIP3    H248491   4.299   5.541  17.062 -0.2442  2.5552 -1.1119
 9026TIP3   OH248492   1.211   0.317  15.228  0.0549 -0.0593  0.1706
 9026TIP3    H148493   1.187   0.259  15.301  1.3565 -1.1621 -0.2478
 9026TIP3    H248494   1.156   0.287  15.155  1.5899 -1.6514 -0.3941
 9027TIP3   OH248495   4.196   6.311   1.170 -0.0275 -0.1090 -0.4462
 9027TIP3    H148496   4.196   6.406   1.156 -0.0868 -0.0821 -0.2623
 9027TIP3    H248497   4.215   6.274   1.083  3.0399  0.1552 -0.0156
 9028TIP3   OH248498   4.927   2.516   1.250 -0.6715  0.2295 -0.3698
 9028TIP3    H148499   4.841   2.552   1.230 -0.1519  0.5164 -2.2888
 9028TIP3    H248500   4.967   2.501   1.164  0.3284 -2.0370  0.4210
 9029TIP3   OH248501   0.666   6.588   4.101  0.1052  0.1469 -0.2404
 9029TIP3    H148502   0.636   6.601   4.191 -0.7717  1.2895 -0.6793
 9029TIP3    H248503   0.606   6.523   4.064  0.5701 -0.4528  0.0233
 9030TIP3   OH248504   1.192   2.799  11.156  0.1365  0.2570  0.1943
 9030TIP3    H148505   1.153   2.837  11.235  1.4962 -0.6026  1.3256
 9030TIP3    H248506   1.210   2.875  11.100  0.7529  1.0825  1.4508
 9031TIP3   OH248507   3.559   4.333  14.078  0.7328  0.7313 -0.4329
 9031TIP3    H148508   3.513   4.268  14.131  1.8333  0.7772  0.6281
 9031TIP3    H248509   3.510   4.336  13.996  1.6051 -2.7540 -1.2661
 9032TIP3   OH248510   5.818   5.238  10.942  0.5540  0.1814 -0.2014
 9032TIP3    H148511   5.801   5.258  11.034  3.4977 -0.5758  0.6087
 9032TIP3    H248512   5.775   5.309  10.894  0.2633  1.4654  1.8380
 9033TIP3   OH248513   4.835   1.073  16.141  0.0903  0.3725  0.2019
 9033TIP3    H148514   4.845   1.038  16.052  1.6896  1.8087 -0.2459
 9033TIP3    H248515   4.825   0.995  16.196 -0.5364 -0.5682 -1.1815
 9034TIP3   OH248516   5.998   4.688  11.176  0.5096 -0.2314 -0.3245
 9034TIP3    H148517   6.080   4.688  11.127  1.3985 -1.0495  1.0923
 9034TIP3    H248518   5.988   4.779  11.205 -0.0937  0.2950 -2.0546
 9035TIP3   OH248519   5.677   3.345   0.976  0.2645  0.1711  0.0706
 9035TIP3    H148520   5.772   3.342   0.963 -0.0030 -0.5523 -1.9954
 9035TIP3    H248521   5.652   3.432   0.944  0.1197  0.0560 -0.1237
 9036TIP3   OH248522   1.531   3.267  15.783  0.4829 -0.0161 -0.0387
 9036TIP3    H148523   1.473   3.334  15.746  0.3939  0.3779  0.8079
 9036TIP3    H248524   1.477   3.187  15.783 -0.2624  0.4547  1.2137
 9037TIP3   OH248525   4.542   1.461  10.729 -0.0315  0.7154 -0.1763
 9037TIP3    H148526   4.603   1.535  10.730  0.5243  0.2601  0.1153
 9037TIP3    H248527   4.572   1.404  10.800 -0.0755 -0.0865 -0.7828
 9038TIP3   OH248528   6.339   2.474  16.581  0.0035 -0.1456  0.4489
 9038TIP3    H148529   6.312   2.556  16.623  0.0328 -0.4842  1.1413
 9038TIP3    H248530   6.262   2.445  16.533  0.6696  1.4801 -1.7809
 9039TIP3   OH248531   2.070   1.702  14.872 -0.6001  0.3884  0.0266
 9039TIP3    H148532   2.014   1.690  14.949  1.9965 -0.5463  1.9242
 9039TIP3    H248533   2.014   1.680  14.798 -2.9981  0.4982  1.7002
 9040TIP3   OH248534   0.349   3.007   1.080 -0.3407  0.2284 -0.0542
 9040TIP3    H148535   0.368   3.080   1.021  1.7686 -0.9984 -1.0163
 9040TIP3    H248536   0.285   2.953   1.032 -1.1146  0.8896  0.2165
 9041TIP3   OH248537   3.354   3.880  13.514  0.0501  0.6489 -0.5087
 9041TIP3    H148538   3.323   3.970  13.522 -1.8836  0.0502 -0.5413
 9041TIP3    H248539   3.379   3.872  13.422  2.0617  1.6367 -0.1008
 9042TIP3   OH248540   2.766   0.095   6.067 -0.0894  0.1076 -0.0176
 9042TIP3    H148541   2.723   0.012   6.090  1.4516 -0.2089  1.9749
 9042TIP3    H248542   2.702   0.162   6.089 -0.1857 -0.4303  1.4912
 9043TIP3   OH248543   6.176   0.745  11.478  0.1502  0.4775  0.2169
 9043TIP3    H148544   6.100   0.750  11.536 -0.0352  0.8338 -0.0481
 9043TIP3    H248545   6.140   0.719  11.393  0.3970  0.1268  0.2172
 9044TIP3   OH248546   0.312   6.440  14.615 -0.0096  0.3676  0.1559
 9044TIP3    H148547   0.335   6.395  14.697 -0.8601  0.0987  0.2668
 9044TIP3    H248548   0.321   6.373  14.548 -0.0184  0.3901  0.1328
 9045TIP3   OH248549   2.690   0.430  14.701  0.1487 -0.4743  0.1945
 9045TIP3    H148550   2.706   0.524  14.703  0.3084 -0.4536 -1.3437
 9045TIP3    H248551   2.777   0.390  14.705  0.1534 -0.5286 -0.4310
 9046TIP3   OH248552   3.912   0.992   1.646 -0.2505 -0.2382  0.0394
 9046TIP3    H148553   3.922   0.993   1.741 -0.3073  1.6107  0.0458
 9046TIP3    H248554   3.827   0.951   1.631  0.3572 -1.8510  0.6794
 9047TIP3   OH248555   1.619   3.920  16.633 -0.5900  0.0420 -0.4018
 9047TIP3    H148556   1.620   3.843  16.575  0.1967 -0.2136 -0.0597
 9047TIP3    H248557   1.693   3.973  16.603  0.1072 -0.3126  0.6515
 9048TIP3   OH248558   5.357   6.475  16.371  0.4514  0.4275 -0.1541
 9048TIP3    H148559   5.274   6.463  16.417 -0.0327 -0.0470 -1.1116
 9048TIP3    H248560   5.379   6.567  16.383 -1.2782  1.0855 -1.5921
 9049TIP3   OH248561   0.864   0.281   1.014  0.2049  0.0643  0.5398
 9049TIP3    H148562   0.825   0.291   0.928 -2.0147  2.2353  1.6725
 9049TIP3    H248563   0.915   0.361   1.026 -1.2871  0.8496  2.0240
 9050TIP3   OH248564   5.138   2.899   1.349  0.3594  0.4845 -0.1074
 9050TIP3    H148565   5.108   2.842   1.419  0.8172  1.3047  0.7725
 9050TIP3    H248566   5.233   2.889   1.347  0.6180  2.2707  1.0448
 9051TIP3   OH248567   3.555   6.752  12.513 -0.2106 -0.0359  0.3194
 9051TIP3    H148568   3.624   6.703  12.468  0.1709 -0.3754  1.2520
 9051TIP3    H248569   3.507   6.796  12.443  0.5453 -0.3243 -0.3929
 9052TIP3   OH248570   0.393   4.584   1.021  0.4553 -0.3205 -0.0527
 9052TIP3    H148571   0.463   4.616   0.964 -0.4736  0.4806 -0.7880
 9052TIP3    H248572   0.322   4.560   0.961  0.3605 -1.8327  0.6274
 9053TIP3   OH248573   5.382   3.984  15.714  0.1262  0.5794 -0.6581
 9053TIP3    H148574   5.431   3.956  15.791  0.6402 -1.5522 -1.6766
 9053TIP3    H248575   5.447   3.987  15.643 -0.7133  0.3443 -1.4646
 9054TIP3   OH248576   3.243   3.074   2.482 -0.9863  0.2200  0.2569
 9054TIP3    H148577   3.256   3.157   2.529  0.3203 -0.7575  1.7114
 9054TIP3    H248578   3.149   3.058   2.487 -1.2706  1.6031 -0.0684
 9055TIP3   OH248579   3.101   3.090   3.529  0.1190 -0.0142 -0.5347
 9055TIP3    H148580   3.108   3.181   3.557 -2.1340 -0.5644  2.4216
 9055TIP3    H248581   3.186   3.051   3.550  0.4385  0.9704  0.0539
 9056TIP3   OH248582   5.619   3.648  15.379 -0.0229  0.1096  0.3516
 9056TIP3    H148583   5.705   3.662  15.419 -0.7563 -1.3004  2.5833
 9056TIP3    H248584   5.572   3.594  15.442 -2.0377 -0.4309 -1.5158
 9057TIP3   OH248585   2.011   1.033  16.570  0.4670  0.5517 -0.6440
 9057TIP3    H148586   1.956   1.007  16.644  0.2136 -0.7284 -1.2632
 9057TIP3    H248587   1.997   1.128  16.564 -2.6403  0.1668 -1.4956
 9058TIP3   OH248588   3.438   1.124   2.828  0.3965  0.4752 -0.4634
 9058TIP3    H148589   3.353   1.111   2.784  0.1500  0.3752  0.0409
 9058TIP3    H248590   3.425   1.199   2.885  0.3790 -0.0779  0.2788
 9059TIP3   OH248591   1.421   5.993   4.332 -0.1105  0.2422 -0.3471
 9059TIP3    H148592   1.488   6.036   4.279 -0.8926 -0.5685 -2.0737
 9059TIP3    H248593   1.343   6.047   4.319 -0.5506 -0.5002 -0.8054
 9060TIP3   OH248594   2.611   2.119  12.747 -0.5062  0.6500  0.4364
 9060TIP3    H148595   2.583   2.196  12.797  0.4699  2.4915 -1.6537
 9060TIP3    H248596   2.565   2.128  12.663  1.8899  0.6227 -0.9515
 9061TIP3   OH248597   4.162   2.497   1.495  0.0283 -0.5876  0.3941
 9061TIP3    H148598   4.118   2.529   1.574 -1.3587 -2.8207  0.6473
 9061TIP3    H248599   4.251   2.476   1.524 -0.0887 -0.2049  1.0616
 9062TIP3   OH248600   5.970   3.604   2.392  0.1326 -0.1878 -0.4295
 9062TIP3    H148601   6.035   3.625   2.459  0.4410  2.1202 -1.3610
 9062TIP3    H248602   6.022   3.577   2.316 -0.1547 -1.2376 -0.2698
 9063TIP3   OH248603   5.333   3.277   5.464 -0.0159  0.1971 -0.0865
 9063TIP3    H148604   5.363   3.320   5.544 -1.4321  2.0664 -0.4910
 9063TIP3    H248605   5.244   3.248   5.484  0.3210 -1.0898 -0.3818
 9064TIP3   OH248606   2.026   2.292  12.232  0.2999 -0.2727  0.7612
 9064TIP3    H148607   1.933   2.308  12.213  0.3948  0.5624  0.9587
 9064TIP3    H248608   2.067   2.283  12.146 -0.1115 -1.5491  0.6919
 9065TIP3   OH248609   4.407   4.557  16.109  0.7280 -0.3737  0.0975
 9065TIP3    H148610   4.474   4.519  16.052  1.2486  0.8746 -0.1680
 9065TIP3    H248611   4.411   4.651  16.090 -0.8938 -0.2363  0.3055
 9066TIP3   OH248612   3.190   4.566  11.565 -0.2362  0.4165 -0.5039
 9066TIP3    H148613   3.261   4.628  11.583  0.5461 -1.0924  2.3017
 9066TIP3    H248614   3.228   4.481  11.585 -2.0246 -0.7306 -1.7576
 9067TIP3   OH248615   1.734   0.452  14.921  0.2510  0.0345  0.1362
 9067TIP3    H148616   1.819   0.494  14.931  1.2172 -1.8556  0.2043
 9067TIP3    H248617   1.752   0.358  14.923 -1.9810 -0.4559  1.4672
 9068TIP3   OH248618   0.799   4.553  11.904  0.5949  0.1146 -0.2453
 9068TIP3    H148619   0.814   4.504  11.985 -0.0188  3.0275  1.7828
 9068TIP3    H248620   0.867   4.620  11.903 -1.4930  2.3643 -0.1803
 9069TIP3   OH248621   0.312   0.987   5.989  1.0409 -0.8474 -0.2853
 9069TIP3    H148622   0.220   0.960   5.995  1.8466 -3.5926  1.6114
 9069TIP3    H248623   0.339   0.961   5.901  0.0592 -0.0670 -0.8387
 9070TIP3   OH248624   0.946   6.492   6.208 -0.5378 -0.1892 -0.4481
 9070TIP3    H148625   0.963   6.398   6.208  0.1371 -0.0702 -0.0786
 9070TIP3    H248626   0.859   6.500   6.247 -0.6473 -0.6638 -0.5842
 9071TIP3   OH248627   3.731   1.339   0.094 -1.0950 -0.4536 -0.4853
 9071TIP3    H148628   3.765   1.315   0.008 -0.5452  0.4522 -0.5272
 9071TIP3    H248629   3.697   1.428   0.084 -0.5839 -0.1519  0.3454
 9072TIP3   OH248630   4.093   1.121   2.182 -0.3382  0.0071  0.4983
 9072TIP3    H148631   4.001   1.136   2.206 -0.6988 -1.4036  0.1500
 9072TIP3    H248632   4.119   1.200   2.136 -1.7257  0.0426 -0.3118
 9073TIP3   OH248633   4.781   0.135   5.218 -0.0902  0.5709 -0.6880
 9073TIP3    H148634   4.738   0.171   5.140  0.3535  0.9362 -0.7682
 9073TIP3    H248635   4.772   0.203   5.284 -0.2745  0.3472 -0.4795
 9074TIP3   OH248636   5.557   2.387  14.983  0.2866 -0.3387  0.4091
 9074TIP3    H148637   5.560   2.362  14.891 -0.5940  1.3260 -0.1104
 9074TIP3    H248638   5.469   2.422  14.995 -0.0761 -1.7377  2.2422
 9075TIP3   OH248639   6.393   5.361  16.731  0.2904  0.2440  0.2936
 9075TIP3    H148640   6.432   5.303  16.665 -1.1369  0.3658 -0.6994
 9075TIP3    H248641   6.459   5.429  16.745  1.1960 -0.5505  0.0507
 9076TIP3   OH248642   3.750   0.775  13.492  0.3294  0.5333 -0.1651
 9076TIP3    H148643   3.667   0.791  13.538  0.3324  0.4683 -0.1372
 9076TIP3    H248644   3.755   0.845  13.427  0.0896  0.3413 -0.3908
 9077TIP3   OH248645   3.347   2.454  10.855  0.2195 -0.0539  0.4072
 9077TIP3    H148646   3.395   2.407  10.923 -2.0636 -1.3790  1.2208
 9077TIP3    H248647   3.346   2.545  10.884  0.3346 -0.3941  1.4936
 9078TIP3   OH248648   1.971   2.137  11.807 -0.1963 -0.0958  0.1243
 9078TIP3    H148649   1.888   2.138  11.854  0.1936  0.5052  0.8299
 9078TIP3    H248650   1.953   2.182  11.725 -0.5159  0.2349  0.3746
 9079TIP3   OH248651   3.743   6.261   1.439 -0.5653  0.0307  0.2061
 9079TIP3    H148652   3.833   6.277   1.413 -0.5702 -1.4132 -0.8282
 9079TIP3    H248653   3.696   6.340   1.415 -0.1201 -0.3482 -2.0936
 9080TIP3   OH248654   4.987   5.923  14.280 -0.8771 -0.3811  0.1609
 9080TIP3    H148655   4.995   5.829  14.266  3.2661 -0.2256  0.3648
 9080TIP3    H248656   4.982   5.933  14.375 -0.8889 -0.3787  0.1606
 9081TIP3   OH248657   0.832   1.198  12.485 -0.0382  0.8984  0.3420
 9081TIP3    H148658   0.886   1.169  12.558  1.1129 -0.5689 -1.0248
 9081TIP3    H248659   0.894   1.220  12.416 -1.1009 -1.2580 -1.4332
 9082TIP3   OH248660   1.807   5.221   0.573  0.3695  0.7602  0.1888
 9082TIP3    H148661   1.783   5.136   0.536 -0.0477  1.3801 -1.0162
 9082TIP3    H248662   1.894   5.239   0.537  0.5272  0.7734  0.5724
 9083TIP3   OH248663   0.646   0.169  14.784  0.1629 -0.0398 -0.2009
 9083TIP3    H148664   0.681   0.227  14.716 -2.4445 -0.1069 -1.7587
 9083TIP3    H248665   0.620   0.228  14.855 -0.0900  0.4330 -0.6772
 9084TIP3   OH248666   5.895   4.337   6.292 -0.3327  0.6392  0.5790
 9084TIP3    H148667   5.847   4.263   6.329 -1.2781  0.4117 -1.0056
 9084TIP3    H248668   5.970   4.348   6.349  1.2422 -3.1587 -0.4778
 9085TIP3   OH248669   0.494   6.642  11.978 -0.0230 -0.2282  0.4516
 9085TIP3    H148670   0.447   6.561  11.960 -0.7716  0.2848 -0.0053
 9085TIP3    H248671   0.545   6.625  12.057 -0.2956 -1.0872  0.4440
 9086TIP3   OH248672   2.929   6.052  15.973  0.0189 -0.0244 -0.3603
 9086TIP3    H148673   2.987   6.111  16.022 -0.5529  0.0262  0.2693
 9086TIP3    H248674   2.988   5.990  15.931  0.4787 -1.2231  1.8938
 9087TIP3   OH248675   3.851   3.921  12.852  0.1120 -0.9445 -0.1810
 9087TIP3    H148676   3.764   3.885  12.867 -0.4330  0.0931 -0.7370
 9087TIP3    H248677   3.882   3.947  12.939 -0.1354 -1.2945  0.0120
 9088TIP3   OH248678   2.148   0.356   3.751 -0.1686 -0.0299 -0.0759
 9088TIP3    H148679   2.138   0.437   3.700  1.6879  0.9346  0.9857
 9088TIP3    H248680   2.078   0.299   3.719 -0.8568  1.5841 -1.6356
 9089TIP3   OH248681   2.030   5.907   5.553 -0.5602 -0.1320 -0.0217
 9089TIP3    H148682   2.067   5.995   5.561 -0.8023 -0.0524  0.2349
 9089TIP3    H248683   2.061   5.861   5.630  0.4788 -0.6141 -0.7128
 9090TIP3   OH248684   3.283   3.453  11.841  0.7434  0.2282 -0.7532
 9090TIP3    H148685   3.366   3.418  11.874  0.9811  1.3791 -0.0843
 9090TIP3    H248686   3.269   3.533  11.892  0.9635  1.9323 -3.1822
 9091TIP3   OH248687   0.950   4.784  11.953 -0.3595 -0.6318 -0.1654
 9091TIP3    H148688   1.037   4.778  11.992 -0.5327 -1.2972  0.1264
 9091TIP3    H248689   0.896   4.825  12.021  0.0295  1.1479 -0.8685
 9092TIP3   OH248690   5.228   6.549  13.132 -0.2547  0.4908 -0.3476
 9092TIP3    H148691   5.291   6.494  13.179 -0.9969 -0.5671 -0.5380
 9092TIP3    H248692   5.165   6.575  13.199  0.4484  1.6773 -0.1256
 9093TIP3   OH248693   2.785   2.841  14.509 -0.8213 -0.1409 -0.4065
 9093TIP3    H148694   2.743   2.845  14.596 -1.3925  0.3196 -0.6949
 9093TIP3    H248695   2.783   2.749  14.485  0.7009 -0.5075  0.7175
 9094TIP3   OH248696   6.548   3.367   0.032 -0.9413 -0.0001 -0.4391
 9094TIP3    H148697   6.484   3.389  -0.036 -0.9892  1.9195  0.1452
 9094TIP3    H248698   6.632   3.375  -0.012 -0.9717  1.2229 -0.3209
 9095TIP3   OH248699   3.323   6.524  16.547  0.5087 -0.7189 -0.1023
 9095TIP3    H148700   3.243   6.477  16.528 -1.3848  1.4815  1.7577
 9095TIP3    H248701   3.330   6.589  16.477 -0.5889  0.4642  0.8306
 9096TIP3   OH248702   6.431   5.226  13.429 -0.1603  0.7104  0.1074
 9096TIP3    H148703   6.388   5.302  13.468  0.1906  1.8585 -1.6732
 9096TIP3    H248704   6.475   5.260  13.352 -0.0089 -1.3178 -0.7524
 9097TIP3   OH248705   3.307   2.143  16.497  0.1784  0.6956 -0.3826
 9097TIP3    H148706   3.307   2.238  16.486  1.2268  0.5456 -1.9555
 9097TIP3    H248707   3.262   2.110  16.419  1.6235 -0.1749 -0.8673
 9098TIP3   OH248708   1.350   1.907  12.882  0.1491  0.2714  0.3704
 9098TIP3    H148709   1.335   1.999  12.857 -2.6505 -0.7359 -2.3325
 9098TIP3    H248710   1.266   1.878  12.917  0.1784 -1.8341 -1.0829
 9099TIP3   OH248711   0.350   4.303   1.048 -0.0366  0.2029 -0.0932
 9099TIP3    H148712   0.302   4.366   0.996 -0.4909  0.5658  0.7390
 9099TIP3    H248713   0.432   4.347   1.071  0.0024  0.1840 -0.1988
 9100TIP3   OH248714   3.384   3.586   0.119  0.4062  0.0934  0.6049
 9100TIP3    H148715   3.448   3.649   0.153  0.1250 -0.0904  1.5035
 9100TIP3    H248716   3.338   3.634   0.050  0.3248  0.8171  1.1483
 9101TIP3   OH248717   4.009   4.967  13.612 -0.2343 -0.2477 -0.7172
 9101TIP3    H148718   4.089   4.948  13.661  0.3257  0.6165 -1.2573
 9101TIP3    H248719   4.024   5.054  13.574 -2.2491  0.8638  0.8375
 9102TIP3   OH248720   5.591   5.498  11.329  0.0868 -0.3068 -0.4714
 9102TIP3    H148721   5.636   5.578  11.358  0.4146 -0.5595 -0.2774
 9102TIP3    H248722   5.500   5.512  11.353 -0.9136  2.1079 -4.7174
 9103TIP3   OH248723   6.649   4.299   4.002  0.2121 -0.5733  0.3918
 9103TIP3    H148724   6.643   4.370   3.938 -1.3430 -1.3327 -0.3763
 9103TIP3    H248725   6.738   4.266   3.994  0.4044  0.1333 -0.5087
 9104TIP3   OH248726   1.260   0.628  16.427  0.9451  0.2224  0.1144
 9104TIP3    H148727   1.355   0.625  16.425  0.9543 -0.0998  0.7568
 9104TIP3    H248728   1.238   0.719  16.407  1.4018  0.4055  0.4461
 9105TIP3   OH248729   1.061   6.166   2.064  0.6049  0.7168 -0.1238
 9105TIP3    H148730   0.979   6.148   2.019  1.4688  0.8116 -1.7856
 9105TIP3    H248731   1.036   6.222   2.138 -1.0007 -0.4893  0.3085
 9106TIP3   OH248732   1.151   5.051  15.173 -0.3175  0.0500  0.2887
 9106TIP3    H148733   1.068   5.053  15.126  0.7124 -0.4688 -1.6534
 9106TIP3    H248734   1.204   4.986  15.127  0.6731 -0.7640  2.4037
 9107TIP3   OH248735   6.483   0.322   4.556  0.3237  0.1848  0.0698
 9107TIP3    H148736   6.457   0.401   4.508  0.8978  0.3185 -0.0253
 9107TIP3    H248737   6.474   0.346   4.649  0.6335  0.4098  0.0423
 9108TIP3   OH248738   5.871   0.801  12.723  0.1646 -0.2103  0.3695
 9108TIP3    H148739   5.903   0.811  12.812 -1.9448  0.3561  1.1233
 9108TIP3    H248740   5.859   0.890  12.691 -1.5081 -0.3437  0.5062
 9109TIP3   OH248741   4.292   1.966  14.084  0.6203 -0.6100 -0.6159
 9109TIP3    H148742   4.344   2.013  14.150  0.0757  2.5586 -2.2889
 9109TIP3    H248743   4.206   1.954  14.125  1.0459 -1.0607  0.1771
 9110TIP3   OH248744   1.836   1.097  15.790 -0.3329 -0.0358  0.0270
 9110TIP3    H148745   1.761   1.046  15.823  0.5520 -1.0331  0.5697
 9110TIP3    H248746   1.888   1.033  15.742  0.1151  0.6830 -0.4535
 9111TIP3   OH248747   0.011   4.540  11.856 -0.0262 -0.2596  0.2986
 9111TIP3    H148748   0.055   4.464  11.819  0.4721  0.7579 -1.2451
 9111TIP3    H248749  -0.038   4.578  11.783  1.6603  2.2912  0.3822
 9112TIP3   OH248750   2.899   3.140   4.867 -0.0319 -0.0963 -0.3735
 9112TIP3    H148751   2.970   3.075   4.866  0.6719  0.6622 -1.4543
 9112TIP3    H248752   2.857   3.127   4.952  2.0348  0.1003  0.7404
 9113TIP3   OH248753   0.940   3.304  11.510  0.5417  0.1752  0.5505
 9113TIP3    H148754   0.862   3.335  11.463  0.7859 -0.0901 -0.0339
 9113TIP3    H248755   0.958   3.373  11.574  1.4440  1.5723 -1.1241
 9114TIP3   OH248756   0.074   3.388  16.184  0.2484 -0.0508  0.2882
 9114TIP3    H148757   0.147   3.397  16.122 -0.9824  0.2876 -1.1574
 9114TIP3    H248758   0.012   3.456  16.158 -0.5882 -0.3143  1.5136
 9115TIP3   OH248759   6.474   5.396  15.284 -0.1728  0.5699  0.5023
 9115TIP3    H148760   6.449   5.484  15.254  0.0442  1.1907  2.0384
 9115TIP3    H248761   6.393   5.359  15.319 -0.3350  0.0163 -0.4404
 9116TIP3   OH248762   0.222   4.897  13.244  0.0609  0.0657  0.4534
 9116TIP3    H148763   0.150   4.835  13.256  0.1044  0.0595  0.6822
 9116TIP3    H248764   0.216   4.957  13.318 -0.8634  1.2294 -0.5389
 9117TIP3   OH248765   5.888   3.256  16.450  0.4423 -0.1247 -0.4415
 9117TIP3    H148766   5.927   3.334  16.490 -0.3581  2.0426 -3.4308
 9117TIP3    H248767   5.957   3.221  16.393 -0.0323  0.0781 -1.1591
 9118TIP3   OH248768   2.882   3.429  11.350 -0.7467  0.2349  0.3228
 9118TIP3    H148769   2.970   3.437  11.386 -0.9343 -0.7453  1.0392
 9118TIP3    H248770   2.880   3.492  11.278  0.2438  0.9011  0.8544
 9119TIP3   OH248771   1.807   5.204   2.119 -0.1607  0.1507 -0.0240
 9119TIP3    H148772   1.721   5.223   2.155 -0.7055  1.4146 -1.8840
 9119TIP3    H248773   1.790   5.177   2.029  1.3260 -0.5520 -0.1233
 9120TIP3   OH248774   3.010   4.734   4.022  0.1756  0.4453  0.0969
 9120TIP3    H148775   3.047   4.646   4.028 -0.2476  0.3195  1.0258
 9120TIP3    H248776   3.081   4.792   4.050  0.8402  0.5181 -1.6282
 9121TIP3   OH248777   2.307   5.247  15.715 -0.1221 -0.2589 -0.0878
 9121TIP3    H148778   2.392   5.204  15.722  0.4115  0.4865 -1.5045
 9121TIP3    H248779   2.251   5.182  15.673 -0.6359 -1.1843  1.8936
 9122TIP3   OH248780   4.539   3.092   4.294 -0.1874 -0.0875 -0.1346
 9122TIP3    H148781   4.555   3.184   4.274  2.0574 -0.0115  1.5775
 9122TIP3    H248782   4.452   3.091   4.334 -1.1993  0.9113 -2.1928
 9123TIP3   OH248783   6.211   4.062  10.907 -0.0638  0.5878 -0.8074
 9123TIP3    H148784   6.136   4.005  10.892  1.3421 -1.7052  0.4573
 9123TIP3    H248785   6.173   4.144  10.938 -2.0450 -1.1952  1.9048
 9124TIP3   OH248786   0.781   4.880   4.122 -0.1151 -0.5042 -0.0186
 9124TIP3    H148787   0.816   4.968   4.106  1.2301 -1.2487 -1.4803
 9124TIP3    H248788   0.837   4.822   4.071 -0.8339 -2.2633  1.0808
 9125TIP3   OH248789   3.870   4.959  11.215 -0.0729  0.1723 -0.1800
 9125TIP3    H148790   3.852   5.038  11.163 -0.1315  0.1739 -0.1565
 9125TIP3    H248791   3.785   4.916  11.224  0.1529 -0.5502 -1.2633
 9126TIP3   OH248792   6.565   2.411  15.653  0.4169  0.1440 -0.0502
 9126TIP3    H148793   6.499   2.439  15.717  0.7022 -0.5461  0.5561
 9126TIP3    H248794   6.610   2.491  15.628 -1.0555  0.7420 -0.9572
 9127TIP3   OH248795   0.603   3.907   0.342 -0.2155 -0.1997  0.1311
 9127TIP3    H148796   0.666   3.974   0.369  0.3874 -1.1180  1.0609
 9127TIP3    H248797   0.648   3.858   0.273  0.9280 -2.0687  2.0802
 9128TIP3   OH248798   5.152   4.734  11.608 -0.0726 -0.0874 -0.3535
 9128TIP3    H148799   5.066   4.700  11.584 -0.0163 -0.2590 -0.3153
 9128TIP3    H248800   5.194   4.755  11.525 -0.0110 -0.3503 -0.3897
 9129TIP3   OH248801   6.413   5.233  13.866  0.2412  0.2287 -0.1412
 9129TIP3    H148802   6.434   5.324  13.887  0.6344  0.1380 -0.1228
 9129TIP3    H248803   6.341   5.210  13.925 -0.2438  0.6980 -0.5381
 9130TIP3   OH248804   0.317   5.523  13.806 -0.0816  0.0602 -0.1390
 9130TIP3    H148805   0.346   5.462  13.738  1.2797  1.1322 -0.5578
 9130TIP3    H248806   0.395   5.575  13.826 -0.7018  0.3965  1.5813
 9131TIP3   OH248807   1.992   5.172  13.620 -0.8142  0.6649  0.2293
 9131TIP3    H148808   1.963   5.238  13.682 -0.4833  0.3382  0.7360
 9131TIP3    H248809   2.075   5.205  13.587  0.7841 -0.7674  2.5507
 9132TIP3   OH248810   1.665   3.740  11.136 -0.3668 -0.0270 -0.5105
 9132TIP3    H148811   1.723   3.666  11.154  0.3801  0.6556  0.0004
 9132TIP3    H248812   1.671   3.753  11.041 -1.7605 -1.6037 -0.8584
 9133TIP3   OH248813   3.357   0.237   0.427 -0.4128  0.1499 -0.2878
 9133TIP3    H148814   3.375   0.200   0.513 -1.4930  0.1116 -0.0584
 9133TIP3    H248815   3.369   0.164   0.366 -2.3408 -0.5949  0.1416
 9134TIP3   OH248816   0.126   6.144   3.232  0.8629 -0.0595  1.2630
 9134TIP3    H148817   0.060   6.080   3.259  0.2205 -0.1294 -0.3455
 9134TIP3    H248818   0.084   6.229   3.246  0.7360 -0.0800  1.0199
 9135TIP3   OH248819   2.462   1.206  16.241  0.3081  0.3517 -0.0148
 9135TIP3    H148820   2.508   1.203  16.157 -0.0143 -1.8393 -0.1956
 9135TIP3    H248821   2.528   1.236  16.303  0.3187  2.8518 -1.1431
 9136TIP3   OH248822   5.103   5.863  11.397 -0.0912 -0.2009  0.0374
 9136TIP3    H148823   5.038   5.819  11.452  0.4004  1.2789  1.8967
 9136TIP3    H248824   5.052   5.925  11.345 -0.2298  0.7795  1.3053
 9137TIP3   OH248825   1.693   2.282   4.555 -0.2102  0.1887  0.1214
 9137TIP3    H148826   1.690   2.375   4.535 -1.8799  0.0371 -0.5419
 9137TIP3    H248827   1.726   2.241   4.474 -1.7883  0.0296 -0.4727
 9138TIP3   OH248828   0.642   3.934  11.868 -0.0577 -0.3178  0.3673
 9138TIP3    H148829   0.573   3.962  11.807  0.9053  1.8915  0.1903
 9138TIP3    H248830   0.723   3.944  11.818  0.8061  2.0446  2.0519
 9139TIP3   OH248831   4.310   5.276  16.721 -0.5144 -0.0785 -1.2658
 9139TIP3    H148832   4.239   5.256  16.660 -0.2368 -0.5137 -1.4530
 9139TIP3    H248833   4.370   5.202  16.712  1.4146  1.6049 -3.2563
 9140TIP3   OH248834   0.932   2.833   3.613  0.4051  0.3256  0.5660
 9140TIP3    H148835   0.970   2.745   3.604  0.1263  0.3741 -1.5478
 9140TIP3    H248836   0.876   2.827   3.690 -1.6923 -2.2149 -0.9592
 9141TIP3   OH248837   5.743   1.079  13.970 -0.0494 -0.3736 -0.4114
 9141TIP3    H148838   5.764   1.166  14.003 -0.7593 -1.6461  4.0115
 9141TIP3    H248839   5.651   1.086  13.943  0.4999  0.6612 -2.2280
 9142TIP3   OH248840   4.560   0.809  11.964  0.5581 -0.1434  0.1902
 9142TIP3    H148841   4.494   0.782  11.900  0.0339 -0.9726  1.0589
 9142TIP3    H248842   4.631   0.846  11.911  0.0472 -0.6186 -0.8590
 9143TIP3   OH248843   5.668   6.575  11.271 -0.0239 -0.2187 -0.5086
 9143TIP3    H148844   5.751   6.588  11.316 -0.3209 -1.2482  0.3646
 9143TIP3    H248845   5.691   6.532  11.189  0.4690  1.2107 -1.1654
 9144TIP3   OH248846   1.183   4.335   3.305  0.3417  0.0188  0.1934
 9144TIP3    H148847   1.203   4.253   3.259 -0.5159 -0.9847  1.5116
 9144TIP3    H248848   1.088   4.347   3.292 -0.0092 -0.5214  1.9669
 9145TIP3   OH248849   5.251   5.539  14.552 -0.4145  0.2755 -0.0705
 9145TIP3    H148850   5.181   5.588  14.595 -0.0463 -0.3579  1.3045
 9145TIP3    H248851   5.328   5.554  14.608 -0.1096 -1.2230 -0.0652
 9146TIP3   OH248852   0.681   5.415  17.075 -0.1553 -0.5398 -0.5234
 9146TIP3    H148853   0.737   5.448  17.005 -0.3886  0.1421 -0.3992
 9146TIP3    H248854   0.610   5.479  17.081 -0.9823 -1.4153 -0.7089
 9147TIP3   OH248855   2.241   2.257   2.142  0.1365 -0.0252 -0.0434
 9147TIP3    H148856   2.201   2.344   2.146  0.1067 -0.0758  2.6778
 9147TIP3    H248857   2.168   2.196   2.152  0.3191 -0.3220 -0.4828
 9148TIP3   OH248858   2.592   4.399  16.025  0.3492  0.3918 -0.5822
 9148TIP3    H148859   2.508   4.363  16.052  0.1671  1.2550  0.0387
 9148TIP3    H248860   2.607   4.362  15.938 -0.0208 -0.8260 -0.1547
 9149TIP3   OH248861   5.568   5.119   5.651  0.5748  0.0451 -0.3342
 9149TIP3    H148862   5.574   5.214   5.653 -0.3119  0.0956  0.3405
 9149TIP3    H248863   5.657   5.088   5.669  0.4760  0.7460  1.5696
 9150TIP3   OH248864   0.907   3.735   5.545  0.4263  0.0201 -0.2488
 9150TIP3    H148865   0.951   3.663   5.590  0.7417 -1.2270 -2.4003
 9150TIP3    H248866   0.855   3.692   5.477  0.1122  1.7940 -1.1934
 9151TIP3   OH248867   2.826   5.020   6.183 -0.0167  0.3433 -0.3406
 9151TIP3    H148868   2.824   5.107   6.222 -0.5800  1.1589 -2.0554
 9151TIP3    H248869   2.734   4.995   6.175  0.1644 -1.0804  1.4443
 9152TIP3   OH248870   4.956   5.420   3.244 -0.1226 -0.1796  0.0907
 9152TIP3    H148871   4.991   5.507   3.262  1.5081 -0.9580  0.8761
 9152TIP3    H248872   4.896   5.403   3.316 -0.1781  0.1518  0.1241
 9153TIP3   OH248873   3.394   0.860   3.792 -0.7400  0.2513 -0.0993
 9153TIP3    H148874   3.325   0.849   3.858 -0.1169  0.3909  0.5875
 9153TIP3    H248875   3.466   0.902   3.840  0.0862 -0.5423 -0.6367
 9154TIP3   OH248876   6.091   2.994   1.330  0.3211 -0.1379  0.4875
 9154TIP3    H148877   6.002   2.961   1.335 -0.1193  0.8603 -0.3227
 9154TIP3    H248878   6.099   3.053   1.405 -0.4739  1.4736 -0.6285
 9155TIP3   OH248879   3.819   3.504  12.794 -0.0819 -0.0496 -0.6282
 9155TIP3    H148880   3.914   3.494  12.791 -0.1501 -1.0000  0.0565
 9155TIP3    H248881   3.796   3.494  12.886 -0.6465  2.3992 -0.4317
 9156TIP3   OH248882   1.834   3.157  10.897  0.0971  0.4672  0.1447
 9156TIP3    H148883   1.804   3.220  10.963  2.2823  2.3329 -0.5104
 9156TIP3    H248884   1.886   3.094  10.947 -1.1124 -0.1889  0.6328
 9157TIP3   OH248885   4.907   2.838  13.503  0.6743  0.4274 -0.5193
 9157TIP3    H148886   4.856   2.816  13.426 -0.2579 -0.5271  0.3392
 9157TIP3    H248887   4.900   2.933  13.511  0.6751  0.5237 -1.5120
 9158TIP3   OH248888   6.376   2.001  11.419  0.4963  0.3882  0.0602
 9158TIP3    H148889   6.459   1.981  11.461  1.8400  1.6395 -1.8061
 9158TIP3    H248890   6.354   2.089  11.450  0.0871  0.2281  0.2262
 9159TIP3   OH248891   3.671   0.231  15.922  0.2065  0.4616 -0.1847
 9159TIP3    H148892   3.763   0.228  15.894  0.2827 -1.5460  0.1392
 9159TIP3    H248893   3.665   0.165  15.991 -1.1508  1.6841  0.9370
 9160TIP3   OH248894   0.335   4.108  14.610  0.0664  0.4579 -0.4984
 9160TIP3    H148895   0.313   4.095  14.518 -0.6541 -0.6505 -0.1797
 9160TIP3    H248896   0.352   4.020  14.644 -0.6194  0.7456  0.6568
 9161TIP3   OH248897   4.154   5.871  16.353  0.2541  0.0876 -0.0174
 9161TIP3    H148898   4.225   5.830  16.304  1.5382  3.1597 -0.9960
 9161TIP3    H248899   4.198   5.918  16.424 -0.7590  1.7429 -0.4185
 9162TIP3   OH248900   6.178   6.022   3.600 -0.3327  0.5786  0.4039
 9162TIP3    H148901   6.159   6.108   3.561  1.5999  0.6839 -0.4131
 9162TIP3    H248902   6.094   5.976   3.598 -0.6523  1.1129 -2.6003
 9163TIP3   OH248903   6.779   1.698   5.636 -0.3018  0.9325  0.4353
 9163TIP3    H148904   6.843   1.633   5.666 -1.7420 -0.4506  0.6240
 9163TIP3    H248905   6.749   1.665   5.551 -0.4106  1.8433  0.1069
 9164TIP3   OH248906   2.519   4.387  13.997 -0.1095 -0.0302  0.0884
 9164TIP3    H148907   2.516   4.330  14.074 -1.1405 -0.3065 -0.1411
 9164TIP3    H248908   2.429   4.417  13.986 -0.0055 -0.1097 -1.0978
 9165TIP3   OH248909   1.715   0.512   3.819 -0.0285 -0.3087  0.4642
 9165TIP3    H148910   1.734   0.418   3.817  1.9875  0.0248  1.0055
 9165TIP3    H248911   1.715   0.534   3.912  1.2217  0.4945  0.2948
 9166TIP3   OH248912   6.505   4.740  12.914 -0.2292  0.1920 -0.1217
 9166TIP3    H148913   6.490   4.820  12.964 -0.0791 -0.8714  1.7229
 9166TIP3    H248914   6.585   4.703  12.951  1.0067  0.3085 -2.4976
 9167TIP3   OH248915   3.853   0.595  11.207  0.2226 -0.5191 -0.6872
 9167TIP3    H148916   3.787   0.656  11.240  0.3900 -0.4156 -0.5426
 9167TIP3    H248917   3.870   0.535  11.279  0.2628 -0.5670 -0.7361
 9168TIP3   OH248918   1.038   4.998   4.557 -0.0401 -0.0735  0.1262
 9168TIP3    H148919   1.009   5.047   4.634  0.8391 -0.6973  0.8660
 9168TIP3    H248920   1.030   5.061   4.485 -0.3581  0.6855  0.8021
 9169TIP3   OH248921   2.249   5.120  12.678  0.1853 -0.2084 -0.6403
 9169TIP3    H148922   2.220   5.048  12.733  2.9749 -1.4202 -0.5931
 9169TIP3    H248923   2.186   5.122  12.605 -1.6475 -0.7024  0.8571
 9170TIP3   OH248924   6.519   6.188  13.810  0.4897 -0.0827  0.0169
 9170TIP3    H148925   6.450   6.199  13.875  0.8805 -0.2593  0.4682
 9170TIP3    H248926   6.474   6.153  13.733  0.0441  0.0045  0.2327
 9171TIP3   OH248927   2.167   2.613   0.551  0.2920  0.1151 -0.3986
 9171TIP3    H148928   2.159   2.599   0.456  0.0475 -1.9761 -0.1286
 9171TIP3    H248929   2.188   2.526   0.586  0.1948  0.8041  1.4931
 9172TIP3   OH248930   5.542   0.741  11.563  0.2327 -0.4108  0.0635
 9172TIP3    H148931   5.570   0.750  11.472 -0.8253 -2.1884 -0.4925
 9172TIP3    H248932   5.582   0.659  11.592 -0.5834 -0.5848  0.7351
 9173TIP3   OH248933   3.816   6.071   1.231 -0.1123  0.3590  0.3671
 9173TIP3    H148934   3.905   6.080   1.197  0.2092 -2.1467  0.3605
 9173TIP3    H248935   3.818   6.114   1.316  1.5052 -0.7510  0.9442
 9174TIP3   OH248936   1.200   6.781   1.426  0.6849 -0.4898  0.8919
 9174TIP3    H148937   1.207   6.820   1.339 -0.8331 -1.8484  0.1181
 9174TIP3    H248938   1.193   6.687   1.411  3.6603 -1.1612  2.6910
 9175TIP3   OH248939   0.070   0.933  11.124 -0.1764  0.0216  0.1552
 9175TIP3    H148940   0.113   0.935  11.209  1.0248 -0.7408 -0.3998
 9175TIP3    H248941   0.008   0.861  11.130 -2.1191  1.7015  1.2654
 9176TIP3   OH248942   1.962   0.343   4.572  0.2572 -0.9213  0.0972
 9176TIP3    H148943   1.949   0.253   4.543  1.2338 -1.2216  0.5463
 9176TIP3    H248944   1.994   0.389   4.495 -0.2591 -0.9441 -0.1382
 9177TIP3   OH248945   3.169   1.387   5.609  0.0577 -0.3695 -0.2233
 9177TIP3    H148946   3.108   1.406   5.680 -0.9960 -0.5303 -1.0642
 9177TIP3    H248947   3.149   1.452   5.542  3.1103  1.8227  0.7555
 9178TIP3   OH248948   0.694   5.660  14.493  0.1663 -0.1950 -0.2336
 9178TIP3    H148949   0.695   5.720  14.567  1.9103  1.7287 -1.7051
 9178TIP3    H248950   0.665   5.576  14.530 -0.1949  0.9788  2.3305
 9179TIP3   OH248951   3.736   6.069  10.988  0.1383  0.2658 -0.4136
 9179TIP3    H148952   3.820   6.028  11.010 -0.7634 -1.3451  0.2196
 9179TIP3    H248953   3.682   5.996  10.958 -1.8270  0.8099  1.5620
 9180TIP3   OH248954   4.114   1.897   3.576  0.0184 -0.0782  0.1687
 9180TIP3    H148955   4.140   1.943   3.655  0.8855 -0.2521 -0.0064
 9180TIP3    H248956   4.174   1.822   3.570 -0.7142 -0.6647 -0.0918
 9181TIP3   OH248957   4.999   1.055  10.581  0.7461  0.7676 -0.4870
 9181TIP3    H148958   5.059   0.985  10.557 -1.1534 -1.0523 -0.2862
 9181TIP3    H248959   4.978   1.099  10.499 -1.8606 -2.2109 -1.6213
 9182TIP3   OH248960   1.866   5.564  13.418  0.1169  0.3157 -0.2359
 9182TIP3    H148961   1.852   5.498  13.350 -2.1375  1.0727 -0.5818
 9182TIP3    H248962   1.861   5.648  13.372  0.2191  0.8024  0.6123
 9183TIP3   OH248963   1.069   1.688  15.643 -0.6313 -0.0112 -0.1867
 9183TIP3    H148964   1.106   1.624  15.582 -0.4444  0.2109 -0.3093
 9183TIP3    H248965   1.067   1.770  15.592 -1.2252 -0.0052 -0.1631
 9184TIP3   OH248966   6.398   6.729  17.156  0.8077 -0.8482  0.5299
 9184TIP3    H148967   6.413   6.653  17.100 -0.0860 -1.1407  0.6755
 9184TIP3    H248968   6.485   6.758  17.181  1.2175 -0.7872 -0.9170
 9185TIP3   OH248969   0.566   1.990   3.071 -0.1571 -0.3991  0.8086
 9185TIP3    H148970   0.575   1.903   3.033  0.7976  0.1199 -0.2343
 9185TIP3    H248971   0.620   1.988   3.150 -2.0169 -1.4373  2.1125
 9186TIP3   OH248972   1.375   1.386  13.422  0.4944 -0.5690  0.2535
 9186TIP3    H148973   1.377   1.430  13.507  0.5240  1.3127 -0.6477
 9186TIP3    H248974   1.289   1.344  13.418 -0.4539  1.2580  0.3363
 9187TIP3   OH248975   2.555   5.964   4.159  0.2274 -0.0389  0.1594
 9187TIP3    H148976   2.492   5.969   4.231 -0.8875 -1.1428 -0.7085
 9187TIP3    H248977   2.504   5.935   4.084  1.4219  0.8283 -1.0420
 9188TIP3   OH248978   3.542   3.843   0.160  0.1417  0.1385 -0.4529
 9188TIP3    H148979   3.455   3.874   0.137  0.3284  0.7275 -0.3839
 9188TIP3    H248980   3.602   3.901   0.113  0.5271  0.9981  1.0150
 9189TIP3   OH248981   0.630   4.953  16.119  0.2923 -0.6352  0.1800
 9189TIP3    H148982   0.675   5.006  16.185  0.7498 -0.2991 -0.3929
 9189TIP3    H248983   0.675   4.869  16.121  0.0900 -0.7369  0.5258
 9190TIP3   OH248984   4.818   0.910   1.546  0.7481  0.1804  0.2582
 9190TIP3    H148985   4.820   1.004   1.561  1.7333  0.0700  0.9027
 9190TIP3    H248986   4.869   0.898   1.466  1.6506  0.0944  0.8327
 9191TIP3   OH248987   3.003   3.772   3.222 -0.2044  1.0399 -0.2330
 9191TIP3    H148988   2.988   3.855   3.266 -2.1180  1.1438 -1.0089
 9191TIP3    H248989   2.943   3.772   3.147 -0.7277 -1.2978  0.0883
 9192TIP3   OH248990   0.547   3.671  16.743 -0.2353 -0.2031  0.5016
 9192TIP3    H148991   0.611   3.709  16.803  0.5730 -0.6669 -0.0453
 9192TIP3    H248992   0.542   3.734  16.670 -0.9010  0.1518  0.8405
 9193TIP3   OH248993   3.463   0.670   3.609  0.0320 -0.0593  0.0147
 9193TIP3    H148994   3.527   0.628   3.665  0.6783  1.4510  0.4468
 9193TIP3    H248995   3.418   0.733   3.666  0.0893  0.8638 -0.9216
 9194TIP3   OH248996   0.732   4.134  13.474  0.1424 -0.9443  0.3262
 9194TIP3    H148997   0.704   4.077  13.546  0.4825 -0.0938  1.1622
 9194TIP3    H248998   0.757   4.215  13.517  1.6611 -0.8691 -0.6191
 9195TIP3   OH248999   3.338   6.450   4.970  0.4624 -0.3865 -0.2289
 9195TIP3    H149000   3.296   6.437   5.055 -0.2417 -0.8095 -0.6281
 9195TIP3    H249001   3.391   6.529   4.982  1.4088 -1.1759  0.9718
 9196TIP3   OH249002   5.066   3.708   1.710  0.2936  0.1208  0.3320
 9196TIP3    H149003   5.102   3.620   1.701  0.8856  0.4165 -0.2488
 9196TIP3    H249004   5.025   3.708   1.796 -1.2636 -1.2829 -0.3477
 9197TIP3   OH249005   2.568   2.566   0.457 -0.0185  0.0793 -0.2160
 9197TIP3    H149006   2.567   2.573   0.552  2.8289  0.7316 -0.1474
 9197TIP3    H249007   2.568   2.471   0.440 -0.6685 -0.0430  0.3751
 9198TIP3   OH249008   3.729   2.165   5.408  0.3300 -0.1010  0.2962
 9198TIP3    H149009   3.661   2.133   5.349  1.4861 -1.7084 -0.2291
 9198TIP3    H249010   3.770   2.237   5.361  1.5555 -1.6638 -1.1406
 9199TIP3   OH249011   4.983   0.245  16.877 -0.1161 -0.2621 -0.2103
 9199TIP3    H149012   5.075   0.223  16.865 -0.2366 -1.0412  0.1841
 9199TIP3    H249013   4.975   0.267  16.970  0.0693  1.9148 -0.6480
 9200TIP3   OH249014   4.356   5.014  11.133  0.1842  0.1829  0.1349
 9200TIP3    H149015   4.282   4.954  11.135  1.4954 -1.4995  1.2253
 9200TIP3    H249016   4.415   4.977  11.068  0.1535  1.4457 -0.6444
 9201TIP3   OH249017   4.201   6.446   3.663  0.0843 -0.1841 -0.7479
 9201TIP3    H149018   4.127   6.400   3.703 -0.0878 -0.0281 -0.8867
 9201TIP3    H249019   4.211   6.406   3.577  1.0548 -1.1752 -0.2064
 9202TIP3   OH249020   6.055   0.041   2.154  0.0097  0.4445 -0.2827
 9202TIP3    H149021   6.123   0.034   2.221 -0.0532 -0.0304 -0.2619
 9202TIP3    H249022   5.990  -0.024   2.180  0.1093  0.0694 -0.9486
 9203TIP3   OH249023   1.753   1.290   6.075 -0.8820  0.0680  0.5284
 9203TIP3    H149024   1.744   1.241   6.156 -0.5187 -0.6575  0.1362
 9203TIP3    H249025   1.827   1.250   6.030 -0.4556  1.0905  0.2805
 9204TIP3   OH249026   1.853   1.516   0.380 -0.3100  0.1932 -0.5522
 9204TIP3    H149027   1.843   1.484   0.290 -0.5647  0.0986 -0.4901
 9204TIP3    H249028   1.947   1.507   0.397 -0.3632 -0.4872 -0.5565
 9205TIP3   OH249029   2.036   0.525   3.958  0.3546 -0.5293  0.1482
 9205TIP3    H149030   2.048   0.557   3.868 -1.6898  1.3798  0.4684
 9205TIP3    H249031   1.987   0.443   3.947  1.8611 -1.3844 -0.5173
 9206TIP3   OH249032   4.301   4.723   4.874 -0.2287 -0.0341  0.2631
 9206TIP3    H149033   4.264   4.674   4.948  0.9185  1.1236  1.6612
 9206TIP3    H249034   4.395   4.723   4.889 -0.0559  1.1153 -0.6261
 9207TIP3   OH249035   0.614   6.533  14.570 -0.3892 -0.3501  0.7989
 9207TIP3    H149036   0.539   6.585  14.598  0.4509  0.7199  1.1620
 9207TIP3    H249037   0.668   6.524  14.648  0.4015 -0.1230  0.3019
 9208TIP3   OH249038   3.338   5.852  16.774  0.5894  0.3152  0.4583
 9208TIP3    H149039   3.395   5.852  16.697  1.4792  0.6319  1.1003
 9208TIP3    H249040   3.286   5.931  16.765 -0.3871 -0.4173 -0.5755
 9209TIP3   OH249041   2.111   2.222  10.595 -0.1234 -0.5811  0.1385
 9209TIP3    H149042   2.191   2.218  10.649  1.0535  1.7877 -1.2827
 9209TIP3    H249043   2.137   2.185  10.511 -1.1780 -1.7189  0.2797
 9210TIP3   OH249044   1.032   3.392  15.505  0.0730 -0.3858  0.2049
 9210TIP3    H149045   1.050   3.459  15.572 -0.3802 -0.3528  0.2969
 9210TIP3    H249046   1.092   3.413  15.434  1.1978 -0.9494  0.9547
 9211TIP3   OH249047   2.343   0.872   3.952  0.5709  0.6713  0.4840
 9211TIP3    H149048   2.375   0.961   3.963  0.0485  1.0127 -0.6511
 9211TIP3    H249049   2.289   0.857   4.030 -1.4796  2.3218 -0.5303
 9212TIP3   OH249050   2.858   3.560  14.169 -0.3228 -0.0311  0.2272
 9212TIP3    H149051   2.888   3.513  14.091  1.1014  0.4488  0.4669
 9212TIP3    H249052   2.764   3.573  14.154 -0.2507 -0.7380 -0.9869
 9213TIP3   OH249053   5.965   2.298  12.028 -0.1652  0.1299 -0.7643
 9213TIP3    H149054   5.942   2.280  12.119 -1.3597  0.9582 -0.8702
 9213TIP3    H249055   6.014   2.222  12.000  1.9357  0.6708  1.1398
 9214TIP3   OH249056   5.445   5.346   3.725 -0.1486  0.6587  0.0001
 9214TIP3    H149057   5.386   5.346   3.800  0.2482  0.5896  0.3163
 9214TIP3    H249058   5.455   5.438   3.702  0.2806  0.7371  0.4768
 9215TIP3   OH249059   5.991   5.789   1.160  0.4300 -0.6022 -0.1391
 9215TIP3    H149060   5.926   5.759   1.097 -0.8548  1.9508 -0.1402
 9215TIP3    H249061   5.984   5.885   1.159  1.3832 -0.3958  2.8273
 9216TIP3   OH249062   5.179   2.536   6.544 -0.6095 -0.2371  0.3344
 9216TIP3    H149063   5.171   2.474   6.617 -0.9387  0.3642  0.8129
 9216TIP3    H249064   5.102   2.592   6.552 -0.9588 -0.5263 -0.8265
 9217TIP3   OH249065   5.146   2.256   3.777 -0.4348 -0.7461  0.4386
 9217TIP3    H149066   5.147   2.297   3.864 -0.6580 -0.0345  0.1128
 9217TIP3    H249067   5.123   2.165   3.794 -0.6233 -0.5783  1.1157
 9218TIP3   OH249068   0.175   1.858   0.541 -0.1296 -0.3987 -0.6846
 9218TIP3    H149069   0.269   1.843   0.533 -0.0381 -2.5855  2.7015
 9218TIP3    H249070   0.167   1.946   0.578  0.4543  0.2882 -2.1247
 9219TIP3   OH249071   1.494   6.328   2.561 -0.2465  0.6042  0.4595
 9219TIP3    H149072   1.569   6.381   2.534 -0.4412  0.4022 -0.5162
 9219TIP3    H249073   1.464   6.285   2.480 -0.6335 -0.3052  1.0631
 9220TIP3   OH249074   0.480   5.936   4.175  0.8192  0.0906 -0.2835
 9220TIP3    H149075   0.418   5.998   4.213 -0.6003  0.3708 -2.8275
 9220TIP3    H249076   0.427   5.881   4.118  2.7042 -0.5170 -1.5549
 9221TIP3   OH249077   4.840   3.907  12.679 -0.6234  0.5725  0.2324
 9221TIP3    H149078   4.787   3.957  12.616 -2.4306 -0.0350  1.1907
 9221TIP3    H249079   4.917   3.961  12.694 -1.0738  1.6236 -1.0532
 9222TIP3   OH249080   3.703   5.599   3.311  0.0821  0.0073  0.2688
 9222TIP3    H149081   3.723   5.509   3.284  0.9527 -0.2766  1.7512
 9222TIP3    H249082   3.610   5.609   3.293  0.2571 -0.7249 -1.1761
 9223TIP3   OH249083   3.319   1.361   1.610 -0.1895  0.2911 -0.1463
 9223TIP3    H149084   3.386   1.316   1.560 -0.0268 -0.2799  0.5663
 9223TIP3    H249085   3.340   1.342   1.702 -1.2051  0.2639  0.0965
 9224TIP3   OH249086   3.426   0.777   5.678  0.3145  0.3818  0.0709
 9224TIP3    H149087   3.348   0.833   5.682  0.6567  0.8093  0.8205
 9224TIP3    H249088   3.480   0.806   5.751  1.6571  0.7949 -1.0580
 9225TIP3   OH249089   5.146   2.477   0.258  0.2754 -0.0265 -0.1335
 9225TIP3    H149090   5.230   2.494   0.215 -0.5619  3.6562 -0.6388
 9225TIP3    H249091   5.118   2.392   0.224  3.2553 -0.8742 -0.7507
 9226TIP3   OH249092   6.567   5.547   0.080 -0.3388 -0.0506 -0.1612
 9226TIP3    H149093   6.608   5.488   0.144  2.8003  2.5622  0.4438
 9226TIP3    H249094   6.579   5.634   0.117 -1.3377  1.3066 -2.8330
 9227TIP3   OH249095   6.031   1.504   0.434 -0.0711  0.4350 -0.1267
 9227TIP3    H149096   5.983   1.424   0.453  0.6781  0.2237  0.9942
 9227TIP3    H249097   6.090   1.515   0.508 -0.0489  1.9537 -0.3305
 9228TIP3   OH249098   1.315   2.600   3.787 -0.0716  0.1211 -0.0320
 9228TIP3    H149099   1.375   2.671   3.809 -0.0981  0.8614 -2.1367
 9228TIP3    H249100   1.355   2.522   3.826  1.9259  0.7138 -0.7677
 9229TIP3   OH249101   1.856   4.151  14.968  0.1476 -0.1041  0.4912
 9229TIP3    H149102   1.864   4.244  14.949  0.1605 -0.7484 -3.5061
 9229TIP3    H249103   1.943   4.115  14.952 -0.7627 -1.3072 -2.4933
 9230TIP3   OH249104   5.604   6.700   1.853 -0.3570  0.0681  0.0792
 9230TIP3    H149105   5.627   6.676   1.764  2.3342 -0.8494  0.9392
 9230TIP3    H249106   5.563   6.621   1.889 -0.5394  0.1069 -0.0408
 9231TIP3   OH249107   6.466   1.021   2.951 -0.2812  0.2585 -0.1041
 9231TIP3    H149108   6.497   1.045   2.864  2.0280  0.4645  0.7134
 9231TIP3    H249109   6.377   0.990   2.936  0.2099 -0.2198 -2.6168
 9232TIP3   OH249110   4.659   3.322  16.763 -0.1496 -0.3664 -0.5035
 9232TIP3    H149111   4.672   3.401  16.815  0.2806 -0.9331  0.2606
 9232TIP3    H249112   4.574   3.335  16.721 -0.1384  0.4459 -0.2914
 9233TIP3   OH249113   3.687   5.287   1.563  0.3325  0.2206  0.1673
 9233TIP3    H149114   3.708   5.220   1.629 -1.2612 -0.3688  0.1252
 9233TIP3    H249115   3.594   5.272   1.543  0.0701  2.1465 -0.2037
 9234TIP3   OH249116   3.986   2.071   5.915  0.2141  0.2926 -0.3686
 9234TIP3    H149117   3.927   1.997   5.899  0.6935 -0.4767  1.1497
 9234TIP3    H249118   4.021   2.055   6.003  2.4881  0.8473 -1.0913
 9235TIP3   OH249119   2.026   4.114  13.004  0.2787  0.2698  0.1408
 9235TIP3    H149120   1.976   4.108  13.085  1.3738 -0.4795  0.7977
 9235TIP3    H249121   1.981   4.181  12.953 -0.5569  0.6174  1.2797
 9236TIP3   OH249122   6.382   4.088  13.751  0.2894  0.8859  0.1359
 9236TIP3    H149123   6.369   3.994  13.740  3.6566  0.1959  0.8151
 9236TIP3    H249124   6.394   4.121  13.662  0.2710  0.4368 -0.0340
 9237TIP3   OH249125   4.478   1.661  11.228  0.6220  0.1204  1.0282
 9237TIP3    H149126   4.458   1.704  11.312  1.0895 -0.7086  1.5773
 9237TIP3    H249127   4.412   1.592  11.221 -0.3604  1.1377 -0.0308
 9238TIP3   OH249128   1.185   5.831  15.977  0.7350 -0.4861  0.1982
 9238TIP3    H149129   1.102   5.817  16.022  0.1238  0.2196 -0.6693
 9238TIP3    H249130   1.177   5.782  15.895 -0.2032  2.1697 -1.4291
 9239TIP3   OH249131   0.651   1.274   3.398 -0.3074  0.5835 -0.0376
 9239TIP3    H149132   0.659   1.218   3.476  0.7908  0.4795 -0.1971
 9239TIP3    H249133   0.577   1.332   3.417 -1.3494 -0.7811  0.2145
 9240TIP3   OH249134   0.115   0.123  10.795 -0.3879 -0.0640 -0.1074
 9240TIP3    H149135   0.150   0.061  10.859 -0.4774  0.1134  0.1195
 9240TIP3    H249136   0.192   0.163  10.755 -0.3141 -1.2970 -1.2345
 9241TIP3   OH249137   2.201   1.287  15.481 -0.3017  0.4373 -0.0361
 9241TIP3    H149138   2.197   1.350  15.553 -2.1440  1.0685 -0.6078
 9241TIP3    H249139   2.233   1.206  15.521 -0.9030  0.8789  1.4130
 9242TIP3   OH249140   0.848   1.256   4.059 -0.1927  0.3311  0.1170
 9242TIP3    H149141   0.876   1.227   4.146 -1.5978 -1.0944  0.1258
 9242TIP3    H249142   0.756   1.280   4.070 -0.7423 -1.0228 -1.2063
 9243TIP3   OH249143   3.778   2.142   2.765  0.0339  0.5187 -0.2980
 9243TIP3    H149144   3.707   2.087   2.798  0.7756 -0.5118 -0.3794
 9243TIP3    H249145   3.773   2.222   2.817 -0.1708 -0.1973  0.8116
 9244TIP3   OH249146   6.604   1.901  11.544 -0.5092 -0.4311  0.5577
 9244TIP3    H149147   6.681   1.944  11.582 -1.6039  0.8113  1.4554
 9244TIP3    H249148   6.570   1.847  11.615 -1.0989 -0.1089  0.5215
 9245TIP3   OH249149   1.565   6.549  16.021 -0.0878  0.6929  0.1542
 9245TIP3    H149150   1.581   6.596  15.939 -1.0185 -0.1554 -0.5358
 9245TIP3    H249151   1.567   6.618  16.088  2.5708  1.1658 -0.2821
 9246TIP3   OH249152   5.689   6.135   5.548  0.3410  0.4803  0.9416
 9246TIP3    H149153   5.780   6.110   5.563 -0.0057 -0.2269  1.9137
 9246TIP3    H249154   5.662   6.082   5.473  0.8159  0.9250  0.4475
 9247TIP3   OH249155   1.470   4.204   4.641 -0.8077 -0.0520 -0.1181
 9247TIP3    H149156   1.404   4.217   4.709  0.8292  2.7301  1.1196
 9247TIP3    H249157   1.508   4.291   4.627  1.3717 -1.1827 -2.0672
 9248TIP3   OH249158   0.370   0.688   4.768 -0.0883  0.1513  0.8191
 9248TIP3    H149159   0.452   0.736   4.775  0.0688  0.0637 -0.2167
 9248TIP3    H249160   0.393   0.596   4.783  0.2048 -0.0115 -0.5296
 9249TIP3   OH249161   4.297   3.941  14.346  0.1948 -0.3641  0.6507
 9249TIP3    H149162   4.329   4.015  14.398 -0.4158  0.2464  0.1673
 9249TIP3    H249163   4.222   3.976  14.298  0.3278 -1.1055 -0.1137
 9250TIP3   OH249164   2.895   3.572  10.595 -0.0604 -0.3472 -0.1338
 9250TIP3    H149165   2.877   3.528  10.511  0.0803  0.3750 -0.5538
 9250TIP3    H249166   2.962   3.518  10.636 -0.2135 -0.7752 -0.4378
 9251TIP3   OH249167   5.395   2.364   5.798  0.1910 -0.9933 -0.1319
 9251TIP3    H149168   5.422   2.313   5.875  0.1973 -1.7221 -0.6002
 9251TIP3    H249169   5.367   2.448   5.833  0.8952 -1.0488  0.5980
 9252TIP3   OH249170   5.821   1.109  16.673  0.0976 -0.1427  0.2106
 9252TIP3    H149171   5.778   1.122  16.588 -0.0554 -1.0190  0.1465
 9252TIP3    H249172   5.880   1.184  16.682  1.2482 -0.7968 -1.3717
 9253TIP3   OH249173   6.665   1.827   0.721 -0.9290  0.1230 -1.0281
 9253TIP3    H149174   6.749   1.827   0.676 -0.9012 -1.3265 -1.0256
 9253TIP3    H249175   6.675   1.893   0.789  0.8150 -1.1163  0.0163
 9254TIP3   OH249176   2.966   5.768  11.290 -0.2825  0.0795  0.3030
 9254TIP3    H149177   3.005   5.703  11.347 -0.5862  0.0574  0.4843
 9254TIP3    H249178   2.953   5.723  11.207  0.7869  0.2990 -0.0053
 9255TIP3   OH249179   0.272   2.569   6.907 -0.1733  0.3981  0.0043
 9255TIP3    H149180   0.183   2.545   6.883 -0.1725  1.0583 -0.6858
 9255TIP3    H249181   0.326   2.542   6.832  0.0665  0.8918 -0.0068
 9256TIP3   OH249182   1.682   1.700   4.026  0.0898  0.2935  0.0467
 9256TIP3    H149183   1.648   1.644   3.956 -0.7133 -0.1409  0.7586
 9256TIP3    H249184   1.764   1.658   4.053 -0.6264 -0.7432  0.7512
 9257TIP3   OH249185   3.835   0.975  15.651  0.4358 -0.1150 -0.3806
 9257TIP3    H149186   3.923   1.001  15.625  0.6013  0.5832  0.8181
 9257TIP3    H249187   3.778   1.014  15.585  0.8377  1.6473  0.2776
 9258TIP3   OH249188   5.588   3.093  16.287 -0.4233 -0.4381 -0.2478
 9258TIP3    H149189   5.642   3.129  16.357 -0.4720 -1.1070  0.1401
 9258TIP3    H249190   5.571   3.003  16.313 -1.6873 -0.2610 -0.3738
 9259TIP3   OH249191   2.979   5.721  12.736 -0.2041 -0.4335 -0.1746
 9259TIP3    H149192   2.903   5.738  12.681  0.6428 -0.7326 -1.4943
 9259TIP3    H249193   2.957   5.641  12.784 -1.1091  0.0480  0.2160
 9260TIP3   OH249194   2.065   0.536   0.221  0.5716 -0.1251  0.0103
 9260TIP3    H149195   2.158   0.548   0.200  0.5934  1.4587  0.8226
 9260TIP3    H249196   2.029   0.625   0.222 -0.5682 -0.5621  1.3846
 9261TIP3   OH249197   0.036   2.257  15.175  0.1302 -0.6940  0.2895
 9261TIP3    H149198   0.053   2.168  15.207  1.5314 -0.8565 -0.8073
 9261TIP3    H249199  -0.028   2.245  15.105  1.1265 -0.9982 -0.5935
 9262TIP3   OH249200   5.744   3.944   0.617 -0.0887 -0.7287  0.2369
 9262TIP3    H149201   5.745   4.032   0.655 -0.9059 -1.6066  2.4492
 9262TIP3    H249202   5.831   3.910   0.634  0.0146 -0.5927 -0.0158
 9263TIP3   OH249203   2.973   1.038   5.161 -0.0061  0.7884  0.3485
 9263TIP3    H149204   2.963   1.094   5.238  1.2115  0.3458  0.8436
 9263TIP3    H249205   3.058   1.061   5.125 -0.3887  0.7070 -0.6620
 9264TIP3   OH249206   1.881   5.396  13.967  1.0389  0.1363  0.3154
 9264TIP3    H149207   1.846   5.330  13.907  1.8477  0.1836 -0.2142
 9264TIP3    H249208   1.804   5.440  14.002  0.5399 -0.2608 -0.2692
 9265TIP3   OH249209   2.130   4.861  14.714  0.1175 -0.7442  0.4681
 9265TIP3    H149210   2.078   4.874  14.634  2.0128 -0.6706 -0.8093
 9265TIP3    H249211   2.101   4.931  14.773 -0.9851 -0.5113 -0.3132
 9266TIP3   OH249212   3.113   1.635  15.949  0.0086  0.0032 -0.2337
 9266TIP3    H149213   3.169   1.713  15.949  2.0599 -1.3839  0.5908
 9266TIP3    H249214   3.081   1.629  16.039  0.7462 -0.6749 -0.0047
 9267TIP3   OH249215   5.007   2.621  14.610 -0.2457  0.3078  0.0590
 9267TIP3    H149216   5.076   2.629  14.545  1.1842 -3.0891  0.8998
 9267TIP3    H249217   4.928   2.605  14.559  0.4385 -0.1024 -0.9121
 9268TIP3   OH249218   1.540   6.228  11.287  0.1045 -0.1882 -0.0082
 9268TIP3    H149219   1.456   6.222  11.241 -1.0346  2.1671  1.5685
 9268TIP3    H249220   1.555   6.322  11.296  2.4131 -0.5741  0.6935
 9269TIP3   OH249221   3.331   5.754  17.007  0.1514  0.0152 -0.6729
 9269TIP3    H149222   3.258   5.804  17.044 -0.8436 -0.2406 -2.2210
 9269TIP3    H249223   3.331   5.775  16.914  0.8295 -1.4964 -1.0516
 9270TIP3   OH249224   1.500   0.576   4.848  0.5816 -0.0066  0.0431
 9270TIP3    H149225   1.590   0.606   4.860  1.0221 -1.1690 -0.2312
 9270TIP3    H249226   1.462   0.577   4.936  0.9535  0.2078  0.2009
 9271TIP3   OH249227   2.036   6.604  15.415 -0.1316  0.4378 -0.1869
 9271TIP3    H149228   2.008   6.597  15.506  0.1306  1.3125 -0.0338
 9271TIP3    H249229   2.104   6.537  15.406 -0.5407 -0.0261  0.1054
 9272TIP3   OH249230   3.706   0.594   2.219 -0.8933  0.0838  0.2267
 9272TIP3    H149231   3.786   0.634   2.254 -0.1603 -0.0995 -1.1899
 9272TIP3    H249232   3.671   0.660   2.159 -0.7824 -0.5660 -0.5671
 9273TIP3   OH249233   0.366   4.228   6.590 -0.3885 -0.3570 -0.2027
 9273TIP3    H149234   0.325   4.172   6.524 -0.4267  0.0570 -0.5354
 9273TIP3    H249235   0.331   4.196   6.673 -0.9196 -0.3989 -0.4377
 9274TIP3   OH249236   2.788   2.764  10.831  0.5804 -0.8316 -0.4251
 9274TIP3    H149237   2.868   2.789  10.877  0.1777  1.1170 -0.6634
 9274TIP3    H249238   2.762   2.844  10.784 -1.8005 -1.2074  0.1105
 9275TIP3   OH249239   3.470   5.975  13.819  0.3361  0.5939  0.3426
 9275TIP3    H149240   3.411   6.049  13.810  0.5555  0.6247 -1.1437
 9275TIP3    H249241   3.450   5.919  13.743  1.2724 -0.0633  0.5562
 9276TIP3   OH249242   2.268   4.751  15.596 -0.3812 -0.0965  0.3720
 9276TIP3    H149243   2.219   4.831  15.579 -1.8550 -1.1896 -0.7203
 9276TIP3    H249244   2.351   4.782  15.633 -0.9863  1.9067  0.1926
 9277TIP3   OH249245   5.458   1.297   3.881  0.5325  0.6272 -0.1685
 9277TIP3    H149246   5.404   1.238   3.934  1.0924 -1.6555 -1.9586
 9277TIP3    H249247   5.466   1.252   3.797  2.5078  2.4636 -1.0395
 9278TIP3   OH249248   3.270   5.135  12.611  0.5618  0.0720  0.8369
 9278TIP3    H149249   3.364   5.133  12.629  0.4168 -1.5642  1.5923
 9278TIP3    H249250   3.237   5.052  12.646 -1.3501  1.0758  1.5746
 9279TIP3   OH249251   3.126   3.063   4.476  0.0300 -0.3890 -0.4189
 9279TIP3    H149252   3.073   3.131   4.434 -0.0198 -1.2437 -1.7859
 9279TIP3    H249253   3.185   3.111   4.533 -1.0344  0.6979 -0.1855
 9280TIP3   OH249254   4.997   2.501  14.866  0.3746 -0.1766 -0.1796
 9280TIP3    H149255   4.955   2.440  14.806  0.4443 -0.9743  0.5616
 9280TIP3    H249256   4.986   2.587  14.825 -1.5138 -0.4254 -0.2433
 9281TIP3   OH249257   3.337   2.899   3.629 -0.3127 -0.2097  0.6056
 9281TIP3    H149258   3.423   2.857   3.625  0.1407  0.6645  1.0577
 9281TIP3    H249259   3.282   2.835   3.673 -0.1674 -1.2092 -0.5924
 9282TIP3   OH249260   6.584   5.307   1.600  0.8476 -0.1146  0.5222
 9282TIP3    H149261   6.537   5.374   1.649 -0.3271  0.7240 -1.6123
 9282TIP3    H249262   6.596   5.235   1.662 -0.4445  0.9223  2.0419
 9283TIP3   OH249263   1.169   1.946  11.344  0.8654  0.4193  0.0457
 9283TIP3    H149264   1.219   1.865  11.337  1.2870  0.6111  0.7902
 9283TIP3    H249265   1.233   2.015  11.325  1.2715  0.7608  2.3963
 9284TIP3   OH249266   2.568   3.642  16.709 -0.0202 -0.3061  0.2766
 9284TIP3    H149267   2.527   3.579  16.769 -1.4060  0.5613  0.2773
 9284TIP3    H249268   2.644   3.676  16.757 -1.6431  1.0948  1.9870
 9285TIP3   OH249269   3.861   1.357   0.450 -0.5850 -0.3852  0.1300
 9285TIP3    H149270   3.841   1.299   0.524 -0.6460 -0.4683  0.0483
 9285TIP3    H249271   3.877   1.442   0.490  2.6178 -1.0617  0.6203
 9286TIP3   OH249272   6.241   0.626   5.168  0.2022  0.4376  0.1345
 9286TIP3    H149273   6.178   0.627   5.096 -0.3182  2.2271  0.5606
 9286TIP3    H249274   6.214   0.552   5.222  0.1811 -0.5022 -1.1392
 9287TIP3   OH249275   4.948   1.961  10.838 -0.0650 -0.0996 -0.1359
 9287TIP3    H149276   4.868   2.000  10.801 -1.4359 -2.7280 -0.1373
 9287TIP3    H249277   4.917   1.899  10.903  1.8806 -2.2625 -1.1449
 9288TIP3   OH249278   0.796   1.859  14.442  0.3634  0.5099  0.0660
 9288TIP3    H149279   0.757   1.774  14.462  0.6094  0.1786 -0.7820
 9288TIP3    H249280   0.721   1.914  14.419  0.1286  0.7613  1.3684
 9289TIP3   OH249281   5.422   2.873  14.373 -0.3224  0.1632  0.1118
 9289TIP3    H149282   5.434   2.910  14.286 -1.6525  0.6247  0.0980
 9289TIP3    H249283   5.399   2.947  14.428 -1.7243 -0.4273  0.3675
 9290TIP3   OH249284   1.799   1.020  11.708  0.5263  0.6236  0.0863
 9290TIP3    H149285   1.857   0.966  11.762 -0.7590 -2.1721 -1.1249
 9290TIP3    H249286   1.846   1.032  11.626  1.0779  1.9847  0.5753
 9291TIP3   OH249287   2.980   6.515   0.558  0.4889 -0.0781 -0.8645
 9291TIP3    H149288   3.068   6.553   0.566  0.1143  0.6044  0.1985
 9291TIP3    H249289   2.940   6.562   0.485  0.6217  0.3690 -0.6502
 9292TIP3   OH249290   3.157   2.169   0.805  0.1589 -0.4891  0.4217
 9292TIP3    H149291   3.242   2.205   0.779  1.0691 -1.4783  1.8699
 9292TIP3    H249292   3.176   2.077   0.825 -0.3544  0.1389  4.5238
 9293TIP3   OH249293   0.333   0.491   0.953  0.2499  0.3077  0.0951
 9293TIP3    H149294   0.277   0.492   0.876 -1.4105  1.4837  1.2244
 9293TIP3    H249295   0.422   0.493   0.919 -0.4224  0.5267 -1.7697
 9294TIP3   OH249296   5.021   2.323  13.187 -0.5885  0.4831 -0.0460
 9294TIP3    H149297   5.080   2.267  13.137 -2.0288  0.9647 -2.4533
 9294TIP3    H249298   4.982   2.265  13.253  1.3354 -0.1855  0.5857
 9295TIP3   OH249299   4.928   0.055  15.943  0.4173  0.2355  0.0375
 9295TIP3    H149300   4.834   0.055  15.960  0.1961  2.1381 -0.9040
 9295TIP3    H249301   4.953  -0.037  15.945 -1.1392 -0.2207  1.9491
 9296TIP3   OH249302   1.932   0.175   2.144  0.1896 -0.0350  0.3165
 9296TIP3    H149303   1.874   0.162   2.219 -0.7714 -0.0211 -0.4045
 9296TIP3    H249304   1.881   0.146   2.069  1.2367 -0.3061 -0.3180
 9297TIP3   OH249305   4.696   3.261   0.522 -0.4210 -0.2312 -0.7144
 9297TIP3    H149306   4.787   3.269   0.493 -0.4152  0.1189 -0.6127
 9297TIP3    H249307   4.702   3.248   0.616 -0.4569 -0.8482 -0.7970
 9298TIP3   OH249308   3.195   6.110   4.516 -0.2196 -0.6834 -0.7192
 9298TIP3    H149309   3.107   6.115   4.480 -0.6765 -1.3478  0.2704
 9298TIP3    H249310   3.189   6.153   4.601  1.1019  1.9107 -1.7989
 9299TIP3   OH249311   6.199   4.164  16.020  0.1821 -0.3127 -0.1454
 9299TIP3    H149312   6.215   4.209  16.103 -0.9259  0.1525 -0.1704
 9299TIP3    H249313   6.200   4.233  15.954 -0.6759 -0.4340 -0.2937
 9300TIP3   OH249314   3.225   3.900  14.313  0.2190  0.1649  0.0198
 9300TIP3    H149315   3.203   3.953  14.236 -0.0157  0.0253 -0.0112
 9300TIP3    H249316   3.310   3.863  14.293 -0.2780 -0.6742 -0.6050
 9301TIP3   OH249317   5.983   5.916   0.034  0.3995  0.6023 -0.0729
 9301TIP3    H149318   5.931   5.848  -0.008  0.7381  0.5106 -0.3466
 9301TIP3    H249319   6.070   5.908  -0.005  0.2373  1.7292 -0.7078
 9302TIP3   OH249320   2.264   5.162  15.982 -0.1480 -0.2813  0.6576
 9302TIP3    H149321   2.257   5.227  15.912 -0.5158 -0.3200  0.6572
 9302TIP3    H249322   2.345   5.114  15.962 -0.2405 -0.2796  0.2702
 9303TIP3   OH249323   0.081   3.738  14.555 -0.0140  0.1074  0.0524
 9303TIP3    H149324  -0.001   3.689  14.560 -1.3340  1.9533 -1.5619
 9303TIP3    H249325   0.094   3.772  14.643 -1.3568  0.3051  0.1965
 9304TIP3   OH249326   5.856   4.953  13.491 -0.4146 -0.5242 -0.1299
 9304TIP3    H149327   5.926   5.010  13.461  1.1059 -1.6667  1.0931
 9304TIP3    H249328   5.842   4.892  13.418 -1.7313  1.0319 -1.2535
 9305TIP3   OH249329   4.555   6.034   0.269  0.4004  0.2678  0.7713
 9305TIP3    H149330   4.592   5.979   0.338 -0.5171 -0.9392  0.3405
 9305TIP3    H249331   4.628   6.089   0.241  1.1846 -0.2830  1.6628
 9306TIP3   OH249332   2.606   2.218  14.099  0.1815 -0.1189 -0.2462
 9306TIP3    H149333   2.669   2.168  14.150  0.8027  1.0608  0.1870
 9306TIP3    H249334   2.623   2.194  14.008  0.9703 -0.1337 -0.1001
 9307TIP3   OH249335   4.584   5.983  12.114  0.7619  0.4179 -0.0914
 9307TIP3    H149336   4.570   5.897  12.077  0.4154 -0.2050  1.4193
 9307TIP3    H249337   4.496   6.019  12.128  0.8956  0.8655 -0.3674
 9308TIP3   OH249338   6.032   1.967  16.422  0.1397 -0.1570 -0.0830
 9308TIP3    H149339   6.021   1.981  16.328 -2.1865  1.0807  0.3188
 9308TIP3    H249340   6.053   1.874  16.429 -0.8732 -0.5642 -1.7687
 9309TIP3   OH249341   1.171   1.701   3.850  0.3435 -0.0985 -0.2439
 9309TIP3    H149342   1.207   1.631   3.795  1.8836  1.2613 -1.0556
 9309TIP3    H249343   1.217   1.692   3.933  1.8861  0.9684 -0.9260
 9310TIP3   OH249344   4.693   1.830  11.501  0.5490 -0.2571  0.2009
 9310TIP3    H149345   4.726   1.872  11.422  2.2180  0.1587  1.0719
 9310TIP3    H249346   4.639   1.757  11.470  0.4915  0.3995 -1.3041
 9311TIP3   OH249347   2.013   5.980  11.641 -0.5188 -1.1233 -0.4308
 9311TIP3    H149348   1.952   5.948  11.708  0.6643 -1.1319  0.6727
 9311TIP3    H249349   2.085   6.019  11.690 -1.0337  1.6775 -1.7165
 9312TIP3   OH249350   0.346   2.037   1.080 -0.0101 -0.4853 -0.7231
 9312TIP3    H149351   0.324   1.960   1.132  0.1391 -0.3812 -0.5044
 9312TIP3    H249352   0.271   2.095   1.090 -0.4723 -0.9276 -1.5266
 9313TIP3   OH249353   1.194   4.449   4.582  0.2252 -0.6448 -0.1950
 9313TIP3    H149354   1.102   4.440   4.606  0.6845 -1.1418  1.4860
 9313TIP3    H249355   1.238   4.380   4.630  2.0616  2.1254  2.4434
 9314TIP3   OH249356   2.477   4.495   4.001 -0.1250  0.5954 -0.1330
 9314TIP3    H149357   2.535   4.564   4.031 -0.9165  1.0006  0.4918
 9314TIP3    H249358   2.397   4.540   3.974 -0.2351  0.0280 -0.7822
 9315TIP3   OH249359   6.230   6.723  15.914  0.2030 -0.1016  0.3671
 9315TIP3    H149360   6.153   6.668  15.931  0.1147 -1.8301 -4.2312
 9315TIP3    H249361   6.304   6.665  15.927  0.4919  0.3787  0.8941
 9316TIP3   OH249362   5.306   5.937  14.817  0.0143 -0.4844 -0.0474
 9316TIP3    H149363   5.358   5.926  14.897  0.0633  0.6818  0.0946
 9316TIP3    H249364   5.264   5.852  14.805  0.6305 -0.9255  0.7754
 9317TIP3   OH249365   0.715   4.900  11.513  0.0067 -0.1729 -0.1001
 9317TIP3    H149366   0.781   4.969  11.504 -1.7014  1.4011 -1.4928
 9317TIP3    H249367   0.688   4.905  11.604  0.8854  0.0434  0.1574
 9318TIP3   OH249368   2.450   1.333   5.273  0.0932  0.1191  0.5954
 9318TIP3    H149369   2.445   1.314   5.179 -1.7313 -0.5176  0.7839
 9318TIP3    H249370   2.361   1.356   5.297  0.0975 -1.6395  2.5664
 9319TIP3   OH249371   3.340   4.098  12.002 -0.2857 -0.2262 -0.1546
 9319TIP3    H149372   3.435   4.086  12.003 -0.0490  1.4793 -0.0247
 9319TIP3    H249373   3.318   4.126  12.091 -1.0790 -1.5326  0.0992
 9320TIP3   OH249374   3.206   1.811  15.073 -0.0925 -0.6108 -0.5083
 9320TIP3    H149375   3.298   1.801  15.050 -0.6794  1.3768 -4.6538
 9320TIP3    H249376   3.160   1.751  15.014 -1.5655  1.0348 -1.1253
 9321TIP3   OH249377   4.780   6.539  13.288 -0.2403 -0.0558  0.3579
 9321TIP3    H149378   4.705   6.570  13.339  0.4750  2.0565  0.2234
 9321TIP3    H249379   4.756   6.558  13.198  1.1265  2.3929  0.4267
 9322TIP3   OH249380   4.720   6.303  11.532  0.1700  0.0721 -0.3524
 9322TIP3    H149381   4.723   6.323  11.626  0.0327 -0.8731 -0.1363
 9322TIP3    H249382   4.793   6.353  11.495  1.6306 -1.2450  0.6122
 9323TIP3   OH249383   1.733   0.652   5.303 -0.6003 -0.1719  0.1936
 9323TIP3    H149384   1.653   0.608   5.330 -0.5030 -0.0556  0.6803
 9323TIP3    H249385   1.791   0.581   5.276 -1.4051 -0.1719 -1.6971
 9324TIP3   OH249386   4.048   1.286  11.148  0.0306 -0.1441  0.0175
 9324TIP3    H149387   3.956   1.263  11.140  0.1908 -3.1696  3.8874
 9324TIP3    H249388   4.084   1.275  11.060 -2.9206 -0.5369 -1.2459
 9325TIP3   OH249389   3.823   1.562  14.381  0.2666  0.1914 -0.3530
 9325TIP3    H149390   3.832   1.522  14.468  1.8865  1.2715  0.0265
 9325TIP3    H249391   3.902   1.615  14.371 -0.8972  1.7748 -1.6151
 9326TIP3   OH249392   2.388   4.539  14.692 -1.1452 -0.0667 -0.4204
 9326TIP3    H149393   2.448   4.535  14.617 -1.1478 -0.7480 -0.3856
 9326TIP3    H249394   2.336   4.459  14.685 -1.7994  0.3401 -0.2346
 9327TIP3   OH249395   4.598   6.108  14.812  0.2200  0.2419  1.0673
 9327TIP3    H149396   4.564   6.174  14.873 -0.3614  0.2641  0.7250
 9327TIP3    H249397   4.604   6.028  14.865  0.2972  0.4057  1.3101
 9328TIP3   OH249398   1.025   3.089  14.569 -0.0813  0.1498 -0.1730
 9328TIP3    H149399   0.954   3.106  14.631  0.9276  1.8842  0.5539
 9328TIP3    H249400   1.102   3.128  14.609  1.5081 -2.3233 -0.6004
 9329TIP3   OH249401   4.307   0.936   0.606  0.9517  0.3296  0.1856
 9329TIP3    H149402   4.381   0.911   0.662  2.3922  3.8144  0.1252
 9329TIP3    H249403   4.343   0.935   0.517 -0.2339 -1.4887 -0.3277
 9330TIP3   OH249404   0.078   0.948  11.642  0.1314 -0.2862 -0.3496
 9330TIP3    H149405   0.162   0.991  11.660 -0.3736  0.6989 -0.2423
 9330TIP3    H249406   0.072   0.946  11.547  0.2346 -0.2552 -0.3568
 9331TIP3   OH249407   2.295   6.679  16.844 -0.1012  0.6031  0.2750
 9331TIP3    H149408   2.201   6.696  16.847  0.0470  1.3454  1.0254
 9331TIP3    H249409   2.336   6.764  16.858  0.7107  0.5038 -1.3074
 9332TIP3   OH249410   1.587   6.508   1.851 -0.0917 -0.2863  0.1616
 9332TIP3    H149411   1.638   6.544   1.923 -0.9616  0.2488  0.5292
 9332TIP3    H249412   1.514   6.569   1.840  0.3482 -0.0031 -1.5829
 9333TIP3   OH249413   2.414   3.200   3.997  0.7668  0.3511 -0.2587
 9333TIP3    H149414   2.483   3.157   3.947 -0.2829 -0.3095 -1.1750
 9333TIP3    H249415   2.336   3.191   3.943 -0.0705  0.9866  0.8075
 9334TIP3   OH249416   0.950   1.979   4.731  0.0384 -0.0083  0.3605
 9334TIP3    H149417   0.952   2.074   4.738  0.9976  0.2662 -2.4469
 9334TIP3    H249418   0.884   1.961   4.664 -0.1608 -1.3460  0.8788
 9335TIP3   OH249419   6.081   6.230   1.977 -0.4683  0.0841 -0.4827
 9335TIP3    H149420   6.019   6.179   2.029  1.4581 -2.2549 -0.2817
 9335TIP3    H249421   6.084   6.185   1.893  0.8598  0.1916 -0.5153
 9336TIP3   OH249422   4.799   3.541  10.951  0.4904  0.5559  0.1296
 9336TIP3    H149423   4.841   3.466  10.909  0.1617 -0.2336  1.1563
 9336TIP3    H249424   4.861   3.568  11.018 -0.0154  0.2703  0.7240
 9337TIP3   OH249425   1.655   5.111  14.425  0.1259  0.2928  0.5629
 9337TIP3    H149426   1.699   5.147  14.502 -1.4853  0.5288  1.4157
 9337TIP3    H249427   1.679   5.019  14.425  2.0861  0.7643 -0.0720
 9338TIP3   OH249428   6.149   3.356  12.883 -0.0054 -0.2708  0.2047
 9338TIP3    H149429   6.136   3.412  12.960  0.7317  1.3240 -0.7781
 9338TIP3    H249430   6.187   3.276  12.918  0.6082  0.5354  1.4814
 9339TIP3   OH249431   6.443   1.424  13.226  0.0018  0.4824  0.1342
 9339TIP3    H149432   6.501   1.407  13.300  0.3459 -0.3286 -0.3017
 9339TIP3    H249433   6.357   1.441  13.265 -0.0898 -1.1085  0.6954
 9340TIP3   OH249434   0.609   3.954  14.074 -0.2626  0.1430  0.4376
 9340TIP3    H149435   0.699   3.985  14.069 -0.0926 -0.4173  0.0575
 9340TIP3    H249436   0.557   4.035  14.074  0.2553  0.4950  1.3465
 9341TIP3   OH249437   1.237   2.661  11.944  0.3887  0.3169  0.4131
 9341TIP3    H149438   1.231   2.757  11.936 -1.0450  0.1480 -1.1326
 9341TIP3    H249439   1.265   2.632  11.858 -0.6764 -0.7509  0.4072
 9342TIP3   OH249440   4.676   2.036  12.377 -0.4416  0.6493  0.4277
 9342TIP3    H149441   4.648   2.083  12.299  0.7782  0.2168 -0.2892
 9342TIP3    H249442   4.687   1.946  12.349 -1.3194  0.2035  1.4430
 9343TIP3   OH249443   5.317   4.535  16.601 -0.2528  0.6735 -0.5646
 9343TIP3    H149444   5.408   4.532  16.572 -0.4586  0.5882 -1.2261
 9343TIP3    H249445   5.273   4.468  16.549 -1.1019  2.0651 -1.7235
 9344TIP3   OH249446   0.445   0.556  14.891  0.3981  0.1721  0.1859
 9344TIP3    H149447   0.402   0.475  14.864  1.9001 -0.2801 -0.9690
 9344TIP3    H249448   0.441   0.612  14.813 -0.4658  1.1811  0.9140
 9345TIP3   OH249449   2.201   0.409   5.647  0.1132 -0.2525 -0.2654
 9345TIP3    H149450   2.219   0.410   5.553  1.0993  0.9834 -0.0820
 9345TIP3    H249451   2.178   0.499   5.668 -1.9735 -0.8515  0.3722
 9346TIP3   OH249452   6.281   4.157   3.359 -0.3253 -0.2396  0.9775
 9346TIP3    H149453   6.332   4.233   3.384 -1.0968  0.7302 -0.2625
 9346TIP3    H249454   6.345   4.086   3.353  1.2232  1.2281 -1.9270
 9347TIP3   OH249455   0.226   6.511  15.173  0.2423 -0.3605 -0.3314
 9347TIP3    H149456   0.314   6.480  15.194  0.5392  0.9115  0.4570
 9347TIP3    H249457   0.186   6.440  15.123  0.9113 -1.9496  1.2620
 9348TIP3   OH249458   1.360   3.646   1.412  0.0240  0.1958 -0.3667
 9348TIP3    H149459   1.454   3.652   1.393  0.1566 -0.8725 -0.1122
 9348TIP3    H249460   1.334   3.561   1.375 -0.8182  0.4384 -0.3393
 9349TIP3   OH249461   1.803   2.767   0.970 -0.4137  0.2681  0.3303
 9349TIP3    H149462   1.765   2.730   1.049 -1.4839 -0.3687 -0.4595
 9349TIP3    H249463   1.876   2.709   0.948  0.3296  0.8330  1.1986
 9350TIP3   OH249464   4.327   5.603  12.016 -0.4145 -0.2387 -0.0127
 9350TIP3    H149465   4.308   5.639  12.103 -0.3296 -0.5448  0.1304
 9350TIP3    H249466   4.307   5.510  12.023 -2.7753  0.1233 -0.9930
 9351TIP3   OH249467   0.584   0.223   2.752 -0.2776  0.1653  0.7159
 9351TIP3    H149468   0.626   0.210   2.667 -1.5045  0.5284  0.0273
 9351TIP3    H249469   0.564   0.135   2.783  0.4172  0.0210  0.7530
 9352TIP3   OH249470   3.711   1.253  12.278 -0.0652  0.4934 -0.2471
 9352TIP3    H149471   3.730   1.168  12.317  1.1442 -0.3772 -2.5563
 9352TIP3    H249472   3.779   1.311  12.311  0.7559 -0.1469 -0.7967
 9353TIP3   OH249473   4.291   5.098  12.450 -0.3792  0.1112 -0.9735
 9353TIP3    H149474   4.293   5.194  12.443 -0.5455  0.2034  0.1176
 9353TIP3    H249475   4.368   5.076  12.501  0.3519 -0.4641 -2.2678
 9354TIP3   OH249476   2.178   6.041  15.215 -0.1372  0.1191 -0.0864
 9354TIP3    H149477   2.202   6.051  15.307  0.8292 -0.4256 -0.2557
 9354TIP3    H249478   2.085   6.063  15.211  0.1460  1.5847  0.7648
 9355TIP3   OH249479   2.385   0.239  11.796 -0.0922  0.5301 -0.9052
 9355TIP3    H149480   2.401   0.327  11.831 -0.9365  0.8263 -1.2365
 9355TIP3    H249481   2.456   0.186  11.832  0.2579  1.2790 -0.4557
 9356TIP3   OH249482   1.370   5.377  12.280  0.4049  0.0136 -0.0804
 9356TIP3    H149483   1.437   5.430  12.322 -0.1157 -0.0719  0.8962
 9356TIP3    H249484   1.297   5.438  12.265  0.0948 -0.2444  0.3477
 9357TIP3   OH249485   6.685   3.684   4.675  0.1041 -0.1026  0.3528
 9357TIP3    H149486   6.665   3.734   4.755  0.9577  0.2782  0.3363
 9357TIP3    H249487   6.683   3.748   4.605  2.2741  0.1756  0.4666
 9358TIP3   OH249488   6.156   5.001   3.442 -0.1873 -0.0149 -0.5909
 9358TIP3    H149489   6.101   5.008   3.364  0.7530  0.3032 -1.2566
 9358TIP3    H249490   6.154   5.088   3.481 -2.6029 -0.7695  1.1590
 9359TIP3   OH249491   5.235   3.583   1.394 -0.2480  0.3081  0.6646
 9359TIP3    H149492   5.268   3.546   1.312  1.7908  1.8002  0.7381
 9359TIP3    H249493   5.283   3.536   1.462 -1.1805 -0.1940  1.0065
 9360TIP3   OH249494   1.220   2.311  14.255 -0.6127  0.1883 -0.2560
 9360TIP3    H149495   1.135   2.340  14.222  0.6951 -0.1487 -4.5563
 9360TIP3    H249496   1.250   2.246  14.191  2.8099  0.2230  1.0951
 9361TIP3   OH249497   4.182   1.237  12.676 -0.1104  0.5483  0.4495
 9361TIP3    H149498   4.125   1.302  12.716 -0.9432  0.5376 -0.6837
 9361TIP3    H249499   4.204   1.273  12.590 -0.9240 -0.8082 -0.3763
 9362TIP3   OH249500   0.933   0.620  11.209  0.4004 -0.5784  0.3310
 9362TIP3    H149501   1.001   0.672  11.166  0.2872 -0.2285  0.5702
 9362TIP3    H249502   0.963   0.530  11.200  0.6429 -0.4672 -0.0135
 9363TIP3   OH249503   4.302   3.409   2.011 -0.6866  0.4788 -0.7442
 9363TIP3    H149504   4.298   3.450   1.924 -0.2302 -1.0673 -1.5161
 9363TIP3    H249505   4.331   3.320   1.995 -1.8081 -0.2236  0.8996
 9364TIP3   OH249506   3.821   2.131  13.467 -0.4553  0.8308 -0.2465
 9364TIP3    H149507   3.863   2.170  13.391  0.9492  1.6293  0.8874
 9364TIP3    H249508   3.891   2.124  13.532 -1.8269  1.0886  1.3196
 9365TIP3   OH249509   4.378   3.314  13.368  0.7204  0.1772 -0.1452
 9365TIP3    H149510   4.379   3.221  13.349  0.3627  0.2716 -0.6563
 9365TIP3    H249511   4.444   3.326  13.436 -1.4705 -0.9461  2.3245
 9366TIP3   OH249512   4.794   5.387   2.285  0.4592 -0.0278  0.8843
 9366TIP3    H149513   4.833   5.305   2.254 -0.9139 -0.4265  0.1194
 9366TIP3    H249514   4.812   5.387   2.379  0.3078 -1.3300  0.9404
 9367TIP3   OH249515   0.799   3.083  16.338 -0.2237  0.2317 -0.0836
 9367TIP3    H149516   0.847   3.001  16.327  1.2517  0.5956  2.7540
 9367TIP3    H249517   0.799   3.123  16.251  0.6228 -1.9037 -1.1354
 9368TIP3   OH249518   6.147   0.038   3.006 -0.1182  0.4232  0.2095
 9368TIP3    H149519   6.063  -0.003   2.986 -0.3654  0.7795  0.5083
 9368TIP3    H249520   6.128   0.132   3.011  0.5776  0.6688 -1.2168
 9369TIP3   OH249521   1.571   0.470  12.972  0.1348 -0.5167 -0.1281
 9369TIP3    H149522   1.662   0.474  12.942 -0.4484 -0.2231 -2.0387
 9369TIP3    H249523   1.556   0.377  12.991 -0.2643 -1.3629 -3.8214
 9370TIP3   OH249524   2.276   5.279  15.250  0.2954  0.9341  0.1217
 9370TIP3    H149525   2.184   5.299  15.236  0.2361  1.0480  0.6394
 9370TIP3    H249526   2.276   5.215  15.322  0.7024  2.3872  1.4783
 9371TIP3   OH249527   5.998   4.484   5.091 -0.1607  0.3086 -0.1861
 9371TIP3    H149528   5.938   4.559   5.091  0.4606  0.8183 -0.0722
 9371TIP3    H249529   5.955   4.419   5.146  0.4322  1.5661  1.8854
 9372TIP3   OH249530   0.641   4.792   2.091 -0.0155 -0.1237 -0.2807
 9372TIP3    H149531   0.641   4.881   2.125  0.5256 -0.3457  0.3268
 9372TIP3    H249532   0.549   4.772   2.075 -0.3359 -0.1258  1.3901
 9373TIP3   OH249533   4.368   6.331  13.333 -0.2409  0.1023 -0.0809
 9373TIP3    H149534   4.458   6.356  13.357  0.6293 -1.5914 -1.3398
 9373TIP3    H249535   4.312   6.386  13.388  1.5660  0.9337  1.0150
 9374TIP3   OH249536   2.177   1.026   4.729 -0.6206 -0.1104  0.6782
 9374TIP3    H149537   2.175   1.031   4.633  0.9957  0.2080  0.6252
 9374TIP3    H249538   2.202   0.936   4.748  0.8198  0.2568  0.7071
 9375TIP3   OH249539   5.224   0.438  13.877 -0.3918 -0.1903 -0.2571
 9375TIP3    H149540   5.283   0.498  13.831  1.3424 -1.2391  0.4752
 9375TIP3    H249541   5.169   0.494  13.931  0.4194  0.8079 -0.4366
 9376TIP3   OH249542   4.746   5.971  10.255 -0.7568 -0.1260  0.1175
 9376TIP3    H149543   4.780   6.061  10.253 -0.8831 -0.0911 -1.5313
 9376TIP3    H249544   4.667   5.977  10.309 -0.9834  0.8365 -0.3010
 9377TIP3   OH249545   0.017   1.634  13.194  0.2290  0.0598  0.4119
 9377TIP3    H149546  -0.036   1.641  13.274 -0.9978 -2.0785 -0.1531
 9377TIP3    H249547  -0.039   1.589  13.131  1.5878  0.6584 -1.3171
 9378TIP3   OH249548   3.733   1.509  15.287  0.2516 -0.1529 -0.5501
 9378TIP3    H149549   3.679   1.588  15.291  1.9021  1.0330 -0.6960
 9378TIP3    H249550   3.793   1.525  15.214  0.7644 -1.4698 -0.4445
 9379TIP3   OH249551   2.581   2.627   2.974 -0.1947 -0.2635  0.5117
 9379TIP3    H149552   2.516   2.696   2.984  0.1843  0.0377  0.9323
 9379TIP3    H249553   2.625   2.622   3.058 -0.6914 -1.5189  0.7268
 9380TIP3   OH249554   6.169   3.925   0.018 -0.0433 -0.2819  0.4177
 9380TIP3    H149555   6.236   3.977   0.063 -0.1074  0.5073 -0.3778
 9380TIP3    H249556   6.182   3.836   0.051  1.7137 -0.2416 -0.0554
 9381TIP3   OH249557   3.236   5.364  11.761 -0.1211  0.1943  0.2763
 9381TIP3    H149558   3.172   5.320  11.704 -0.5590 -0.7176  1.4111
 9381TIP3    H249559   3.321   5.340  11.724 -0.3281 -1.9932  1.0525
 9382TIP3   OH249560   3.484   2.382   3.633 -0.7390  0.3718 -0.3363
 9382TIP3    H149561   3.562   2.331   3.610 -1.8222 -3.0573  2.6406
 9382TIP3    H249562   3.517   2.456   3.684  0.6754 -1.7937  2.1298
 9383TIP3   OH249563   6.122   0.636  11.229  0.5990  0.3939 -0.0053
 9383TIP3    H149564   6.143   0.631  11.135 -1.0352 -0.6498 -0.3498
 9383TIP3    H249565   6.033   0.603  11.235  0.3387  1.3393  1.8220
 9384TIP3   OH249566   0.611   5.380   0.123  0.0114  0.6321  0.0096
 9384TIP3    H149567   0.637   5.375   0.031  0.4049 -2.2285  0.1882
 9384TIP3    H249568   0.582   5.291   0.145  0.1090  1.1734  2.6954
 9385TIP3   OH249569   5.390   3.029   0.710  0.2099 -0.0056 -0.7177
 9385TIP3    H149570   5.364   3.117   0.685 -0.4227 -0.5859 -2.2044
 9385TIP3    H249571   5.386   3.029   0.806 -1.9620  0.9321 -0.7617
 9386TIP3   OH249572   6.480   3.446  15.173  0.1305 -0.2305 -0.2656
 9386TIP3    H149573   6.566   3.413  15.149 -0.3111 -0.8793 -0.9771
 9386TIP3    H249574   6.435   3.370  15.211 -1.1694 -0.7237 -2.6189
 9387TIP3   OH249575   4.236   5.608   6.434 -0.2507  0.5298  0.8811
 9387TIP3    H149576   4.307   5.668   6.411  0.9055 -0.4888  1.6263
 9387TIP3    H249577   4.269   5.522   6.407 -2.6487  0.3575 -1.9575
 9388TIP3   OH249578   3.018   5.632   1.076 -0.0020 -0.0982  0.6460
 9388TIP3    H149579   3.041   5.563   1.012 -0.3725 -0.2688  0.6910
 9388TIP3    H249580   3.045   5.596   1.160  0.9306  0.3297  0.5376
 9389TIP3   OH249581   4.966   0.922   5.757 -0.3849  0.7456 -0.2667
 9389TIP3    H149582   5.024   0.872   5.814  0.0099  1.8695  0.3509
 9389TIP3    H249583   4.878   0.894   5.783 -0.1583 -0.6168 -0.8806
 9390TIP3   OH249584   2.931   4.262   0.398 -0.6993 -0.2153 -0.4281
 9390TIP3    H149585   2.914   4.185   0.344  0.1910  1.2793 -3.0020
 9390TIP3    H249586   3.026   4.262   0.411 -0.9542 -1.0449  2.0833
 9391TIP3   OH249587   5.227   1.811  17.119 -0.2586  0.1719  0.4931
 9391TIP3    H149588   5.296   1.866  17.082 -0.2687  0.7749  1.3535
 9391TIP3    H249589   5.273   1.733  17.150 -0.2932 -0.5007 -1.0607
 9392TIP3   OH249590   1.828   5.723  13.729  0.3792  0.4863  0.2343
 9392TIP3    H149591   1.920   5.703  13.747  0.5187  1.5530  0.7808
 9392TIP3    H249592   1.828   5.763  13.642  0.4442  0.5600  0.2684
 9393TIP3   OH249593   2.923   0.860   5.805  0.2233 -0.7053  0.0263
 9393TIP3    H149594   3.018   0.857   5.794  0.1426 -0.4031 -0.7826
 9393TIP3    H249595   2.891   0.915   5.733 -0.5793 -0.9101  0.2075
 9394TIP3   OH249596   5.795   4.177  12.278 -0.2762 -0.4531 -0.0621
 9394TIP3    H149597   5.845   4.258  12.269  0.8627 -1.3353 -3.4953
 9394TIP3    H249598   5.859   4.108  12.257 -1.2873 -2.2594  2.4048
 9395TIP3   OH249599   6.173   4.593  16.881 -0.2398 -0.0621 -0.5669
 9395TIP3    H149600   6.107   4.648  16.838  0.3667  0.9920 -0.2071
 9395TIP3    H249601   6.251   4.649  16.885  1.1027 -1.6941 -2.1272
 9396TIP3   OH249602   4.141   4.017   4.371  0.3185  0.2760 -0.1458
 9396TIP3    H149603   4.132   4.077   4.445 -2.4073  0.9712 -0.9123
 9396TIP3    H249604   4.066   3.957   4.379 -0.0044  0.3218 -2.2343
 9397TIP3   OH249605   3.864   0.807  12.356  0.8658 -0.3633  0.1903
 9397TIP3    H149606   3.940   0.755  12.383  0.0783 -1.3345  0.5790
 9397TIP3    H249607   3.798   0.742  12.331 -0.3437  0.4292  1.2150
 9398TIP3   OH249608   1.650   4.787   4.659  0.1106 -0.2865 -0.0812
 9398TIP3    H149609   1.664   4.881   4.661 -0.5069 -0.1934 -0.0946
 9398TIP3    H249610   1.640   4.762   4.751  3.3318 -0.8256  0.2353
 9399TIP3   OH249611   0.200   3.980  14.060  0.8587 -0.1836 -0.5869
 9399TIP3    H149612   0.138   3.939  14.121  0.7754  0.1697 -0.4330
 9399TIP3    H249613   0.271   4.013  14.116  0.0205  1.5550 -0.4966
 9400TIP3   OH249614   0.869   2.676  11.570 -0.3907 -0.3827  0.0457
 9400TIP3    H149615   0.787   2.651  11.528 -0.3899 -0.6311  0.1921
 9400TIP3    H249616   0.934   2.615  11.536 -0.9418 -2.6037  2.6477
 9401TIP3   OH249617   0.593   5.603  12.905 -0.0276  0.7095 -0.0030
 9401TIP3    H149618   0.546   5.570  12.981 -0.3982  0.1928 -0.4452
 9401TIP3    H249619   0.531   5.661  12.862 -0.1533  0.2803 -0.4109
 9402TIP3   OH249620   4.930   1.172   0.279  0.0778 -0.0071 -0.4582
 9402TIP3    H149621   5.022   1.148   0.280  0.0650 -0.0512 -0.3501
 9402TIP3    H249622   4.891   1.121   0.351 -0.5570 -2.0974 -2.1567
 9403TIP3   OH249623   1.177   6.652  13.495 -0.1655  0.1709 -0.6822
 9403TIP3    H149624   1.168   6.557  13.492 -0.7640  0.2534 -2.1090
 9403TIP3    H249625   1.265   6.669  13.463 -0.4424  0.1379 -1.4868
 9404TIP3   OH249626   5.435   0.185  17.040  0.4319  0.5201  0.3394
 9404TIP3    H149627   5.488   0.119  17.085 -0.0639 -0.2427 -0.1718
 9404TIP3    H249628   5.489   0.214  16.966  0.8151  0.9967  0.7977
 9405TIP3   OH249629   3.971   4.074  10.898 -0.2403 -0.1290  1.1251
 9405TIP3    H149630   3.905   4.138  10.871  1.4724  0.6087 -1.7223
 9405TIP3    H249631   3.947   3.994  10.851 -0.5255 -0.6412  2.1167
 9406TIP3   OH249632   6.634   2.331   5.121 -0.0069 -0.3108  0.2850
 9406TIP3    H149633   6.662   2.274   5.193  0.4467 -2.8496 -1.7867
 9406TIP3    H249634   6.637   2.276   5.043 -1.0618  2.1583 -1.6463
 9407TIP3   OH249635   3.416   5.098  14.717 -0.1780 -0.1106 -0.0234
 9407TIP3    H149636   3.372   5.024  14.676  0.8157  0.0189 -1.3841
 9407TIP3    H249637   3.399   5.087  14.811  0.0482 -2.1214 -0.1804
 9408TIP3   OH249638   4.508   1.399   0.385 -0.2519  0.0544 -0.1691
 9408TIP3    H149639   4.448   1.472   0.367  0.5552  0.2349 -2.4631
 9408TIP3    H249640   4.570   1.433   0.449 -1.4413  0.4699  0.8034
 9409TIP3   OH249641   1.595   4.530  11.567 -0.6324  0.2185 -0.7252
 9409TIP3    H149642   1.663   4.588  11.603 -1.9303 -0.2466  2.9927
 9409TIP3    H249643   1.543   4.587  11.510  0.3377  1.7511 -0.1665
 9410TIP3   OH249644   0.279   6.545   3.291 -0.3261  0.4525 -0.1346
 9410TIP3    H149645   0.366   6.569   3.259  0.1238 -0.6719  0.1868
 9410TIP3    H249646   0.296   6.482   3.361 -1.4415 -1.7004 -1.7015
 9411TIP3   OH249647   1.902   0.072  17.022 -0.2338 -0.2275 -0.0252
 9411TIP3    H149648   1.972   0.100  16.963 -0.1717 -0.3532 -0.0122
 9411TIP3    H249649   1.943   0.071  17.109 -0.6163  1.0348  0.1855
 9412TIP3   OH249650   4.026   0.701  11.552  0.9460  0.6007  0.4878
 9412TIP3    H149651   4.051   0.618  11.511 -0.4910  0.2779  0.2186
 9412TIP3    H249652   4.096   0.761  11.527  0.6941  0.1294 -1.5163
 9413TIP3   OH249653   5.602   2.064   5.896 -0.0976 -0.1006  0.2295
 9413TIP3    H149654   5.540   2.118   5.945  2.2509  0.9555  2.2544
 9413TIP3    H249655   5.642   2.008   5.962  1.3255 -0.5179 -0.9381
 9414TIP3   OH249656   3.217   5.503   5.535 -0.0359 -0.0633  0.0684
 9414TIP3    H149657   3.287   5.455   5.579  0.7146  0.8745 -0.0794
 9414TIP3    H249658   3.256   5.586   5.510 -1.2986  0.6275  0.2737
 9415TIP3   OH249659   2.263   5.948  11.073  0.3380  0.1551  0.0548
 9415TIP3    H149660   2.302   6.034  11.091 -1.7175  1.6676 -2.0149
 9415TIP3    H249661   2.174   5.968  11.046 -0.2893 -2.7060 -0.2899
 9416TIP3   OH249662   6.683   6.385  15.303  0.2579 -0.3868  0.6056
 9416TIP3    H149663   6.704   6.302  15.345 -0.6548 -0.6403  0.5696
 9416TIP3    H249664   6.602   6.414  15.344 -0.8562 -0.8102 -1.1884
 9417TIP3   OH249665   3.699   0.485   3.507  0.0022 -0.8039  0.4807
 9417TIP3    H149666   3.728   0.429   3.435 -2.2379 -1.7164  0.1891
 9417TIP3    H249667   3.617   0.445   3.537  0.2158  0.2824  2.7138
 9418TIP3   OH249668   0.648   5.375   4.778 -0.2994  0.0510  0.4160
 9418TIP3    H149669   0.638   5.362   4.873 -0.5320  0.4887  0.4567
 9418TIP3    H249670   0.573   5.430   4.754  1.2929  2.4286  0.5269
 9419TIP3   OH249671   3.268   5.440  12.703  0.0107 -0.2472  0.0471
 9419TIP3    H149672   3.342   5.380  12.693 -1.3290 -2.0222  0.2598
 9419TIP3    H249673   3.211   5.397  12.768 -0.7769  1.5148  0.5818
 9420TIP3   OH249674   6.210   4.151   5.177  0.1975  0.1198 -0.4306
 9420TIP3    H149675   6.169   4.077   5.222 -0.6544 -0.7633 -2.4788
 9420TIP3    H249676   6.282   4.111   5.127  0.7858  0.9685 -0.2842
 9421TIP3   OH249677   6.240   0.453   3.490 -0.2780 -0.3915 -0.4107
 9421TIP3    H149678   6.323   0.422   3.527 -0.0865  0.0185 -0.4889
 9421TIP3    H249679   6.255   0.546   3.472 -1.7307  0.4790  2.3981
 9422TIP3   OH249680   0.133   0.539  14.553 -0.0444  0.2503  0.1246
 9422TIP3    H149681   0.053   0.557  14.504  0.0900 -2.0819 -1.0745
 9422TIP3    H249682   0.195   0.507  14.487  2.0225  2.2169  0.9640
 9423TIP3   OH249683   5.470   3.587   6.422  0.5092  0.7323 -0.1001
 9423TIP3    H149684   5.485   3.598   6.516  2.1973 -1.7003 -0.0071
 9423TIP3    H249685   5.384   3.545   6.417  1.0339 -0.4823  0.5104
 9424TIP3   OH249686   4.695   1.172   1.534 -0.4743  0.0435 -0.5009
 9424TIP3    H149687   4.751   1.240   1.495  0.5605 -0.5743 -0.1382
 9424TIP3    H249688   4.630   1.154   1.466 -0.2453  0.7919 -0.9374
 9425TIP3   OH249689   1.155   2.909   3.222 -0.3090  0.1166  0.6020
 9425TIP3    H149690   1.067   2.880   3.243 -0.8695  0.3967 -1.2398
 9425TIP3    H249691   1.212   2.840   3.257 -1.3692 -1.1165 -0.0211
 9426TIP3   OH249692   4.378   2.167   3.374  0.3573 -0.0641  0.1858
 9426TIP3    H149693   4.304   2.224   3.396  0.1233 -0.8521  1.5528
 9426TIP3    H249694   4.455   2.222   3.386  0.0311  0.9823 -1.9311
 9427TIP3   OH249695   0.493   1.634  13.745 -0.1283  0.1951 -0.4437
 9427TIP3    H149696   0.564   1.616  13.683 -0.2420  2.4445 -1.3359
 9427TIP3    H249697   0.537   1.660  13.826  0.0559  0.0709 -0.5030
 9428TIP3   OH249698   2.567   0.012   2.637 -0.4194 -0.0160 -0.2672
 9428TIP3    H149699   2.588   0.058   2.555  1.0786  1.7218  1.0222
 9428TIP3    H249700   2.478   0.040   2.658 -0.3709  0.4826 -0.6971
 9429TIP3   OH249701   2.267   4.219  11.624  0.4646 -0.1102 -0.2000
 9429TIP3    H149702   2.347   4.246  11.579  0.2411  0.6805 -0.1519
 9429TIP3    H249703   2.225   4.302  11.648 -0.3154 -0.5186 -0.1350
 9430TIP3   OH249704   3.240   4.989   1.418 -0.2497 -0.1090  0.3082
 9430TIP3    H149705   3.282   4.937   1.486 -1.1541  0.2237  1.1420
 9430TIP3    H249706   3.150   5.000   1.448 -0.6347  0.1560 -0.8833
 9431TIP3   OH249707   0.688   1.015  13.140 -0.0053  0.0605 -0.6083
 9431TIP3    H149708   0.647   1.028  13.226 -0.4577 -0.0456 -0.8080
 9431TIP3    H249709   0.616   0.993  13.082  0.3948 -0.5749 -0.8714
 9432TIP3   OH249710   3.068   4.149  12.480  0.3840  0.0096  0.0687
 9432TIP3    H149711   3.014   4.210  12.430  0.1166 -1.3667 -1.3668
 9432TIP3    H249712   3.039   4.062  12.454 -0.3320 -0.8515  3.2243
 9433TIP3   OH249713   3.883   6.034  12.893  0.5311 -0.4794 -0.0785
 9433TIP3    H149714   3.790   6.032  12.870  0.7595 -1.0718 -1.0367
 9433TIP3    H249715   3.927   6.053  12.810  1.4008 -2.6044 -0.1648
 9434TIP3   OH249716   2.040   2.656   5.396 -0.3858  0.2028  0.3403
 9434TIP3    H149717   2.114   2.643   5.337 -0.6442  0.2473 -0.0003
 9434TIP3    H249718   2.076   2.703   5.471 -0.2962  1.2826 -0.3542
 9435TIP3   OH249719   0.061   0.251   4.020 -0.5951 -0.4200 -0.0657
 9435TIP3    H149720  -0.033   0.268   4.007 -0.4805  0.8916  0.6565
 9435TIP3    H249721   0.082   0.297   4.101  0.3093 -2.1631  0.7377
 9436TIP3   OH249722   1.655   2.606   5.557  0.5988  0.2544 -0.6101
 9436TIP3    H149723   1.620   2.693   5.577 -0.3178  0.1358 -1.6064
 9436TIP3    H249724   1.608   2.547   5.615 -1.3359  0.0337 -2.2594
 9437TIP3   OH249725   0.161   3.957  11.242  0.0585  0.1776 -0.3210
 9437TIP3    H149726   0.221   4.008  11.187  0.3140 -0.7232 -0.9092
 9437TIP3    H249727   0.102   3.915  11.180  2.4492 -3.6157 -0.3417
 9438TIP3   OH249728   2.376   5.755   1.281  0.2700 -0.9023  0.2450
 9438TIP3    H149729   2.404   5.831   1.230 -0.7375 -0.3154  0.5487
 9438TIP3    H249730   2.396   5.778   1.372 -0.7656 -0.6655  0.4194
 9439TIP3   OH249731   5.515   6.064   4.024  0.2250 -0.1683 -0.0409
 9439TIP3    H149732   5.559   6.130   4.078 -0.2621 -1.4555  2.0023
 9439TIP3    H249733   5.495   5.992   4.084 -1.7623 -1.0120 -1.6015
 9440TIP3   OH249734   3.903   1.557  10.621 -0.0018  0.7876  0.3749
 9440TIP3    H149735   3.878   1.466  10.609 -0.2991  0.5522  2.3733
 9440TIP3    H249736   3.896   1.596  10.534 -3.4755 -0.2324  0.0384
 9441TIP3   OH249737   4.825   6.529  14.691  0.4164 -0.1287  0.1479
 9441TIP3    H149738   4.918   6.508  14.689  0.5519  0.1694  2.0634
 9441TIP3    H249739   4.787   6.476  14.620  2.2098  0.8187 -1.5878
 9442TIP3   OH249740   6.200   2.977   0.014 -0.2426 -0.1209 -0.4996
 9442TIP3    H149741   6.132   3.044   0.007  0.1052  0.3605  0.5856
 9442TIP3    H249742   6.237   2.989   0.101  1.4863 -0.1439 -1.1976
 9443TIP3   OH249743   5.105   2.387  17.154  0.1719 -0.2896  0.0809
 9443TIP3    H149744   5.014   2.359  17.158  0.3152 -0.8429 -0.3054
 9443TIP3    H249745   5.116   2.418  17.064  0.3775 -0.2960  0.1043
 9444TIP3   OH249746   6.749   1.015  12.738  0.1000  0.1856 -0.1450
 9444TIP3    H149747   6.711   0.949  12.680  0.9330  0.3083 -0.8494
 9444TIP3    H249748   6.680   1.080  12.749  0.2922  0.7471 -1.9444
 9445TIP3   OH249749   4.429   3.681  15.556  0.2091  1.0722 -0.5478
 9445TIP3    H149750   4.368   3.626  15.508 -0.0253 -0.6309  1.5609
 9445TIP3    H249751   4.388   3.695  15.641  2.0611  1.1344  0.3960
 9446TIP3   OH249752   4.479   4.602  11.478 -0.1114  0.0889 -0.1548
 9446TIP3    H149753   4.459   4.688  11.516 -0.8784 -0.3364  0.4276
 9446TIP3    H249754   4.573   4.590  11.494 -0.2920  0.1845  1.0933
 9447TIP3   OH249755   4.378   5.401   3.426 -0.2331  0.1504  0.3980
 9447TIP3    H149756   4.412   5.319   3.389 -1.5427  0.0202 -0.5792
 9447TIP3    H249757   4.406   5.399   3.517 -1.1270 -1.9114  0.6788
 9448TIP3   OH249758   1.728   2.106  12.737  0.6206 -0.1888 -0.1372
 9448TIP3    H149759   1.744   2.041  12.806 -0.4390 -0.5026 -0.1639
 9448TIP3    H249760   1.660   2.067  12.682  0.0497  0.8698 -0.2307
 9449TIP3   OH249761   0.971   3.116  16.682 -0.5799 -0.0354 -0.8742
 9449TIP3    H149762   0.994   3.179  16.614  0.9797 -1.0573 -1.3409
 9449TIP3    H249763   1.018   3.146  16.759 -0.3075 -0.2840 -0.9404
 9450TIP3   OH249764   2.265   0.340  13.602 -0.2085 -0.6954 -0.3894
 9450TIP3    H149765   2.178   0.334  13.642 -0.2378 -2.4895 -0.6490
 9450TIP3    H249766   2.249   0.377  13.516 -0.1783  2.9136  1.0047
 9451TIP3   OH249767   5.056   5.604  15.035 -0.5098  0.0229  0.2199
 9451TIP3    H149768   5.055   5.700  15.033 -1.8335  0.0498 -2.4720
 9451TIP3    H249769   4.967   5.579  15.009 -0.0919 -1.9466  0.5436
 9452TIP3   OH249770   5.212   2.698   1.059  0.0548  0.0363  0.2254
 9452TIP3    H149771   5.121   2.723   1.073  0.0379  0.1942 -0.1518
 9452TIP3    H249772   5.255   2.777   1.027  0.5864  0.2804  1.4457
 9453TIP3   OH249773   6.177   3.132   1.898 -0.3408  0.3917 -0.1699
 9453TIP3    H149774   6.238   3.190   1.853 -0.3237 -0.5421 -1.4237
 9453TIP3    H249775   6.115   3.191   1.942  0.1119  1.3464 -0.7864
 9454TIP3   OH249776   4.603   5.236  16.449 -0.2987  0.2666  0.0194
 9454TIP3    H149777   4.562   5.298  16.389  0.1035  0.0097 -0.5307
 9454TIP3    H249778   4.696   5.261  16.449 -0.0357 -0.6686 -0.6273
 9455TIP3   OH249779   5.748   4.600   3.852 -0.0629  0.6870 -0.4043
 9455TIP3    H149780   5.757   4.535   3.921 -1.0601  2.1441  1.2000
 9455TIP3    H249781   5.784   4.680   3.890 -1.9319  1.8750 -0.9903
 9456TIP3   OH249782   3.010   1.253  14.822 -0.0921 -0.1313 -0.3827
 9456TIP3    H149783   2.968   1.317  14.764  2.0686  1.2674 -0.5286
 9456TIP3    H249784   3.084   1.220  14.772 -0.3532 -1.7204  0.2424
 9457TIP3   OH249785   6.379   2.228   6.002  0.2323 -0.3886 -0.0285
 9457TIP3    H149786   6.394   2.144   6.046 -0.4730 -0.2392  0.5258
 9457TIP3    H249787   6.421   2.218   5.917 -0.6832 -1.6795 -0.3651
 9458TIP3   OH249788   0.931   0.586  13.488  0.6328 -0.3659 -0.0396
 9458TIP3    H149789   1.020   0.594  13.523  1.0896  0.8944 -1.3894
 9458TIP3    H249790   0.943   0.549  13.400  0.0035  1.4571 -0.9316
 9459TIP3   OH249791   3.677   4.581  14.051 -0.1680  0.3894  0.2424
 9459TIP3    H149792   3.599   4.636  14.053 -0.9184 -0.6474  0.1226
 9459TIP3    H249793   3.649   4.498  14.088  1.2917  0.4809  1.6891
 9460TIP3   OH249794   4.265   3.563  12.731 -0.1507  0.6594 -0.7132
 9460TIP3    H149795   4.183   3.597  12.764 -0.5272 -0.1385 -0.7867
 9460TIP3    H249796   4.321   3.554  12.808  0.2976  2.2990 -0.8148
 9461TIP3   OH249797   0.533   0.860  13.437 -0.4208  0.3278 -0.4346
 9461TIP3    H149798   0.488   0.835  13.356 -0.1707 -0.8792 -0.2274
 9461TIP3    H249799   0.505   0.794  13.500 -0.6242  1.2709  0.4731
 9462TIP3   OH249800   5.357   2.182  14.143 -0.0671 -0.2352  0.1330
 9462TIP3    H149801   5.329   2.128  14.069  0.7960 -0.6364  0.0859
 9462TIP3    H249802   5.295   2.161  14.213 -1.2036  0.5324 -0.6186
 9463TIP3   OH249803   3.236   0.279   3.500 -0.1977  0.3086 -0.5472
 9463TIP3    H149804   3.190   0.352   3.459 -0.6486 -0.7519 -2.0531
 9463TIP3    H249805   3.172   0.241   3.561 -0.2349  0.6908 -0.3470
 9464TIP3   OH249806   3.854   3.884   0.068 -0.2247  0.4093  0.0153
 9464TIP3    H149807   3.902   3.806   0.040  1.5961  0.6802  2.1057
 9464TIP3    H249808   3.922   3.950   0.083 -1.1825  0.8572  3.0017
 9465TIP3   OH249809   4.095   1.947  13.027 -0.1562  0.7057  0.1885
 9465TIP3    H149810   4.182   1.969  13.060  0.9771  0.0701 -2.1374
 9465TIP3    H249811   4.105   1.950  12.932 -2.1200 -1.5150 -0.1535
 9466TIP3   OH249812   3.306   2.502  11.995 -0.6072 -0.0578  0.5141
 9466TIP3    H149813   3.334   2.552  11.918 -0.4823 -0.9023 -0.0013
 9466TIP3    H249814   3.339   2.414  11.979 -0.4287 -0.2056  1.6274
 9467TIP3   OH249815   3.763   5.020  14.295  0.2466 -0.3706  0.0269
 9467TIP3    H149816   3.788   5.101  14.250 -0.4720  0.5570  1.2113
 9467TIP3    H249817   3.668   5.028  14.306  0.2793 -1.0192  0.8242
 9468TIP3   OH249818   2.829   0.820   5.042  0.0065 -0.3194 -0.1027
 9468TIP3    H149819   2.765   0.830   5.112 -0.1416 -1.0740 -0.1200
 9468TIP3    H249820   2.899   0.882   5.063  1.6414 -2.8650  2.6187
 9469TIP3   OH249821   3.873   5.824   5.799  0.2238  0.3405  0.1266
 9469TIP3    H149822   3.896   5.734   5.775 -0.8089 -0.2169  1.1576
 9469TIP3    H249823   3.939   5.849   5.863  1.5377  0.9728 -1.3816
 9470TIP3   OH249824   3.329   5.445  14.635 -0.0427 -0.1479  0.5670
 9470TIP3    H149825   3.246   5.437  14.682 -0.9077 -0.1382 -0.9256
 9470TIP3    H249826   3.337   5.539  14.616  0.3756 -0.1329  0.7861
 9471TIP3   OH249827   4.078   3.153  13.238  0.1244  0.4150 -0.4641
 9471TIP3    H149828   4.086   3.142  13.143 -2.1468  2.7427 -1.0452
 9471TIP3    H249829   4.001   3.101  13.262 -0.8294  1.7522 -0.4337
 9472TIP3   OH249830   2.935   4.499  11.365 -0.3417 -0.0409 -0.3754
 9472TIP3    H149831   3.015   4.529  11.322 -1.2543 -0.1330 -2.2449
 9472TIP3    H249832   2.956   4.412  11.399  1.2590  1.1457  1.9810
 9473TIP3   OH249833   4.834   2.423   1.612  0.1904  0.1753 -0.5747
 9473TIP3    H149834   4.839   2.369   1.533 -1.4032  0.9504 -1.2429
 9473TIP3    H249835   4.785   2.501   1.585 -0.6936  0.3069  1.2732
 9474TIP3   OH249836   4.626   2.669   3.189  0.5864  0.0139  0.0830
 9474TIP3    H149837   4.696   2.712   3.239 -1.6979  1.0650  2.6461
 9474TIP3    H249838   4.564   2.740   3.169 -1.1981 -1.3338  0.5898
 9475TIP3   OH249839   0.862   0.555  13.878 -0.2496  0.5752  0.4073
 9475TIP3    H149840   0.885   0.636  13.832 -1.6069  0.7159 -0.0610
 9475TIP3    H249841   0.925   0.491  13.846 -1.0887  0.6842 -1.6543
 9476TIP3   OH249842   6.311   1.689   5.768 -0.0492  0.1484 -0.0916
 9476TIP3    H149843   6.333   1.751   5.837  0.4290 -0.0343 -0.0766
 9476TIP3    H249844   6.354   1.607   5.794  2.3432  0.7359 -1.8668
 9477TIP3   OH249845   5.830   2.755  15.867  0.0686 -0.1089  0.7178
 9477TIP3    H149846   5.767   2.745  15.938 -1.5732 -0.3239 -0.6885
 9477TIP3    H249847   5.808   2.839  15.827  0.1250 -0.5502 -0.2740
 9478TIP3   OH249848   2.306   0.989   5.517  0.4663 -0.5573  0.5765
 9478TIP3    H149849   2.247   1.049   5.561  0.7084  0.0423  0.0856
 9478TIP3    H249850   2.385   1.040   5.500  1.2897 -1.4382  1.5448
 9479TIP3   OH249851   3.661   0.734   6.519  1.0140 -0.3089 -0.7464
 9479TIP3    H149852   3.651   0.794   6.446 -1.9434  1.6657  1.0610
 9479TIP3    H249853   3.584   0.677   6.514 -0.3940  1.1799  1.7980
 9480TIP3   OH249854   6.314   2.227   4.143 -0.0005  0.1787 -0.2506
 9480TIP3    H149855   6.351   2.315   4.140  0.3955  0.0181 -0.2577
 9480TIP3    H249856   6.346   2.185   4.063  2.0102 -0.7994  0.9586
 9481TIP3   OH249857   5.955   1.782  15.583 -0.3394 -0.3636 -0.1869
 9481TIP3    H149858   5.949   1.692  15.551 -0.5741 -0.1610 -0.7269
 9481TIP3    H249859   5.865   1.814  15.583 -0.3243 -0.3122  0.5550
 9482TIP3   OH249860   2.636   1.604  14.142  0.3752 -0.4836  0.0420
 9482TIP3    H149861   2.616   1.675  14.082  0.9092 -0.3205  0.0449
 9482TIP3    H249862   2.731   1.612  14.157  0.3905 -1.0242  0.2578
 9483TIP3   OH249863   3.417   5.658   3.367 -0.2227 -0.7546  0.1434
 9483TIP3    H149864   3.422   5.658   3.271  0.5781 -1.7510  0.1684
 9483TIP3    H249865   3.414   5.566   3.391  0.6239 -0.5520  1.1128
 9484TIP3   OH249866   2.852   4.568  15.636 -0.2121  0.1843 -0.1922
 9484TIP3    H149867   2.853   4.613  15.721  0.9639 -0.7204  0.3064
 9484TIP3    H249868   2.764   4.533  15.627 -0.3721  0.3754  0.6128
 9485TIP3   OH249869   0.956   5.819   1.615  0.3045 -0.2833 -0.3654
 9485TIP3    H149870   0.929   5.832   1.706 -2.6455 -0.1620 -1.1595
 9485TIP3    H249871   0.900   5.749   1.583  2.0795 -1.1310 -1.8335
 9486TIP3   OH249872   6.480   1.684  14.949  0.1144 -0.4434 -0.2041
 9486TIP3    H149873   6.414   1.698  14.881  0.1589 -1.1380 -0.3980
 9486TIP3    H249874   6.432   1.695  15.031 -0.7942 -3.0702 -0.2923
 9487TIP3   OH249875   5.079   4.552   5.741 -0.1306  0.1260  0.3301
 9487TIP3    H149876   5.090   4.566   5.835 -2.5600  1.0596  0.5444
 9487TIP3    H249877   5.020   4.477   5.734  1.7711 -1.3714 -0.5589
 9488TIP3   OH249878   4.570   4.856   5.010 -0.5200 -0.2237  0.1339
 9488TIP3    H149879   4.526   4.936   5.039  0.1859  0.2556 -0.0812
 9488TIP3    H249880   4.647   4.848   5.066 -0.6624 -0.8407  0.2540
 9489TIP3   OH249881   2.738   1.837  15.220 -0.4756 -0.0820 -0.0008
 9489TIP3    H149882   2.830   1.832  15.246 -0.4319 -0.2053 -0.1796
 9489TIP3    H249883   2.690   1.819  15.300 -0.3515 -3.6265 -0.5864
 9490TIP3   OH249884   5.652   4.992   0.538 -0.3521 -0.2920  0.0755
 9490TIP3    H149885   5.675   5.083   0.558  0.5442 -0.7211  1.0709
 9490TIP3    H249886   5.558   4.995   0.519 -0.8861  0.4962  2.5039
 9491TIP3   OH249887   3.056   5.909   0.953 -0.9647  0.4548 -0.6600
 9491TIP3    H149888   3.070   5.876   0.864 -0.0887  1.0290 -0.7465
 9491TIP3    H249889   3.063   5.831   1.008 -0.8374  0.1948 -1.0392
 9492TIP3   OH249890   3.899   5.878   2.720 -0.6538  0.4500 -0.9156
 9492TIP3    H149891   3.853   5.959   2.698 -0.6972  0.4396 -0.8623
 9492TIP3    H249892   3.930   5.845   2.635 -1.2978  0.1231 -1.0320
 9493TIP3   OH249893   6.692   6.132   2.019 -0.1419 -0.1924 -0.1152
 9493TIP3    H149894   6.691   6.224   1.994  0.5978 -0.1986 -0.1701
 9493TIP3    H249895   6.645   6.130   2.103  1.4742  0.5352  0.8623
 9494TIP3   OH249896   0.595   4.326  15.212 -0.4271  0.0756 -0.1470
 9494TIP3    H149897   0.519   4.312  15.155  0.2396 -1.0114 -0.8208
 9494TIP3    H249898   0.670   4.316  15.153  0.2516  0.4768  0.6376
 9495TIP3   OH249899   1.441   3.502   4.092  0.4680  0.0153 -0.0604
 9495TIP3    H149900   1.509   3.555   4.134 -1.4375  2.3133  0.3604
 9495TIP3    H249901   1.390   3.467   4.166 -0.6522  0.9578 -0.3571
 9496TIP3   OH249902   4.341   2.629   0.557  0.1499 -0.2965  0.0931
 9496TIP3    H149903   4.383   2.576   0.624 -2.3435 -1.4617  0.8579
 9496TIP3    H249904   4.336   2.717   0.596  0.6256 -0.4612  0.5404
 9497TIP3   OH249905   0.579   1.940  11.317  0.4177  0.4943  0.3020
 9497TIP3    H149906   0.526   1.923  11.239 -0.2797 -1.8370  1.1812
 9497TIP3    H249907   0.669   1.945  11.286 -0.0859  2.9333 -1.0190
 9498TIP3   OH249908   1.239   3.757  11.038 -0.0311 -0.1115  0.4052
 9498TIP3    H149909   1.310   3.714  10.990 -0.3273 -2.7445  2.0981
 9498TIP3    H249910   1.279   3.834  11.077  0.7112  0.9523 -2.2598
 9499TIP3   OH249911   5.822   6.472  10.605 -0.6664 -0.2617 -0.1748
 9499TIP3    H149912   5.741   6.422  10.605 -1.4011  0.8465  1.3958
 9499TIP3    H249913   5.847   6.479  10.697  1.6672 -1.2243 -0.6535
 9500TIP3   OH249914   6.542   5.933  13.035 -0.4145 -0.1021 -0.0941
 9500TIP3    H149915   6.468   5.873  13.034 -0.4702 -0.0593 -1.9590
 9500TIP3    H249916   6.611   5.888  12.986  0.8612 -0.1763  1.6856
 9501TIP3   OH249917   3.202   0.220  12.363  0.0073  0.1444  0.2385
 9501TIP3    H149918   3.237   0.255  12.445  3.9128 -1.7278 -0.4536
 9501TIP3    H249919   3.172   0.132  12.385  0.5598 -0.1615 -0.2082
 9502TIP3   OH249920   0.967   5.853  11.886 -0.3228  0.4875 -0.3893
 9502TIP3    H149921   0.881   5.850  11.928 -1.0976 -2.3522 -1.9440
 9502TIP3    H249922   0.996   5.762  11.885  1.7425  1.1115 -1.8376
 9503TIP3   OH249923   4.512   5.356   3.682  0.0566  0.0476  0.0861
 9503TIP3    H149924   4.515   5.312   3.766 -0.4219  1.3302  0.8085
 9503TIP3    H249925   4.567   5.433   3.694  1.4224 -0.6560 -1.3504
 9504TIP3   OH249926   0.621   1.685  17.133 -0.8095 -0.5960  0.0016
 9504TIP3    H149927   0.684   1.614  17.139  0.6261  0.6694  0.5171
 9504TIP3    H249928   0.611   1.716  17.223  2.0550  2.6872 -0.6114
 9505TIP3   OH249929   2.007   1.867   1.116  0.0112  0.0707 -0.7334
 9505TIP3    H149930   2.062   1.873   1.037  0.8195 -0.8870 -0.2661
 9505TIP3    H249931   2.049   1.800   1.169 -0.7930  0.3753  0.3152
 9506TIP3   OH249932   2.805   4.345  14.199  0.1468  0.2353  0.0253
 9506TIP3    H149933   2.877   4.338  14.136 -0.9040  0.6853 -1.2853
 9506TIP3    H249934   2.804   4.438  14.224 -0.7049  0.4898 -0.8938
 9507TIP3   OH249935   0.090   5.939  10.978 -0.6871  0.4608 -1.2115
 9507TIP3    H149936   0.167   5.995  10.984  0.1522 -0.6583 -1.0406
 9507TIP3    H249937   0.049   5.962  10.895 -0.6555  1.6509 -0.9171
 9508TIP3   OH249938   4.790   3.305  11.643  0.1821 -0.9246  0.1641
 9508TIP3    H149939   4.772   3.399  11.652 -2.0146 -1.2156 -0.5830
 9508TIP3    H249940   4.860   3.301  11.578  0.8548  0.2065  0.7750
 9509TIP3   OH249941   3.431   0.105   5.851 -0.3378 -0.1818  0.6066
 9509TIP3    H149942   3.434   0.019   5.893 -3.0190 -0.5351  0.2276
 9509TIP3    H249943   3.486   0.161   5.907  1.6153 -2.1246  0.7579
 9510TIP3   OH249944   2.916   0.083   4.489  0.1661 -0.2602  0.5680
 9510TIP3    H149945   2.914   0.014   4.422 -1.4825 -1.1783  1.5017
 9510TIP3    H249946   2.991   0.060   4.544  1.7942  0.7276 -1.1104
 9511TIP3   OH249947   2.200   3.579   1.890 -0.0633  0.7382 -0.1271
 9511TIP3    H149948   2.242   3.641   1.831  0.8965 -0.3235 -0.6063
 9511TIP3    H249949   2.272   3.526   1.925 -0.9232 -0.8089 -0.5922
 9512TIP3   OH249950   2.115   3.934   0.004 -0.6929 -0.0925  0.0146
 9512TIP3    H149951   2.115   3.890  -0.081 -0.8399  2.0780 -1.1985
 9512TIP3    H249952   2.035   3.904   0.047 -1.0988 -0.5331 -1.0019
 9513TIP3   OH249953   2.673   4.641   1.506  0.2292  0.0375 -0.2237
 9513TIP3    H149954   2.674   4.575   1.575 -1.7829 -1.7837 -1.7755
 9513TIP3    H249955   2.735   4.608   1.440 -1.4977 -0.9341 -1.4468
 9514TIP3   OH249956   3.866   5.107   3.923  0.5371 -0.1928 -0.0017
 9514TIP3    H149957   3.866   5.181   3.984  1.0283  0.8186 -1.1663
 9514TIP3    H249958   3.955   5.072   3.927 -0.2472 -2.1464  2.1297
 9515TIP3   OH249959   4.285   3.737  16.889  0.2937  0.4982  0.3981
 9515TIP3    H149960   4.232   3.676  16.838 -1.4943  1.5780  0.8858
 9515TIP3    H249961   4.338   3.783  16.823  0.2304 -0.2231 -0.1664
 9516TIP3   OH249962   2.463   4.854   4.384 -0.8559  0.2875  0.2243
 9516TIP3    H149963   2.457   4.862   4.479  0.3235  0.3668  0.3074
 9516TIP3    H249964   2.429   4.767   4.364  0.9935 -0.6520  0.9707
 9517TIP3   OH249965   2.567   0.176  13.918  0.1141  0.4303  0.0096
 9517TIP3    H149966   2.642   0.158  13.974 -0.0123  0.9537  0.3540
 9517TIP3    H249967   2.492   0.180  13.978  0.3553  3.8374  0.2594
 9518TIP3   OH249968   0.922   1.836   0.073 -0.3249 -0.1406  0.2683
 9518TIP3    H149969   1.006   1.847   0.028 -0.5192 -0.8616 -0.2929
 9518TIP3    H249970   0.910   1.741   0.081 -0.9144 -0.0417  0.6686
 9519TIP3   OH249971   4.965   4.922   4.816  0.2495 -0.1763 -0.4083
 9519TIP3    H149972   4.964   4.827   4.827  0.0709 -0.5619 -3.1104
 9519TIP3    H249973   4.896   4.940   4.752  1.0075  1.6271 -0.7801
 9520TIP3   OH249974   1.844   0.180  14.903  0.1427  0.6469 -0.6319
 9520TIP3    H149975   1.780   0.119  14.939 -0.3634  2.2895  1.4998
 9520TIP3    H249976   1.926   0.131  14.901 -0.4698 -0.4393 -0.0154
 9521TIP3   OH249977   5.913   3.420  16.157  0.0041 -0.2337  0.5688
 9521TIP3    H149978   5.829   3.430  16.201  0.8092  0.6465  1.9844
 9521TIP3    H249979   5.903   3.341  16.104 -1.7602 -0.0353  0.5569
 9522TIP3   OH249980   5.152   5.441  16.778  0.4405  0.3001  0.7843
 9522TIP3    H149981   5.081   5.390  16.738  0.0663  0.6714  0.9690
 9522TIP3    H249982   5.137   5.433  16.873  2.7165 -2.6233  1.0583
 9523TIP3   OH249983   6.490   1.736  16.009 -0.0249  0.0225  0.0257
 9523TIP3    H149984   6.441   1.817  15.998  0.9496  0.5857 -0.3721
 9523TIP3    H249985   6.487   1.694  15.923  0.8208  0.4482 -0.2271
 9524TIP3   OH249986   3.659   4.328   4.870 -0.1589 -0.3206 -0.3835
 9524TIP3    H149987   3.608   4.247   4.866 -0.9960  0.1733  0.1101
 9524TIP3    H249988   3.701   4.326   4.956  1.7804 -1.3612 -1.2755
 9525TIP3   OH249989   3.353   2.947  12.985  0.5214  0.3062  0.0084
 9525TIP3    H149990   3.275   3.002  12.979 -0.2255 -0.8291 -1.4545
 9525TIP3    H249991   3.405   2.987  13.055 -0.8649  1.7116  0.3089
 9526TIP3   OH249992   1.251   2.767  16.239 -0.4833  0.1928  0.2083
 9526TIP3    H149993   1.246   2.863  16.237  0.3788  0.2558 -1.8647
 9526TIP3    H249994   1.229   2.740  16.149  2.1922 -1.3177 -0.1033
 9527TIP3   OH249995   1.725   4.904   1.277 -0.1389 -0.6063  0.5766
 9527TIP3    H149996   1.811   4.944   1.262  0.0765 -0.8224  1.1916
 9527TIP3    H249997   1.743   4.810   1.277 -0.5968 -0.7062 -0.5905
 9528TIP3   OH249998   1.962   0.329  12.075 -0.1603  0.0949  0.3080
 9528TIP3    H149999   1.893   0.394  12.091  0.3794  1.0965 -1.2265
 9528TIP3    H250000   1.915   0.246  12.065 -0.8676  0.2314  2.1907
 9529TIP3   OH250001   6.598   0.280  14.117 -0.3436 -0.0546  0.1426
 9529TIP3    H150002   6.670   0.221  14.140  0.5589 -0.3654 -2.9835
 9529TIP3    H250003   6.530   0.261  14.182  0.8694 -2.6714  0.8047
 9530TIP3   OH250004   6.719   4.973  13.201  0.2837  0.0040  0.0974
 9530TIP3    H150005   6.626   4.955  13.187  0.8414 -2.0482 -1.2671
 9530TIP3    H250006   6.742   5.036  13.132  0.6761 -2.2873 -1.9827
 9531TIP3   OH250007   4.303   2.591   6.461  0.3088 -0.3296 -0.1602
 9531TIP3    H150008   4.373   2.616   6.521 -0.1169  0.8497 -0.1406
 9531TIP3    H250009   4.324   2.501   6.436  0.9938 -0.5116  1.0229
 9532TIP3   OH250010   1.708   1.657   3.425  0.0370 -0.3646 -0.3587
 9532TIP3    H150011   1.784   1.683   3.476  1.2432 -1.8992 -1.2704
 9532TIP3    H250012   1.678   1.576   3.466 -2.0833  0.9784  0.9045
 9533TIP3   OH250013   3.905   6.579  12.540  0.2203  0.1947 -0.1375
 9533TIP3    H150014   3.986   6.628  12.525  0.7628 -1.1434 -1.8348
 9533TIP3    H250015   3.842   6.617  12.480  0.0219  0.2179  0.0822
 9534TIP3   OH250016   4.210   0.190  16.306  0.1155 -0.1211 -0.1338
 9534TIP3    H150017   4.125   0.187  16.262  0.5301 -0.8545 -0.9116
 9534TIP3    H250018   4.270   0.226  16.240  0.9391 -2.1400 -0.5645
 9535TIP3   OH250019   6.140   2.664   2.094  0.7220 -0.1254 -0.0192
 9535TIP3    H150020   6.138   2.591   2.031 -0.5940 -0.2943  0.1785
 9535TIP3    H250021   6.094   2.735   2.049  0.0847 -0.1314  0.6079
 9536TIP3   OH250022   0.218   1.849  14.208 -0.1658  0.0613  0.2297
 9536TIP3    H150023   0.300   1.857  14.158 -0.0693  0.4618  0.4471
 9536TIP3    H250024   0.241   1.876  14.297  0.5910 -4.1686  1.5197
 9537TIP3   OH250025   3.627   6.004  10.713  0.2534 -0.1872 -0.5971
 9537TIP3    H150026   3.617   6.075  10.650 -0.4882 -0.9203 -1.3308
 9537TIP3    H250027   3.558   6.018  10.777 -0.8559 -1.0666 -1.5676
 9538TIP3   OH250028   4.872   1.243   1.789  0.0795 -0.3491  0.0353
 9538TIP3    H150029   4.915   1.159   1.772 -1.6008 -1.0716 -0.8293
 9538TIP3    H250030   4.885   1.257   1.883  1.4399 -0.9509 -0.0352
 9539TIP3   OH250031   3.098   4.495  15.905  0.0769  0.0939  0.0377
 9539TIP3    H150032   3.043   4.420  15.925  0.3767 -0.2302 -0.3354
 9539TIP3    H250033   3.037   4.567  15.893 -0.2259 -0.1312  0.2081
 9540TIP3   OH250034   2.457   1.500  16.726 -0.8267 -0.1197  0.1260
 9540TIP3    H150035   2.446   1.545  16.809 -1.3530  0.7292 -0.3832
 9540TIP3    H250036   2.372   1.461  16.708 -0.5339 -0.8407  0.2867
 9541TIP3   OH250037   5.879   2.043   4.467  0.1705 -1.1065 -0.7709
 9541TIP3    H150038   5.970   2.051   4.495 -0.3196  0.8652  0.4419
 9541TIP3    H250039   5.885   2.018   4.375  1.9391 -1.1519 -0.6838
 9542TIP3   OH250040   0.109   0.648  11.397  0.0702 -0.1450  0.3796
 9542TIP3    H150041   0.051   0.619  11.327 -1.9455 -0.9568  2.2414
 9542TIP3    H250042   0.075   0.734  11.422  1.6481  0.7699 -0.5160
 9543TIP3   OH250043   4.438   1.735  13.996 -0.3559  0.1119 -0.4189
 9543TIP3    H150044   4.362   1.678  13.990 -0.3383 -0.0299  0.5464
 9543TIP3    H250045   4.404   1.818  14.030  0.2425 -0.7775  2.7081
 9544TIP3   OH250046   1.838   2.400   5.662  0.3152 -0.4241  0.1011
 9544TIP3    H150047   1.745   2.408   5.684  0.3493  0.1870  0.0475
 9544TIP3    H250048   1.884   2.414   5.745  0.3180 -2.9867  0.6102
 9545TIP3   OH250049   3.935   2.742  11.391 -0.5108  0.1088 -0.7009
 9545TIP3    H150050   3.941   2.837  11.387  1.6446 -0.0404 -2.4408
 9545TIP3    H250051   3.921   2.723  11.484  3.7141  2.0172  0.5743
 9546TIP3   OH250052   2.073   5.149   3.286 -0.7689  0.2666  0.3906
 9546TIP3    H150053   2.049   5.216   3.350 -2.9908 -0.4965  0.4205
 9546TIP3    H250054   2.020   5.073   3.309  0.2064 -0.8486 -0.8808
 9547TIP3   OH250055   5.459   6.045   1.962 -0.2455 -0.4572  0.0835
 9547TIP3    H150056   5.529   6.070   1.901 -1.4953  3.3048 -0.0033
 9547TIP3    H250057   5.418   5.969   1.920  1.5620 -0.6083 -1.5812
 9548TIP3   OH250058   4.978   4.626   1.906 -0.2666  0.8983 -0.2865
 9548TIP3    H150059   5.015   4.704   1.947 -0.3281  0.2149  1.1142
 9548TIP3    H250060   4.916   4.660   1.842  0.2512  2.0022 -0.2232
 9549TIP3   OH250061   1.012   1.334  17.125 -0.5762  0.0633  0.0297
 9549TIP3    H150062   1.026   1.258  17.181 -2.2844 -0.4937 -0.2582
 9549TIP3    H250063   1.064   1.316  17.046 -3.5352 -2.5166 -1.5411
 9550TIP3   OH250064   3.594   2.278   4.451 -0.4666  0.0576  0.3737
 9550TIP3    H150065   3.655   2.300   4.521 -0.2181  0.9796 -0.1036
 9550TIP3    H250066   3.508   2.298   4.487 -0.2914  1.2690  0.1892
 9551TIP3   OH250067   4.703   6.750  13.961 -0.2724  0.0230  0.0140
 9551TIP3    H150068   4.621   6.793  13.987  0.2838  0.3929  1.2230
 9551TIP3    H250069   4.769   6.819  13.964  0.0448 -0.1967 -1.2864
 9552TIP3   OH250070   2.500   2.809  14.190  0.4717 -0.7328  0.8603
 9552TIP3    H150071   2.502   2.744  14.260  2.4473 -1.5106  0.1572
 9552TIP3    H250072   2.587   2.805  14.151  0.1659  1.3146 -0.1726
 9553TIP3   OH250073   5.720   5.979   2.037 -0.5118  0.4444  0.4483
 9553TIP3    H150074   5.723   5.955   2.130 -1.0013 -0.7964  0.1614
 9553TIP3    H250075   5.711   6.074   2.037  0.5990  0.5753  1.6585
 9554TIP3   OH250076   1.628   4.186   2.954  0.3891  0.3114 -0.0601
 9554TIP3    H150077   1.709   4.236   2.963  1.7466 -1.7819  0.0429
 9554TIP3    H250078   1.652   4.097   2.981 -1.7909 -0.5022 -0.6264
 9555TIP3   OH250079   5.644   5.290  11.805  0.1223 -0.0869 -0.1462
 9555TIP3    H150080   5.688   5.216  11.763 -1.7416 -1.0190 -0.5427
 9555TIP3    H250081   5.606   5.253  11.885 -0.8953  0.3980 -0.3875
 9556TIP3   OH250082   3.703   5.710  10.425 -0.0982  0.1920 -0.4681
 9556TIP3    H150083   3.778   5.702  10.366  0.1530 -0.4619 -0.0729
 9556TIP3    H250084   3.676   5.620  10.440 -0.4415  0.3838  0.0633
 9557TIP3   OH250085   3.784   0.562  15.516 -0.1447 -0.8313 -0.0498
 9557TIP3    H150086   3.708   0.621  15.521 -1.1606 -2.1079  0.1528
 9557TIP3    H250087   3.858   0.620  15.496 -0.5942  0.8866  2.7716
 9558TIP3   OH250088   2.908   5.357   0.420 -0.2321  1.0866  0.3747
 9558TIP3    H150089   2.902   5.418   0.493 -0.3645 -1.3163  2.4864
 9558TIP3    H250090   3.001   5.357   0.396 -0.1945  1.9175  0.5021
 9559TIP3   OH250091   0.390   1.311   3.152  0.1987 -0.5913  0.5976
 9559TIP3    H150092   0.422   1.226   3.184  0.5888  0.2164  2.5132
 9559TIP3    H250093   0.325   1.338   3.218  1.4636  1.4540  1.0877
 9560TIP3   OH250094   2.684   0.058   0.240 -0.0999 -0.7009 -0.0965
 9560TIP3    H150095   2.614   0.071   0.175 -0.1815 -0.2474  0.0814
 9560TIP3    H250096   2.646   0.086   0.323  0.4716  0.0770 -0.0889
 9561TIP3   OH250097   1.868   5.069  15.559  0.3530 -0.4854  0.8687
 9561TIP3    H150098   1.952   5.116  15.553  0.5595 -0.7544  1.4901
 9561TIP3    H250099   1.891   4.985  15.599  0.0448 -1.2756 -0.5719
 9562TIP3   OH250100   4.116   5.956  15.268  0.6743 -0.8570 -0.3139
 9562TIP3    H150101   4.072   6.001  15.195  0.7526 -2.4516 -1.4027
 9562TIP3    H250102   4.158   6.027  15.318 -0.5716  0.4111 -0.9853
 9563TIP3   OH250103   4.783   5.160  15.611 -0.7218 -0.6049 -0.1209
 9563TIP3    H150104   4.779   5.119  15.697 -0.4952 -0.9522 -0.2751
 9563TIP3    H250105   4.830   5.243  15.625  0.4411 -1.2422 -0.1291
 9564TIP3   OH250106   2.916   4.465  15.076 -0.6461 -0.0265  0.5070
 9564TIP3    H150107   2.859   4.542  15.080 -0.6795 -0.0548  0.5891
 9564TIP3    H250108   3.005   4.501  15.077 -0.6645  0.0356 -0.0976
 9565TIP3   OH250109   6.458   5.070   3.830 -0.2295 -0.4699  0.4165
 9565TIP3    H150110   6.482   5.045   3.741 -0.5146  0.0294  0.1887
 9565TIP3    H250111   6.421   5.158   3.820 -2.8149 -1.4428  0.6277
 9566TIP3   OH250112   1.041   2.072   3.268  0.2264  0.3842  0.4915
 9566TIP3    H150113   1.112   2.064   3.332 -0.2077 -0.6476  0.8580
 9566TIP3    H250114   1.082   2.115   3.193  1.0736  0.4103  0.9529
 9567TIP3   OH250115   0.372   3.016  16.210 -0.2182  0.2043 -0.2334
 9567TIP3    H150116   0.280   3.026  16.183 -0.8925 -1.5689  1.2106
 9567TIP3    H250117   0.397   3.103  16.242 -1.9491  0.3310  0.8956
 9568TIP3   OH250118   2.675   3.013   1.988  0.5848 -0.0357  0.3187
 9568TIP3    H150119   2.721   3.014   1.904 -0.5812 -0.1468 -0.3525
 9568TIP3    H250120   2.729   3.068   2.045  0.8785  0.9154 -0.8113
 9569TIP3   OH250121   0.363   0.314   5.499  0.3316  0.2696 -0.4750
 9569TIP3    H150122   0.288   0.259   5.478 -0.9079  2.0834 -1.0815
 9569TIP3    H250123   0.334   0.368   5.573  1.7717 -0.3496  0.5957
 9570TIP3   OH250124   0.398   4.908  15.381  0.5130  0.1027 -0.3652
 9570TIP3    H150125   0.367   4.836  15.436 -0.1409  1.1906  0.7075
 9570TIP3    H250126   0.492   4.910  15.396  0.1474  1.4637  2.0758
 9571TIP3   OH250127   4.702   5.906   0.490 -0.5921  0.5058  0.1169
 9571TIP3    H150128   4.792   5.872   0.489 -0.5686  0.5468 -1.1917
 9571TIP3    H250129   4.648   5.832   0.515 -0.1204  0.7272  1.9059
 9572TIP3   OH250130   6.762   3.130  13.503  0.4316 -0.4836  0.4248
 9572TIP3    H150131   6.685   3.077  13.482 -1.2864  2.3203 -0.9606
 9572TIP3    H250132   6.730   3.195  13.566  1.5215  0.9470 -0.4341
 9573TIP3   OH250133   0.228   3.955   6.000 -0.8718 -0.5562 -0.5200
 9573TIP3    H150134   0.249   3.911   5.918 -2.3113  0.7561 -1.6469
 9573TIP3    H250135   0.278   3.906   6.066  0.1215 -1.8146 -2.1029
 9574TIP3   OH250136   2.809   3.216   6.045 -0.1850  0.2005 -0.0311
 9574TIP3    H150137   2.827   3.299   6.000 -1.5833  0.4747 -0.1323
 9574TIP3    H250138   2.757   3.241   6.121 -0.0301 -0.5256  0.3195
 9575TIP3   OH250139   5.679   4.523  14.945 -1.0154 -0.0862 -0.2187
 9575TIP3    H150140   5.731   4.563  14.875  0.1980 -1.4041 -0.1130
 9575TIP3    H250141   5.598   4.496  14.902 -1.5735  1.7688 -0.4392
 9576TIP3   OH250142   4.069   3.095   0.116 -0.0802 -0.5881  0.1258
 9576TIP3    H150143   4.043   3.039   0.043 -0.8743  0.2224 -0.2251
 9576TIP3    H250144   4.165   3.100   0.109 -0.2261  0.7701 -1.8597
 9577TIP3   OH250145   5.245   2.987  16.627 -0.2802 -0.2080 -0.4482
 9577TIP3    H150146   5.241   3.079  16.651 -0.6175 -0.3610  0.0838
 9577TIP3    H250147   5.338   2.972  16.609 -0.3712  0.5066 -1.6610
 9578TIP3   OH250148   0.695   1.995   4.191  0.1457  0.1181 -0.1993
 9578TIP3    H150149   0.684   1.903   4.168  0.4104 -0.1452  0.6847
 9578TIP3    H250150   0.755   2.030   4.125  0.8920 -0.6110  0.0776
 9579TIP3   OH250151   6.594   4.670   4.608  0.6138  0.3817  0.3477
 9579TIP3    H150152   6.678   4.705   4.637  0.3813  1.7494 -0.5525
 9579TIP3    H250153   6.559   4.736   4.549 -0.4108 -0.8503 -0.4897
 9580TIP3   OH250154   3.365   6.670  15.140 -0.8319 -0.2677  0.3482
 9580TIP3    H150155   3.351   6.742  15.078  0.6294 -1.4892 -1.4945
 9580TIP3    H250156   3.280   6.625  15.143 -2.4202  2.4739  3.0302
 9581TIP3   OH250157   5.348   2.486   0.791 -0.6465  0.2848  0.0272
 9581TIP3    H150158   5.260   2.508   0.820 -0.2674  1.9975 -0.0321
 9581TIP3    H250159   5.364   2.542   0.715 -0.1388 -1.2712 -1.0781
 9582TIP3   OH250160   0.819   5.454   2.171  0.1182  0.1536  0.1320
 9582TIP3    H150161   0.848   5.414   2.253 -2.2711  1.5035  1.7483
 9582TIP3    H250162   0.812   5.547   2.191 -1.7441  0.3535 -1.2103
 9583TIP3   OH250163   3.915   4.100   5.099  0.4503  0.1283  0.5658
 9583TIP3    H150164   4.005   4.127   5.120  0.0811  1.5976  0.3362
 9583TIP3    H250165   3.861   4.174   5.125 -0.5437 -0.1028 -0.7627
 9584TIP3   OH250166   1.776   2.982  12.575 -0.1627 -0.3781  0.3532
 9584TIP3    H150167   1.827   3.024  12.643  0.0118  0.5977 -0.3653
 9584TIP3    H250168   1.773   2.889  12.600 -1.0413  0.1256  2.2566
 9585TIP3   OH250169   6.249   0.586  15.747  0.3966 -0.4463  0.1616
 9585TIP3    H150170   6.224   0.644  15.675 -0.2558 -0.2607  0.5270
 9585TIP3    H250171   6.272   0.646  15.818  0.8017 -0.6323  0.1894
 9586TIP3   OH250172   5.956   3.263   2.347  0.2371 -0.1619  0.6869
 9586TIP3    H150173   5.978   3.174   2.376  1.1260 -0.1036  0.2216
 9586TIP3    H250174   5.878   3.286   2.399  1.6602 -0.1214  2.9527
 9587TIP3   OH250175   6.763   5.690  16.876 -0.6843  0.0236  0.5295
 9587TIP3    H150176   6.734   5.609  16.834  0.6234  0.1706 -0.7438
 9587TIP3    H250177   6.683   5.742  16.888 -1.4661 -1.2167  0.8899
 9588TIP3   OH250178   5.951   0.031   3.678  0.4351 -0.0394  0.4521
 9588TIP3    H150179   5.935  -0.031   3.607 -0.6863  1.5240 -0.7387
 9588TIP3    H250180   5.962   0.116   3.634 -2.5123  1.4125  2.1765
 9589TIP3   OH250181   1.133   5.137   5.585  0.0657  0.2517 -0.4293
 9589TIP3    H150182   1.188   5.215   5.591  0.8702 -0.1578 -1.8655
 9589TIP3    H250183   1.158   5.097   5.502 -1.3186 -0.7951 -0.3811
 9590TIP3   OH250184   4.553   3.513   0.720 -0.4052  0.0305  0.1960
 9590TIP3    H150185   4.561   3.451   0.793 -0.9405 -1.3812 -0.8979
 9590TIP3    H250186   4.642   3.521   0.686 -0.0805  1.0076  1.2200
 9591TIP3   OH250187   3.536   4.950  15.589 -0.5170  0.0122  0.0379
 9591TIP3    H150188   3.503   4.898  15.516 -1.0119  0.5311 -0.1113
 9591TIP3    H250189   3.526   5.041  15.560  0.7239  0.1947  0.1219
 9592TIP3   OH250190   6.509   4.790  14.626 -0.2179 -0.4693  0.0864
 9592TIP3    H150191   6.453   4.717  14.601  0.1730 -0.9218  0.5007
 9592TIP3    H250192   6.594   4.750  14.644 -0.3080 -0.1016  1.4919
 9593TIP3   OH250193   3.049   1.284  16.348  0.3319 -0.3165 -0.0583
 9593TIP3    H150194   3.079   1.203  16.390 -0.8460 -1.0319 -0.5340
 9593TIP3    H250195   2.957   1.292  16.374 -1.1907 -1.9769 -4.0579
 9594TIP3   OH250196   3.491   4.932   2.786 -0.1582 -0.3747 -0.4319
 9594TIP3    H150197   3.583   4.907   2.776  0.1044  0.4250 -0.1187
 9594TIP3    H250198   3.456   4.928   2.697  0.4595  0.3176 -0.7250
 9595TIP3   OH250199   2.150   4.216  15.097 -0.6191  0.0931  0.1822
 9595TIP3    H150200   2.206   4.196  15.172  0.5626  1.9567 -0.1306
 9595TIP3    H250201   2.186   4.298  15.061 -1.9443 -0.0527 -1.6369
 9596TIP3   OH250202   3.174   5.911  11.449  0.5890 -0.0762  0.3248
 9596TIP3    H150203   3.152   5.842  11.386 -0.4305 -0.8482  1.4888
 9596TIP3    H250204   3.188   5.989  11.395  1.2262 -1.0471 -0.9725
 9597TIP3   OH250205   2.240   6.062   5.261  0.7065  0.3498 -0.8185
 9597TIP3    H150206   2.315   6.045   5.204  1.1166  0.1638 -0.2294
 9597TIP3    H250207   2.178   5.991   5.243  1.7341 -0.9245  0.4878
 9598TIP3   OH250208   5.467   6.468   5.214 -0.3332  0.0827 -0.3171
 9598TIP3    H150209   5.435   6.556   5.237  1.2476  1.0096 -1.4554
 9598TIP3    H250210   5.428   6.411   5.279 -0.3985  1.8110  1.2428
 9599TIP3   OH250211   4.323   3.969   4.732  0.4133 -0.4359  0.1397
 9599TIP3    H150212   4.266   4.030   4.686 -2.5926 -3.4314 -0.5162
 9599TIP3    H250213   4.279   3.953   4.815  0.3438 -2.6710 -0.2767
 9600TIP3   OH250214   0.338   3.258  15.062  0.1637  0.3055 -0.6941
 9600TIP3    H150215   0.324   3.352  15.052 -1.3430  0.2628  0.6624
 9600TIP3    H250216   0.297   3.219  14.984  1.8268  0.7963 -1.8692
 9601TIP3   OH250217   3.239   6.521  11.775  0.0763  0.5297  0.3907
 9601TIP3    H150218   3.313   6.582  11.770 -0.0251  0.8317  2.0384
 9601TIP3    H250219   3.163   6.578  11.785  0.0057  0.1878  2.2080
 9602TIP3   OH250220   4.906   4.359  14.748 -0.2178  0.7209  0.5223
 9602TIP3    H150221   4.872   4.440  14.786 -0.4158  1.3496 -0.9353
 9602TIP3    H250222   4.829   4.306  14.731 -0.4475  1.6352 -1.6206
 9603TIP3   OH250223   2.096   0.954   4.165  0.7902 -0.0824 -0.0967
 9603TIP3    H150224   2.034   0.886   4.136  0.8708 -0.5523  0.8093
 9603TIP3    H250225   2.052   1.037   4.144  0.0809 -0.4131  0.0715
 9604TIP3   OH250226   3.895   5.514  14.823 -0.2818 -0.3846  0.7550
 9604TIP3    H150227   3.850   5.496  14.906  0.6057 -0.3891  1.2396
 9604TIP3    H250228   3.900   5.429  14.780  0.2787 -0.5977  1.2221
 9605TIP3   OH250229   5.260   2.440  14.709  0.3087 -0.8518  0.2445
 9605TIP3    H150230   5.240   2.371  14.773 -0.5567 -0.9185 -0.0897
 9605TIP3    H250231   5.266   2.394  14.625 -0.1294 -0.5415  0.0404
 9606TIP3   OH250232   6.416   2.362  12.295  0.6189 -0.0113 -0.5215
 9606TIP3    H150233   6.380   2.412  12.369  2.4841 -1.2947  1.3524
 9606TIP3    H250234   6.357   2.287  12.287  0.2127  0.3076 -0.5799
 9607TIP3   OH250235   5.694   4.752  16.388  0.1422  0.0929  0.1566
 9607TIP3    H150236   5.775   4.720  16.348 -0.8927 -0.1354 -1.8816
 9607TIP3    H250237   5.723   4.800  16.466  2.1202 -1.1099  0.2356
 9608TIP3   OH250238   5.013   3.136   0.359 -0.3807 -0.1651  0.8760
 9608TIP3    H150239   5.011   3.110   0.268  1.1595  1.9972  0.1305
 9608TIP3    H250240   5.032   3.055   0.407  0.2027 -1.1056 -0.8488
 9609TIP3   OH250241   3.368   2.330   0.736 -0.2633  0.0102  0.1557
 9609TIP3    H150242   3.405   2.411   0.772  2.2608 -0.3874 -1.3412
 9609TIP3    H250243   3.330   2.356   0.652 -0.1587 -0.2240  0.0358
 9610TIP3   OH250244   3.296   2.246  10.676 -0.0123 -0.2867  0.0218
 9610TIP3    H150245   3.313   2.317  10.739 -0.4306  0.2392 -0.4468
 9610TIP3    H250246   3.318   2.284  10.591 -1.4998 -0.2676 -0.3814
 9611TIP3   OH250247   5.899   2.810   0.611 -0.5749  0.1382  0.0611
 9611TIP3    H150248   5.988   2.834   0.588  0.0860 -1.7045  0.5240
 9611TIP3    H250249   5.880   2.860   0.691  0.7562 -0.8470  1.0359
 9612TIP3   OH250250   3.776   5.157   4.785  0.3717 -0.2800 -0.3112
 9612TIP3    H150251   3.747   5.248   4.778 -1.8538 -0.8517  0.4980
 9612TIP3    H250252   3.700   5.105   4.757  0.9588 -1.9076  0.9400
 9613TIP3   OH250253   2.234   5.366   1.474  0.5317  0.5657  0.1109
 9613TIP3    H150254   2.318   5.340   1.438 -0.7316 -1.6518 -1.4648
 9613TIP3    H250255   2.240   5.345   1.567  1.2866 -0.8694 -0.2309
 9614TIP3   OH250256   5.787   3.705   4.509  0.3055  0.8127  0.4902
 9614TIP3    H150257   5.795   3.628   4.452 -0.4806  1.1600 -0.1114
 9614TIP3    H250258   5.724   3.679   4.576 -0.7873  1.2777 -0.3364
 9615TIP3   OH250259   2.744   1.972   3.631 -0.3758 -0.4622 -0.4189
 9615TIP3    H150260   2.707   2.057   3.659  1.1637  0.8289 -2.0749
 9615TIP3    H250261   2.839   1.985   3.636 -0.1046 -1.6853 -1.8357
 9616TIP3   OH250262   1.695   6.667  15.794  0.0467 -0.2102 -0.5001
 9616TIP3    H150263   1.701   6.760  15.816  0.0336 -0.5503  1.1108
 9616TIP3    H250264   1.784   6.634  15.801  0.0874 -0.2733 -1.2929
 9617TIP3   OH250265   6.144   0.038  14.453  0.2479 -0.2362 -0.1151
 9617TIP3    H150266   6.052   0.015  14.440  0.5723 -0.4227 -2.5709
 9617TIP3    H250267   6.159   0.026  14.546 -2.0286 -0.9061  0.2190
 9618TIP3   OH250268   0.733   0.192  11.437 -0.1042  0.0309  0.0619
 9618TIP3    H150269   0.760   0.283  11.450  1.5412 -0.3152 -0.6919
 9618TIP3    H250270   0.640   0.192  11.458  0.6086  1.0658  4.1596
 9619TIP3   OH250271   1.333   3.059   0.192  0.5708  0.6481  0.2117
 9619TIP3    H150272   1.281   3.113   0.132  1.9239  1.0703 -0.6232
 9619TIP3    H250273   1.272   2.992   0.223 -0.2138  0.5076 -1.5323
 9620TIP3   OH250274   6.609   0.330  12.048  0.0734  0.2075 -0.1365
 9620TIP3    H150275   6.671   0.344  12.120 -0.0514 -3.0390  0.7704
 9620TIP3    H250276   6.640   0.389  11.979  2.1978  1.0686  1.4078
 9621TIP3   OH250277   5.113   2.361  16.268 -0.1813 -0.3368  0.0386
 9621TIP3    H150278   5.044   2.421  16.297 -0.4057 -0.9623  0.8319
 9621TIP3    H250279   5.132   2.307  16.345 -0.9607 -2.2086 -1.0158
 9622TIP3   OH250280   6.496   3.315  14.880 -0.3394 -0.0511  0.1818
 9622TIP3    H150281   6.577   3.348  14.920 -0.0302  1.2625 -1.4140
 9622TIP3    H250282   6.524   3.271  14.800 -1.1799  0.2047 -0.2700
 9623TIP3   OH250283   2.567   1.332   5.818  0.0052  0.0938  0.5266
 9623TIP3    H150284   2.510   1.352   5.744 -0.9391  0.3234  1.2989
 9623TIP3    H250285   2.585   1.238   5.810 -0.9031 -0.0903  0.5696
 9624TIP3   OH250286   1.066   2.677  10.907 -0.3543 -0.1100 -0.3674
 9624TIP3    H150287   1.037   2.587  10.923  0.2134 -1.0825 -3.9954
 9624TIP3    H250288   1.108   2.703  10.990  0.1936 -3.4807  0.5790
 9625TIP3   OH250289   2.891   6.348  13.631  0.7846 -0.1280 -0.1890
 9625TIP3    H150290   2.827   6.278  13.633 -1.0954  1.4995 -0.0585
 9625TIP3    H250291   2.920   6.357  13.722  1.6811 -1.2359 -0.3392
 9626TIP3   OH250292   1.215   3.634  13.136 -0.2239  0.0407  0.3343
 9626TIP3    H150293   1.269   3.555  13.136 -0.9629 -0.5151 -1.5979
 9626TIP3    H250294   1.182   3.640  13.226  0.8992 -1.0914  0.8608
 9627TIP3   OH250295   3.531   2.518  14.118 -0.0864 -0.2245  0.5202
 9627TIP3    H150296   3.551   2.547  14.030  0.5236  0.2395  0.8037
 9627TIP3    H250297   3.505   2.597  14.165 -0.3996 -0.4645  0.7637
 9628TIP3   OH250298   0.750   6.079   4.385 -0.5691 -0.6241 -0.4375
 9628TIP3    H150299   0.736   6.125   4.302  0.6184  0.2347 -0.1771
 9628TIP3    H250300   0.826   6.122   4.425 -0.1742 -2.0068  0.3930
 9629TIP3   OH250301   4.508   0.528   5.208  0.2222 -0.0807  0.0170
 9629TIP3    H150302   4.472   0.486   5.286  2.5753  0.2567  1.3809
 9629TIP3    H250303   4.516   0.621   5.232 -0.5933  0.3536 -1.2759
 9630TIP3   OH250304   0.309   6.074   4.401 -0.0628 -0.2298 -0.4185
 9630TIP3    H150305   0.239   6.088   4.465 -0.4634  0.4771 -1.0073
 9630TIP3    H250306   0.389   6.103   4.446 -0.1298 -1.0003  0.2387
 9631TIP3   OH250307   5.758   0.877  12.461  0.0063  0.3310  0.0055
 9631TIP3    H150308   5.688   0.921  12.509 -1.3540 -0.2582 -1.3706
 9631TIP3    H250309   5.733   0.884  12.369 -0.2459 -3.1862 -0.3127
 9632TIP3   OH250310   6.150   4.680  13.775  0.3797  0.1729 -0.7092
 9632TIP3    H150311   6.173   4.751  13.835  1.2238 -0.8276  0.2066
 9632TIP3    H250312   6.088   4.719  13.714 -0.7733  1.1556  1.0042
 9633TIP3   OH250313   1.318   0.725  13.867  0.0011  0.5011 -0.1182
 9633TIP3    H150314   1.256   0.782  13.912 -1.5613 -1.8445  0.8339
 9633TIP3    H250315   1.319   0.757  13.777 -1.3917  1.5439  0.2059
 9634TIP3   OH250316   5.818   0.311  16.912  0.3698 -0.3870  0.0282
 9634TIP3    H150317   5.803   0.332  17.004 -0.5617 -1.7509  0.2187
 9634TIP3    H250318   5.784   0.386  16.865  1.0139  0.4052  0.7901
 9635TIP3   OH250319   4.151   3.302   4.615  0.3350 -0.2740 -0.3214
 9635TIP3    H150320   4.073   3.250   4.635 -0.6314  0.6553 -1.5909
 9635TIP3    H250321   4.123   3.393   4.622  1.7565  0.1337  0.8527
 9636TIP3   OH250322   3.059   2.889   2.714 -0.4204  0.5686  0.2623
 9636TIP3    H150323   3.104   2.805   2.708 -4.4467 -1.7846 -1.0184
 9636TIP3    H250324   3.086   2.937   2.635  0.4356 -0.3165  0.0039
 9637TIP3   OH250325   2.671   3.193   2.824  0.4207 -0.4175 -0.0261
 9637TIP3    H150326   2.603   3.260   2.816  0.2657 -0.8077 -3.0409
 9637TIP3    H250327   2.623   3.112   2.842  0.3486 -0.2362  0.6129
 9638TIP3   OH250328   5.793   0.100   4.384 -0.6357  0.4073  0.0798
 9638TIP3    H150329   5.710   0.054   4.401 -0.7004  0.1582 -0.8600
 9638TIP3    H250330   5.810   0.085   4.291  1.2816 -0.9004  0.5775
 9639TIP3   OH250331   2.194   2.022   6.661  0.3287 -0.3976  0.4650
 9639TIP3    H150332   2.181   1.966   6.737  0.1365 -0.7843  0.1539
 9639TIP3    H250333   2.237   1.965   6.596  0.5992 -0.0424  0.3254
 9640TIP3   OH250334   3.831   4.378  15.895 -0.4743  0.3491 -0.0587
 9640TIP3    H150335   3.864   4.316  15.829 -2.2932 -0.1913 -0.5121
 9640TIP3    H250336   3.801   4.453  15.844  0.6465  1.1429  0.4084
 9641TIP3   OH250337   6.125   3.333  13.275  0.3558  0.8314 -0.6807
 9641TIP3    H150338   6.219   3.354  13.273  0.1223  2.2090  1.0328
 9641TIP3    H250339   6.106   3.317  13.367 -0.7498 -1.3381 -1.2126
 9642TIP3   OH250340   6.218   4.578   4.520 -0.6643 -0.0665  0.1797
 9642TIP3    H150341   6.198   4.533   4.602 -1.1344  0.3160  0.2805
 9642TIP3    H250342   6.137   4.572   4.468 -0.0707 -1.1532 -0.6692
 9643TIP3   OH250343   4.528   3.417   3.981 -0.1130  0.1256 -0.1351
 9643TIP3    H150344   4.608   3.441   3.933  0.1851  0.6985  0.6256
 9643TIP3    H250345   4.487   3.349   3.927  2.2533 -2.1617  0.7321
 9644TIP3   OH250346   0.397   4.963   3.675 -0.1179  0.4743 -0.0936
 9644TIP3    H150347   0.475   5.019   3.679 -0.0050  0.3011  0.2584
 9644TIP3    H250348   0.353   4.988   3.594 -1.0579  2.3623  0.9416
 9645TIP3   OH250349   3.744   4.516   4.676  0.0357  0.0804  0.2877
 9645TIP3    H150350   3.696   4.450   4.727  0.4604 -1.2242 -0.9337
 9645TIP3    H250351   3.832   4.515   4.713  0.6022 -1.5318 -0.9929
 9646TIP3   OH250352   2.409   4.445  15.167  0.2054  0.2348 -0.2944
 9646TIP3    H150353   2.480   4.385  15.189 -0.4618 -0.4548  0.0343
 9646TIP3    H250354   2.443   4.497  15.094  2.4144  2.4776  2.1175
 9647TIP3   OH250355   6.265   1.688  12.436  0.4243  0.1507  0.2652
 9647TIP3    H150356   6.292   1.629  12.506 -0.0243  0.3730  0.6259
 9647TIP3    H250357   6.300   1.647  12.356 -0.2763 -0.8677  0.4560
 9648TIP3   OH250358   5.228   0.814  15.672 -0.6183  0.0574  0.0282
 9648TIP3    H150359   5.207   0.720  15.669 -0.2626 -0.0450  0.5104
 9648TIP3    H250360   5.287   0.822  15.747 -0.3294  0.6074 -0.2548
 9649TIP3   OH250361   4.638   1.317   2.620 -0.1302 -0.0945  0.3382
 9649TIP3    H150362   4.650   1.260   2.544 -0.2070  0.1184  0.1661
 9649TIP3    H250363   4.715   1.301   2.674 -0.0246 -0.1684  0.1663
 9650TIP3   OH250364   2.644   0.641   3.111  0.5348 -0.1708  0.1462
 9650TIP3    H150365   2.603   0.721   3.079  2.4568  0.6931 -0.2428
 9650TIP3    H250366   2.582   0.572   3.087  0.1356  0.8683 -2.0560
 9651TIP3   OH250367   6.692   0.600  14.369  0.2584 -1.4414 -0.1272
 9651TIP3    H150368   6.614   0.655  14.363  0.7493 -0.7152 -0.0396
 9651TIP3    H250369   6.659   0.511  14.362 -0.6213 -1.1632  0.2767
 9652TIP3   OH250370   2.726   4.015   3.189  0.5529 -0.3537 -0.5309
 9652TIP3    H150371   2.674   4.094   3.179  2.5107  1.0777 -0.0169
 9652TIP3    H250372   2.683   3.950   3.132 -0.8368  1.1866 -1.3093
 9653TIP3   OH250373   2.593   4.668   1.089 -0.4718  0.3097 -0.4897
 9653TIP3    H150374   2.651   4.630   1.023 -1.3676  0.5653 -1.4582
 9653TIP3    H250375   2.531   4.597   1.108 -0.6532  0.4716 -0.4755
 9654TIP3   OH250376   1.496   1.141  13.437  0.6782 -0.0456  0.0412
 9654TIP3    H150377   1.423   1.109  13.384 -0.9154  0.2895  1.9159
 9654TIP3    H250378   1.487   1.236  13.436  0.3731 -0.0496  1.2113
 9655TIP3   OH250379   2.960   3.638   3.621  0.0636  0.7800  0.5103
 9655TIP3    H150380   2.989   3.568   3.679 -0.0252  1.1510  1.0020
 9655TIP3    H250381   2.867   3.648   3.639 -0.3217 -0.1138 -0.7640
 9656TIP3   OH250382   4.469   5.129  14.214 -0.5988  0.3631 -0.0279
 9656TIP3    H150383   4.483   5.039  14.244  2.0358  0.2602 -1.2740
 9656TIP3    H250384   4.377   5.132  14.189 -1.2653 -1.3555  1.9331
 9657TIP3   OH250385   1.570   2.995   1.854 -0.1258 -0.5105 -0.1465
 9657TIP3    H150386   1.649   2.964   1.900 -0.9456 -0.4836  1.3430
 9657TIP3    H250387   1.571   3.090   1.866 -1.3172 -0.6530  1.5561
 9658TIP3   OH250388   3.875   1.937   1.375  0.0665 -0.3949  0.8924
 9658TIP3    H150389   3.909   2.023   1.401 -0.7069 -0.1717  1.1932
 9658TIP3    H250390   3.952   1.880   1.375  0.4753  0.1379  1.3782
 9659TIP3   OH250391   4.246   1.013   1.016 -0.2308 -0.5327  0.1331
 9659TIP3    H150392   4.151   1.005   1.028  0.0593 -0.6608  2.8617
 9659TIP3    H250393   4.275   0.926   0.991 -0.5151 -1.3402  2.3868
 9660TIP3   OH250394   2.929   2.537  16.173  0.1392  0.0168  0.1170
 9660TIP3    H150395   3.021   2.513  16.164  0.2882  0.3651  0.6765
 9660TIP3    H250396   2.923   2.625  16.136  0.0192 -0.0282  0.0289
 9661TIP3   OH250397   5.865   3.235   2.888 -0.7162  0.5237 -0.4775
 9661TIP3    H150398   5.903   3.322   2.879  0.3252  0.2047  0.5603
 9661TIP3    H250399   5.874   3.214   2.981 -1.4020 -0.4930 -0.6146
 9662TIP3   OH250400   0.632   5.905   3.953 -0.5704  0.3371  0.4285
 9662TIP3    H150401   0.610   5.913   4.046 -0.8976 -0.7853  0.4604
 9662TIP3    H250402   0.613   5.992   3.917 -2.1861  0.2924  1.0580
 9663TIP3   OH250403   0.725   0.719  14.699 -0.2787  0.0704 -0.0502
 9663TIP3    H150404   0.727   0.777  14.623 -0.0383 -0.2433 -0.2878
 9663TIP3    H250405   0.653   0.658  14.680  0.2999 -0.5134 -0.4113
 9664TIP3   OH250406   0.255   5.492   1.132 -0.5077  0.6407  0.4058
 9664TIP3    H150407   0.226   5.466   1.220 -0.5121 -2.1114 -0.3145
 9664TIP3    H250408   0.193   5.450   1.073  1.2345 -0.1274 -0.9843
 9665TIP3   OH250409   4.183   4.895  15.659  0.0574 -0.3961  0.5904
 9665TIP3    H150410   4.258   4.858  15.612  0.6486  0.2590  1.0072
 9665TIP3    H250411   4.193   4.990  15.648 -0.6965 -0.3015  0.6799
 9666TIP3   OH250412   0.440   2.621   0.519  0.0017  0.0373  0.6587
 9666TIP3    H150413   0.472   2.592   0.605 -0.7899 -3.6924 -0.1061
 9666TIP3    H250414   0.346   2.631   0.531  0.2359  2.5311  0.8604
 9667TIP3   OH250415   5.856   0.894  15.215 -0.1858 -0.2054  0.4763
 9667TIP3    H150416   5.797   0.932  15.150 -1.0620  1.3251  2.0613
 9667TIP3    H250417   5.930   0.953  15.219  0.4279 -0.9333  0.0505
 9668TIP3   OH250418   2.008   6.478  15.668 -0.3920  0.1439  1.1047
 9668TIP3    H150419   2.020   6.555  15.723  0.5563  0.2112  0.8061
 9668TIP3    H250420   2.095   6.441  15.658 -0.4892  0.3048 -0.6146
 9669TIP3   OH250421   4.696   4.630   4.721 -0.0028  0.0138  0.0112
 9669TIP3    H150422   4.628   4.619   4.788  0.8379 -2.2865  0.5900
 9669TIP3    H250423   4.695   4.548   4.672 -1.1333  1.9146 -3.4443
 9670TIP3   OH250424   5.819   4.661  11.460  0.0441 -0.0686  0.2935
 9670TIP3    H150425   5.911   4.665  11.436  0.0305 -1.2183 -0.0025
 9670TIP3    H250426   5.772   4.656  11.376 -0.3983  1.7200  0.3781
 9671TIP3   OH250427   3.073   6.218   5.061 -1.0452  0.0267 -0.0629
 9671TIP3    H150428   3.003   6.275   5.028 -0.7616  1.5985  1.8249
 9671TIP3    H250429   3.144   6.279   5.084  2.1225 -1.6114 -4.1732
 9672TIP3   OH250430   0.239   6.655   2.209  0.4491 -0.0386 -0.3468
 9672TIP3    H150431   0.195   6.620   2.132 -0.6619 -1.0061  0.6777
 9672TIP3    H250432   0.208   6.745   2.215  0.7812  0.1392 -1.1832
 9673TIP3   OH250433   6.389   3.938   0.314  0.5030  0.0081 -0.1761
 9673TIP3    H150434   6.307   3.887   0.316 -0.3247  1.3013  1.1078
 9673TIP3    H250435   6.424   3.929   0.403  1.4984 -0.1111 -0.5744
 9674TIP3   OH250436   3.388   1.999   6.387 -0.2729  0.0026  0.3006
 9674TIP3    H150437   3.364   2.054   6.461 -0.3911  1.0117 -0.4590
 9674TIP3    H250438   3.479   1.973   6.405  0.2493  1.5551  0.0516
 9675TIP3   OH250439   0.923   2.532   4.819 -0.5460  0.1330  0.0370
 9675TIP3    H150440   0.978   2.507   4.894 -1.8427  0.7027  1.2405
 9675TIP3    H250441   0.848   2.576   4.859 -2.7261 -2.0680 -1.4038
 9676TIP3   OH250442   0.884   6.769  11.599 -0.2654  0.0225 -0.2066
 9676TIP3    H150443   0.835   6.688  11.589  0.2975 -0.2889 -0.5397
 9676TIP3    H250444   0.832   6.834  11.552 -0.4297 -0.2727 -0.4415
 9677TIP3   OH250445   4.394   2.477  14.542  0.4977 -0.5208 -0.3105
 9677TIP3    H150446   4.412   2.570  14.555 -0.9936  0.0005 -1.6446
 9677TIP3    H250447   4.430   2.458  14.455 -1.5913 -0.4621 -1.2467
 9678TIP3   OH250448   2.639   5.807   0.483 -0.8187 -0.1893 -0.2893
 9678TIP3    H150449   2.614   5.717   0.461  0.0374 -0.4971 -0.0360
 9678TIP3    H250450   2.563   5.860   0.456 -1.6858 -1.0735  0.3199
 9679TIP3   OH250451   1.940   0.723   5.632  0.3146 -0.7999  0.7470
 9679TIP3    H150452   1.847   0.737   5.615  0.6720  0.5054 -0.3774
 9679TIP3    H250453   1.943   0.657   5.701 -1.4906  0.3906  2.0498
 9680TIP3   OH250454   2.367   3.012   5.357 -0.5743 -0.4145  0.0984
 9680TIP3    H150455   2.360   3.100   5.394 -2.1532  0.4563 -2.0333
 9680TIP3    H250456   2.358   2.954   5.432 -3.4976  1.2208  1.1905
 9681TIP3   OH250457   6.195   1.383  11.967  0.4186  0.0220 -0.6203
 9681TIP3    H150458   6.190   1.290  11.945  0.8455 -1.4275  4.2936
 9681TIP3    H250459   6.144   1.392  12.047  1.9228  3.6467  0.1334
 9682TIP3   OH250460   2.776   3.494   6.767  0.0269  0.2036 -0.2237
 9682TIP3    H150461   2.781   3.589   6.753 -1.6657  0.0776 -1.9537
 9682TIP3    H250462   2.700   3.465   6.716  1.4074 -2.3223 -1.0493
 9683TIP3   OH250463   1.630   6.500  16.952  0.1829  0.5062 -0.0984
 9683TIP3    H150464   1.668   6.556  17.020  0.2255  1.1113 -0.6114
 9683TIP3    H250465   1.622   6.557  16.875 -0.3931 -0.0139 -0.4339
 9684TIP3   OH250466   5.108   3.618  16.272 -0.0023 -0.0313 -0.2312
 9684TIP3    H150467   5.100   3.670  16.192 -0.9365  0.5596  0.2319
 9684TIP3    H250468   5.063   3.669  16.339 -0.9107 -1.3856  0.2505
 9685TIP3   OH250469   5.430   5.861  13.461 -0.0548 -0.2241  0.0836
 9685TIP3    H150470   5.405   5.947  13.425  0.7941  0.3028  0.7202
 9685TIP3    H250471   5.451   5.879  13.553  1.2849 -0.8939 -0.0703
 9686TIP3   OH250472   6.627   6.427  12.010  0.4382  0.0444 -0.4349
 9686TIP3    H150473   6.572   6.430  12.088 -1.9335  0.0415 -1.9774
 9686TIP3    H250474   6.666   6.515  12.005 -0.3878  0.4609  0.0904
 9687TIP3   OH250475   4.781   3.630  15.314  0.7255 -0.1039  0.0139
 9687TIP3    H150476   4.769   3.724  15.324  0.0263 -0.2953  1.0288
 9687TIP3    H250477   4.714   3.603  15.251 -0.8428 -0.3305  1.7250
 9688TIP3   OH250478   1.773   3.790  12.082 -0.2727  0.6343  0.8826
 9688TIP3    H150479   1.726   3.835  12.013 -0.2082  2.8873  2.1922
 9688TIP3    H250480   1.705   3.764  12.145 -0.1567  0.2921  0.8668
 9689TIP3   OH250481   0.519   5.235   2.137  0.7769 -0.0250 -0.2815
 9689TIP3    H150482   0.538   5.319   2.177  2.0557 -0.4259  0.0316
 9689TIP3    H250483   0.490   5.256   2.048 -3.0103  0.9248  1.0084
 9690TIP3   OH250484   5.814   6.121   1.335 -0.1697  0.1072  0.0166
 9690TIP3    H150485   5.890   6.119   1.394 -0.3659 -0.0383  0.2705
 9690TIP3    H250486   5.756   6.186   1.374 -2.1704 -2.7942  2.3970
 9691TIP3   OH250487   0.599   2.817   0.848  0.3921 -0.5503  0.4326
 9691TIP3    H150488   0.633   2.873   0.919  1.0555 -0.5752  0.1348
 9691TIP3    H250489   0.511   2.794   0.877  0.2574  0.3290  0.7493
 9692TIP3   OH250490   5.634   4.559   1.743 -0.3797  0.3106  0.5737
 9692TIP3    H150491   5.562   4.621   1.751 -0.8759 -0.2612  0.6169
 9692TIP3    H250492   5.607   4.499   1.673  0.4681  0.6375 -0.0512
 9693TIP3   OH250493   3.407   5.391   4.129 -0.1778  0.8114  1.0582
 9693TIP3    H150494   3.379   5.480   4.146 -3.1190  0.0585  0.6582
 9693TIP3    H250495   3.340   5.355   4.070  2.9809 -0.4576 -2.1940
 9694TIP3   OH250496   1.081   0.611   4.873 -0.1829  0.6112 -0.0973
 9694TIP3    H150497   1.136   0.540   4.905  0.4383  0.1603 -1.9870
 9694TIP3    H250498   0.996   0.597   4.913 -0.0365 -1.1415 -0.3332
 9695TIP3   OH250499   2.232   2.804   5.577  0.3279 -0.2421 -0.1941
 9695TIP3    H150500   2.314   2.786   5.532  0.4477 -4.3863  1.2281
 9695TIP3    H250501   2.259   2.835   5.664  0.2336  1.5265 -0.7617
 9696TIP3   OH250502   5.816   3.057  14.386 -0.1952  0.2609 -0.0378
 9696TIP3    H150503   5.804   2.963  14.400 -3.4262  0.1039 -2.5037
 9696TIP3    H250504   5.747   3.098  14.438 -0.3558  1.0494 -0.8393
 9697TIP3   OH250505   2.969   1.635   2.706 -0.4839 -0.4572 -0.3946
 9697TIP3    H150506   3.046   1.678   2.744 -1.4118  0.4927  0.4644
 9697TIP3    H250507   2.970   1.661   2.614  0.2636 -0.5346 -0.4161
 9698TIP3   OH250508   1.889   3.992   4.988 -0.1631  0.3590  0.1313
 9698TIP3    H150509   1.888   4.058   5.057  0.9903 -0.1318  0.6469
 9698TIP3    H250510   1.925   3.914   5.030 -1.8138 -0.7368 -0.3599
 9699TIP3   OH250511   3.644   3.693  15.892  0.3855 -0.4370  0.3787
 9699TIP3    H150512   3.572   3.651  15.939 -0.1181  0.0994  0.1137
 9699TIP3    H250513   3.661   3.636  15.817 -0.7889  0.1769 -0.3857
 9700TIP3   OH250514   1.855   6.162   2.765 -0.4735 -0.3745 -0.2586
 9700TIP3    H150515   1.899   6.182   2.682  2.3729 -0.1909  1.1652
 9700TIP3    H250516   1.896   6.080   2.794 -2.9143 -1.5728  0.0469
 9701TIP3   OH250517   2.028   0.412   1.622 -0.1969  0.5532  0.9919
 9701TIP3    H150518   1.939   0.400   1.589 -0.2764  0.5778  1.1917
 9701TIP3    H250519   2.085   0.375   1.555 -0.4397 -1.2383  1.7302
 9702TIP3   OH250520   1.707   1.054  16.446 -0.1759  0.3034  0.1855
 9702TIP3    H150521   1.717   1.068  16.352 -0.7182  0.8153  0.1958
 9702TIP3    H250522   1.750   0.971  16.463  1.7121  1.1524 -0.1682
 9703TIP3   OH250523   6.451   3.698   0.681  0.0485 -0.7302  0.0162
 9703TIP3    H150524   6.408   3.776   0.647  2.1594 -0.6306 -2.6791
 9703TIP3    H250525   6.488   3.726   0.765 -1.9722  0.1456  0.6898
 9704TIP3   OH250526   0.570   3.220  12.387  0.5028 -0.0380  0.1083
 9704TIP3    H150527   0.652   3.265  12.406  0.3526  0.0268  0.6170
 9704TIP3    H250528   0.560   3.227  12.292  0.4863  1.0124  0.1783
 9705TIP3   OH250529   5.733   6.562  14.220  0.0138 -0.3771  0.3680
 9705TIP3    H150530   5.712   6.498  14.153  1.1222  0.4263 -0.8024
 9705TIP3    H250531   5.795   6.622  14.178 -1.0653  1.5470  1.3610
 9706TIP3   OH250532   6.092   3.237   5.650 -0.1571 -0.0425 -0.4211
 9706TIP3    H150533   6.131   3.270   5.569  0.7503  2.8022  1.0128
 9706TIP3    H250534   6.004   3.275   5.651 -0.4723 -0.7626 -0.4505
 9707TIP3   OH250535   3.651   2.819   0.062  0.2025 -0.2586 -0.4813
 9707TIP3    H150536   3.617   2.858   0.142 -0.0369  1.0438 -1.2010
 9707TIP3    H250537   3.696   2.740   0.092  1.5057  1.0141  1.1398
 9708TIP3   OH250538   0.614   3.858   3.359 -0.4790 -0.1702 -0.0565
 9708TIP3    H150539   0.705   3.886   3.347 -0.3504 -0.3721  0.4402
 9708TIP3    H250540   0.618   3.789   3.425 -0.8888 -0.8573 -0.7354
 9709TIP3   OH250541   3.366   1.709   4.261  0.6327  0.6347  0.2250
 9709TIP3    H150542   3.386   1.616   4.266 -2.4747 -0.1268  0.4769
 9709TIP3    H250543   3.378   1.731   4.169 -1.7352 -0.9012 -0.5312
 9710TIP3   OH250544   1.039   0.456  14.101  0.0314 -0.0790  0.3804
 9710TIP3    H150545   1.109   0.473  14.039 -0.4393  0.9390  0.0976
 9710TIP3    H250546   0.959   0.480  14.054 -0.4826 -0.9142  0.8050
 9711TIP3   OH250547   0.820   0.525   4.932  0.4308 -0.1458 -0.6507
 9711TIP3    H150548   0.829   0.619   4.917 -1.2095  0.1044 -0.2848
 9711TIP3    H250549   0.756   0.496   4.867 -0.8856 -0.5149  0.7412
 9712TIP3   OH250550   1.221   6.053  16.544  0.5414  0.1904 -0.3259
 9712TIP3    H150551   1.157   6.057  16.472  1.8421  0.3534 -1.5090
 9712TIP3    H250552   1.305   6.072  16.503  1.3472  0.1754  1.2386
 9713TIP3   OH250553   5.077   0.476  14.553 -0.4308 -0.2161  0.4520
 9713TIP3    H150554   5.146   0.541  14.557 -1.2410  0.7943 -1.0770
 9713TIP3    H250555   5.087   0.425  14.634  1.6110  0.3608  0.6047
 9714TIP3   OH250556   3.068   5.345   2.919 -0.2816 -0.1916  0.1392
 9714TIP3    H150557   3.062   5.287   2.843  1.5945  0.8016 -0.8214
 9714TIP3    H250558   3.152   5.323   2.959 -1.0019 -0.3220  1.6514
 9715TIP3   OH250559   3.342   3.125   3.126 -0.3181 -0.0680 -0.3256
 9715TIP3    H150560   3.371   3.057   3.187 -0.4245 -1.1307 -1.4113
 9715TIP3    H250561   3.292   3.077   3.060 -1.5384  1.2576 -0.4082
 9716TIP3   OH250562   5.578   0.369   2.071 -0.0852  0.2145  0.4960
 9716TIP3    H150563   5.566   0.332   1.984  0.5730 -1.1319  0.9494
 9716TIP3    H250564   5.489   0.378   2.106 -0.6033  3.2525 -1.2336
 9717TIP3   OH250565   1.549   5.117   4.555 -0.4296 -0.2433 -0.0167
 9717TIP3    H150566   1.505   5.199   4.534 -1.1262 -0.6767 -0.2899
 9717TIP3    H250567   1.510   5.053   4.496  0.9539 -0.5464 -0.6596
 9718TIP3   OH250568   3.858   1.412   5.012 -0.0930  0.7015 -0.3953
 9718TIP3    H150569   3.825   1.365   5.089 -0.5487 -1.8219 -2.0262
 9718TIP3    H250570   3.953   1.404   5.019 -0.1593 -1.8850 -1.3599
 9719TIP3   OH250571   5.802   2.067   1.790 -0.0534 -0.1861  0.0482
 9719TIP3    H150572   5.820   1.979   1.756 -2.0600 -0.1365 -1.3276
 9719TIP3    H250573   5.759   2.052   1.874  1.0802 -0.4357  0.6065
 9720TIP3   OH250574   3.755   2.492  13.141  0.2083 -0.1296  0.0613
 9720TIP3    H150575   3.726   2.506  13.051 -0.0285  0.2019  0.1867
 9720TIP3    H250576   3.699   2.422  13.174 -0.0812  0.1363  0.1306
 9721TIP3   OH250577   2.861   6.724  11.954  0.0923 -0.1337 -0.6980
 9721TIP3    H150578   2.853   6.702  12.047  1.3376 -0.3765 -0.6291
 9721TIP3    H250579   2.852   6.639  11.909 -3.0504  0.2574 -1.0327
 9722TIP3   OH250580   0.713   2.332   2.320  0.2057  0.2044 -0.5769
 9722TIP3    H150581   0.633   2.323   2.269 -0.4738 -1.8692  0.7113
 9722TIP3    H250582   0.739   2.242   2.341  2.2746  0.8623 -0.0470
 9723TIP3   OH250583   5.144   4.307  16.871 -0.0322  0.1043 -0.3090
 9723TIP3    H150584   5.049   4.317  16.862 -0.1431 -0.3899  0.2710
 9723TIP3    H250585   5.175   4.293  16.781 -1.0742 -4.3788 -0.2282
 9724TIP3   OH250586   1.976   3.345  15.847 -0.0203 -0.2207  0.2575
 9724TIP3    H150587   1.944   3.422  15.894 -3.1950  0.1139 -2.1657
 9724TIP3    H250588   2.013   3.380  15.766 -0.7157 -1.1621 -0.4862
 9725TIP3   OH250589   1.222   3.409   6.539  0.0778 -0.6799 -0.2294
 9725TIP3    H150590   1.177   3.483   6.500  1.3220 -0.7173 -1.8151
 9725TIP3    H250591   1.169   3.333   6.514  0.5152 -0.6343 -1.3641
 9726TIP3   OH250592   0.939   3.552  10.533  0.1456 -0.7974  0.3052
 9726TIP3    H150593   0.943   3.476  10.592  0.9677 -0.4260  0.7441
 9726TIP3    H250594   0.893   3.619  10.584  0.0767 -0.7613  0.1952
 9727TIP3   OH250595   3.158   4.094   3.523 -0.5120 -0.3470  0.2108
 9727TIP3    H150596   3.088   4.029   3.522 -0.9821  0.0827  1.6813
 9727TIP3    H250597   3.231   4.050   3.568 -0.3404 -0.3201 -0.0410
 9728TIP3   OH250598   6.012   4.140   6.499 -0.4302  0.3362 -0.1316
 9728TIP3    H150599   5.953   4.196   6.550  0.4499  0.0645  1.2446
 9728TIP3    H250600   6.094   4.189   6.496  0.1655 -0.5864  0.5657
 9729TIP3   OH250601   5.541   5.729   3.919  0.1620  0.3978 -0.1026
 9729TIP3    H150602   5.520   5.639   3.941  0.3693  0.6194  1.0567
 9729TIP3    H250603   5.607   5.755   3.983  0.7525  1.1007 -0.9620
 9730TIP3   OH250604   3.117   2.312   3.372 -0.0687  0.0339 -0.3318
 9730TIP3    H150605   3.175   2.388   3.373 -0.7691  0.5746  0.2020
 9730TIP3    H250606   3.155   2.253   3.306  0.4575  0.8577 -0.7736
 9731TIP3   OH250607   4.459   0.639  10.817 -0.1834  0.0137  0.8935
 9731TIP3    H150608   4.394   0.666  10.881 -0.7133  1.0490 -0.0618
 9731TIP3    H250609   4.493   0.720  10.780  1.8265 -0.4796  1.5081
 9732TIP3   OH250610   5.162   4.025   2.106  0.6089  0.2363  0.0016
 9732TIP3    H150611   5.150   4.052   2.197 -0.0615  0.6543 -0.2023
 9732TIP3    H250612   5.173   4.107   2.058  1.8950 -0.0134 -0.1837
 9733TIP3   OH250613   5.378   0.750   1.421 -0.0351  0.8924 -0.7129
 9733TIP3    H150614   5.340   0.779   1.505 -0.6561  0.6064 -0.8903
 9733TIP3    H250615   5.429   0.825   1.391  1.3779  0.5061  0.6140
 9734TIP3   OH250616   2.297   0.988  16.193  0.3240  0.0750 -0.4634
 9734TIP3    H150617   2.351   1.063  16.219  0.2411 -0.0424  0.0496
 9734TIP3    H250618   2.310   0.981  16.099  0.7179  0.4315 -0.4365
 9735TIP3   OH250619   1.707   3.983   1.901  0.1023  0.2195 -0.6547
 9735TIP3    H150620   1.667   4.069   1.893 -2.5708 -0.7835  0.6011
 9735TIP3    H250621   1.775   3.994   1.967 -0.1615  1.3720 -0.5573
 9736TIP3   OH250622   2.371   6.257  12.889  0.1088 -0.5346 -0.6682
 9736TIP3    H150623   2.414   6.212  12.817 -1.9908 -2.3608 -0.9046
 9736TIP3    H250624   2.363   6.191  12.958  0.0095  0.5065  0.3609
 9737TIP3   OH250625   1.724   1.321  14.402  0.1705 -0.1562 -0.4888
 9737TIP3    H150626   1.750   1.410  14.424  0.0987 -0.4720  0.9494
 9737TIP3    H250627   1.760   1.267  14.472  0.0823 -1.2462 -1.2572
 9738TIP3   OH250628   6.499   5.893   3.782  0.2339  0.0750  0.4412
 9738TIP3    H150629   6.461   5.846   3.857  0.3394 -1.3852 -0.3722
 9738TIP3    H250630   6.516   5.824   3.718  1.7792  1.0460 -0.2485
 9739TIP3   OH250631   6.110   5.245   6.024 -0.4840 -0.0225  0.3045
 9739TIP3    H150632   6.160   5.165   6.010 -0.4342 -0.0240  0.4976
 9739TIP3    H250633   6.022   5.225   5.991 -1.2549 -1.0509  2.8170
 9740TIP3   OH250634   4.410   5.201   0.525  0.3334  0.1040  0.1367
 9740TIP3    H150635   4.450   5.115   0.507  0.1940 -0.3046  1.6906
 9740TIP3    H250636   4.320   5.192   0.495  0.8723  0.4690 -1.7761
 9741TIP3   OH250637   6.226   5.644  16.344  0.1255 -0.3291 -0.5784
 9741TIP3    H150638   6.199   5.560  16.308 -3.1534  1.4330 -2.8105
 9741TIP3    H250639   6.179   5.652  16.426 -2.9978  0.8204 -2.3039
 9742TIP3   OH250640   1.220   1.339   2.144  0.1462 -0.0445 -0.3851
 9742TIP3    H150641   1.268   1.275   2.092  0.7065 -0.3175  0.4301
 9742TIP3    H250642   1.202   1.411   2.084  2.7300  0.6519 -0.4724
 9743TIP3   OH250643   4.991   0.943  12.211  0.1922  0.2896  0.9028
 9743TIP3    H150644   4.966   0.867  12.263  1.8865 -1.2706 -0.4239
 9743TIP3    H250645   4.909   0.988  12.193 -0.7733 -0.8372  2.2803
 9744TIP3   OH250646   4.492   0.429  14.668 -0.7755 -0.1297  0.3179
 9744TIP3    H150647   4.477   0.336  14.685 -2.1222  0.0258  0.0827
 9744TIP3    H250648   4.481   0.470  14.754  2.0247 -0.3760  0.9048
 9745TIP3   OH250649   4.873   6.275   0.550 -0.3413 -0.2700 -0.4153
 9745TIP3    H150650   4.797   6.317   0.509 -0.6115  0.4582  0.7986
 9745TIP3    H250651   4.908   6.217   0.482  0.8268  2.8241 -2.7042
 9746TIP3   OH250652   5.652   6.204  12.305 -0.0519  0.4346  0.1668
 9746TIP3    H150653   5.683   6.154  12.229  1.1779  1.3222  0.0629
 9746TIP3    H250654   5.570   6.244  12.276  1.0785  1.8679 -1.1940
 9747TIP3   OH250655   4.193   4.523  15.533  0.3503 -0.6934 -0.4544
 9747TIP3    H150656   4.223   4.438  15.564 -0.2084 -0.4483  0.8377
 9747TIP3    H250657   4.259   4.585  15.564  0.6443 -0.6194 -1.2067
 9748TIP3   OH250658   6.518   2.559   5.268 -0.2073 -0.1005 -0.2084
 9748TIP3    H150659   6.548   2.584   5.181  0.2320  1.6646  0.4170
 9748TIP3    H250660   6.585   2.497   5.299  0.3505  0.2905 -0.6086
 9749TIP3   OH250661   3.580   2.402  16.708 -0.5121  0.0919  0.0341
 9749TIP3    H150662   3.586   2.307  16.714  0.5309  0.2031  1.1857
 9749TIP3    H250663   3.670   2.433  16.719 -1.0840  1.2897  1.8910
 9750TIP3   OH250664   3.247   2.203  15.544 -0.0127 -0.6527 -0.7310
 9750TIP3    H150665   3.245   2.261  15.620  0.2254  0.5834 -1.6212
 9750TIP3    H250666   3.224   2.260  15.470  1.2945 -1.4387 -1.7986
 9751TIP3   OH250667   3.929   3.035  11.748  0.3917  0.7835  0.4067
 9751TIP3    H150668   4.016   3.062  11.777  1.9294 -1.5463 -1.6408
 9751TIP3    H250669   3.937   3.024  11.653 -1.5852 -1.2431  0.3869
 9752TIP3   OH250670   0.231   4.604  15.279 -0.3986  0.5102  0.1064
 9752TIP3    H150671   0.251   4.690  15.242  0.2899  0.4293  0.2673
 9752TIP3    H250672   0.209   4.550  15.203 -4.0168  1.5858  0.2190
 9753TIP3   OH250673   1.971   3.860  16.394 -0.7371  0.6459  0.5775
 9753TIP3    H150674   2.006   3.878  16.307  0.8760  0.7394  1.2154
 9753TIP3    H250675   1.951   3.766  16.392  2.7039 -0.2451  1.1522
 9754TIP3   OH250676   4.242   6.785  16.489  0.1875 -0.6002 -0.2123
 9754TIP3    H150677   4.333   6.774  16.461  0.6542  1.7154  0.2561
 9754TIP3    H250678   4.205   6.850  16.429 -0.4895  0.1384  0.9601
 9755TIP3   OH250679   1.844   4.669   0.264  0.0905 -0.9084 -0.1030
 9755TIP3    H150680   1.755   4.699   0.282  0.0163 -2.1567  2.0064
 9755TIP3    H250681   1.897   4.711   0.332  1.2569  0.2918 -1.6974
 9756TIP3   OH250682   5.370   3.283  12.585 -0.1587  0.4073  0.1352
 9756TIP3    H150683   5.398   3.342  12.655 -2.6807 -1.6455  3.1970
 9756TIP3    H250684   5.306   3.334  12.535 -0.4175  1.0750  1.1194
 9757TIP3   OH250685   2.136   1.725  13.192  0.2905 -0.5882 -0.0668
 9757TIP3    H150686   2.166   1.660  13.128  1.6626 -0.1972  0.1611
 9757TIP3    H250687   2.107   1.799  13.139  3.9414  0.8545 -0.3040
 9758TIP3   OH250688   0.583   1.566  12.598 -0.2810  0.3634  0.3468
 9758TIP3    H150689   0.617   1.651  12.571  0.7345 -0.1694 -0.1260
 9758TIP3    H250690   0.611   1.555  12.689 -1.0251  0.8236  0.6420
 9759TIP3   OH250691   6.342   3.469   1.949  0.6940  0.3522  0.2748
 9759TIP3    H150692   6.407   3.536   1.971  1.2518 -0.1832  0.2717
 9759TIP3    H250693   6.385   3.416   1.881  0.1998  0.0779  0.1765
 9760TIP3   OH250694   2.859   3.545   4.282 -0.1157  0.5335 -0.0382
 9760TIP3    H150695   2.857   3.494   4.362  1.3538 -0.1284 -0.3855
 9760TIP3    H250696   2.835   3.634   4.309 -1.4657 -0.0462  0.7829
 9761TIP3   OH250697   5.965   4.904  15.838  0.1322 -0.3033  0.0822
 9761TIP3    H150698   6.047   4.862  15.864 -0.3447 -1.6850 -0.5409
 9761TIP3    H250699   5.942   4.960  15.912  3.5690  3.2022 -1.2243
 9762TIP3   OH250700   5.702   1.149  16.441 -0.3672 -0.2292 -0.0414
 9762TIP3    H150701   5.618   1.166  16.485 -0.6241 -1.1075 -0.1696
 9762TIP3    H250702   5.719   1.229  16.391 -0.4917  0.4552  0.9726
 9763TIP3   OH250703   5.650   4.019  15.599 -0.2766 -0.3583  0.0784
 9763TIP3    H150704   5.740   3.990  15.611 -0.2503  0.4479  2.2565
 9763TIP3    H250705   5.610   3.951  15.545  1.1837 -1.6077  0.5024
 9764TIP3   OH250706   0.931   4.935   2.980  0.6296  0.0323  0.6790
 9764TIP3    H150707   0.931   4.840   2.979  0.4392  0.0291  1.0768
 9764TIP3    H250708   1.023   4.959   2.988  0.8872 -0.0946 -1.3590
 9765TIP3   OH250709   1.851   2.995  16.373 -0.7204 -0.1230  0.2143
 9765TIP3    H150710   1.910   2.925  16.404  1.7059  2.0900  0.9438
 9765TIP3    H250711   1.781   2.997  16.437 -0.1931 -1.0894  0.8559
 9766TIP3   OH250712   6.045   4.234  15.442 -0.1621 -0.0082  0.5614
 9766TIP3    H150713   6.021   4.143  15.424 -2.0072  0.3246  1.0462
 9766TIP3    H250714   6.093   4.262  15.365 -3.3401 -0.1532 -1.6861
 9767TIP3   OH250715   6.435   5.127  11.916  1.0072 -0.3155 -0.1063
 9767TIP3    H150716   6.400   5.051  11.964 -0.8764  0.5094 -0.1050
 9767TIP3    H250717   6.412   5.202  11.971 -0.2157  0.5524 -1.7447
 9768TIP3   OH250718   5.295   5.997  16.396  0.2548 -0.6802 -0.0297
 9768TIP3    H150719   5.286   6.091  16.377  0.1991 -0.6395  0.1964
 9768TIP3    H250720   5.368   5.993  16.459  2.4610 -1.0653 -2.4496
 9769TIP3   OH250721   3.505   3.082  11.828 -0.0768 -0.1983 -0.1652
 9769TIP3    H150722   3.510   3.023  11.753 -0.8344 -0.5541  0.0582
 9769TIP3    H250723   3.510   3.024  11.904  0.5634  0.1488  0.0698
 9770TIP3   OH250724   4.769   3.995   2.739 -0.1566 -0.0718 -0.0616
 9770TIP3    H150725   4.742   3.940   2.813 -0.9080  0.3046 -0.0374
 9770TIP3    H250726   4.773   3.935   2.665  0.4197 -0.4174  0.2453
 9771TIP3   OH250727   2.659   2.611   4.002 -0.1906  0.2194  0.4400
 9771TIP3    H150728   2.694   2.587   4.088 -2.1597  0.3880  1.3408
 9771TIP3    H250729   2.648   2.528   3.957  2.1175  0.2080 -0.2349
 9772TIP3   OH250730   1.649   6.571   4.354 -0.5129  0.4039  0.3629
 9772TIP3    H150731   1.686   6.624   4.284 -1.9804  0.4226 -0.4481
 9772TIP3    H250732   1.557   6.598   4.358 -0.8113 -0.6545  1.3054
 9773TIP3   OH250733   1.356   2.659  14.176 -0.4001 -0.3353 -0.3459
 9773TIP3    H150734   1.315   2.573  14.163  3.9335 -2.7795  0.3287
 9773TIP3    H250735   1.320   2.691  14.259 -2.2881 -1.3003 -0.7352
 9774TIP3   OH250736   5.646   5.907   0.113  0.6562 -0.2439  0.2110
 9774TIP3    H150737   5.692   5.870   0.188 -2.4851  0.6878  2.7941
 9774TIP3    H250738   5.605   5.831   0.071 -0.7150 -0.4449  1.8144
 9775TIP3   OH250739   3.034   1.460  13.724  0.5171 -0.2280  0.4359
 9775TIP3    H150740   3.008   1.409  13.647  0.3906 -0.0544  0.3627
 9775TIP3    H250741   3.098   1.523  13.691  0.0168  0.2465  0.3536
 9776TIP3   OH250742   0.402   5.614  13.112  0.2187 -0.4662 -0.4065
 9776TIP3    H150743   0.466   5.613  13.183  0.4735 -0.8811 -0.6357
 9776TIP3    H250744   0.335   5.675  13.141 -0.7470 -2.1675  1.1284
 9777TIP3   OH250745   4.714   0.901   5.058  0.1960  0.2075  0.7348
 9777TIP3    H150746   4.685   0.810   5.059  0.0419  0.2544  0.6381
 9777TIP3    H250747   4.637   0.951   5.085  0.0612  0.3685  0.0820
 9778TIP3   OH250748   5.684   5.990  12.750 -0.2340  0.1277  0.1328
 9778TIP3    H150749   5.746   5.997  12.823  0.4332 -0.2733 -0.3778
 9778TIP3    H250750   5.719   6.049  12.683  1.0689 -1.9875 -1.1595
 9779TIP3   OH250751   3.298   1.436  15.966  0.3627  0.4908 -0.7253
 9779TIP3    H150752   3.243   1.514  15.957 -0.1103  0.0932 -1.3358
 9779TIP3    H250753   3.249   1.379  16.024  0.2003  0.1921 -1.1582
 9780TIP3   OH250754   0.051   5.222  15.576  0.2150  0.4521  0.0031
 9780TIP3    H150755   0.005   5.151  15.619  1.6594 -0.0033  0.8657
 9780TIP3    H250756   0.142   5.193  15.572  0.9250  2.3888  0.7240
 9781TIP3   OH250757   3.327   5.413  15.576  0.5431 -0.0746 -0.4181
 9781TIP3    H150758   3.351   5.467  15.501 -0.3531  1.8306  0.5864
 9781TIP3    H250759   3.231   5.413  15.576  0.5258 -0.0497  0.7112
 9782TIP3   OH250760   5.825   2.303   4.656  0.0438  0.2229  0.3735
 9782TIP3    H150761   5.796   2.214   4.676 -1.7652  0.8928  0.9825
 9782TIP3    H250762   5.809   2.352   4.736 -2.3727  1.8337 -0.9736
 9783TIP3   OH250763   0.377   5.112  16.854 -0.0563 -0.4587  0.4874
 9783TIP3    H150764   0.364   5.027  16.897  1.0344 -1.9753 -1.9434
 9783TIP3    H250765   0.469   5.133  16.871 -0.4531  0.5100  1.4930
 9784TIP3   OH250766   6.115   0.133   5.402  0.0405  0.3977  0.7039
 9784TIP3    H150767   6.128   0.225   5.423  0.2514  0.0753  2.0630
 9784TIP3    H250768   6.091   0.092   5.485 -2.7636 -0.3199 -0.3275
 9785TIP3   OH250769   4.287   4.270  15.639  0.7107  0.3837 -0.2018
 9785TIP3    H150770   4.360   4.298  15.584  0.0846  1.8788 -0.3163
 9785TIP3    H250771   4.249   4.196  15.593  2.2161 -0.5085 -0.0764
 9786TIP3   OH250772   2.507   4.460  12.714  0.3316 -0.0781 -0.6825
 9786TIP3    H150773   2.471   4.376  12.743 -1.0836  0.5668 -0.4734
 9786TIP3    H250774   2.584   4.437  12.662 -0.1088 -1.5079 -0.7417
 9787TIP3   OH250775   5.670   6.215   1.858 -0.1844  0.6289 -0.6350
 9787TIP3    H150776   5.630   6.297   1.884 -0.9632  0.9374 -2.6142
 9787TIP3    H250777   5.735   6.239   1.792  1.8724 -0.0808  0.9974
 9788TIP3   OH250778   6.162   5.403  11.489 -0.1961 -0.1512 -0.2367
 9788TIP3    H150779   6.148   5.385  11.582  0.9575 -0.3606 -0.0838
 9788TIP3    H250780   6.189   5.495  11.486 -1.3977  0.2040 -0.5032
 9789TIP3   OH250781   4.265   6.764   3.545  0.4090 -0.5675  0.1781
 9789TIP3    H150782   4.318   6.693   3.508  1.8699 -0.1825  1.4295
 9789TIP3    H250783   4.317   6.797   3.618 -0.7592  1.0547  0.3270
 9790TIP3   OH250784   1.018   1.188  12.692  0.1392 -0.3625 -0.2528
 9790TIP3    H150785   1.106   1.225  12.688  0.6424 -1.5652 -2.2004
 9790TIP3    H250786   1.030   1.104  12.736 -0.1937 -0.1733  0.2047
 9791TIP3   OH250787   3.293   4.975  17.233 -0.4177  0.2739 -0.2042
 9791TIP3    H150788   3.370   5.006  17.185 -0.4399 -1.1802 -1.2463
 9791TIP3    H250789   3.324   4.899  17.282 -1.0812 -0.1099 -0.3614
 9792TIP3   OH250790   1.706   2.598   1.893  0.1086  0.1591  0.3025
 9792TIP3    H150791   1.704   2.571   1.985 -1.6077  0.1265  0.2916
 9792TIP3    H250792   1.776   2.663   1.889 -0.4655  0.9436  1.8932
 9793TIP3   OH250793   4.292   6.428   2.562 -0.6724  0.1168  0.5018
 9793TIP3    H150794   4.204   6.412   2.595  0.0564 -1.3952  1.8487
 9793TIP3    H250795   4.282   6.429   2.466 -2.3620  1.5706  0.6363
 9794TIP3   OH250796   5.301   0.259  14.782  0.2342  0.0198  0.4728
 9794TIP3    H150797   5.366   0.195  14.811 -0.2678 -0.9658 -0.5107
 9794TIP3    H250798   5.342   0.303  14.708  0.0169 -0.1982  0.2201
 9795TIP3   OH250799   2.239   4.907   5.219 -0.0610 -0.3197 -0.2393
 9795TIP3    H150800   2.321   4.887   5.173 -1.1173 -2.4828 -1.3626
 9795TIP3    H250801   2.220   4.827   5.268 -1.3337  0.2740  0.2603
 9796TIP3   OH250802   2.911   2.717  15.442 -0.0600  0.0100 -0.0809
 9796TIP3    H150803   2.835   2.771  15.420 -0.7447 -1.2308 -0.8858
 9796TIP3    H250804   2.974   2.735  15.372 -0.4944 -0.6094 -0.6418
 9797TIP3   OH250805   0.932   2.831   0.113 -0.0715  0.3199  0.3476
 9797TIP3    H150806   0.912   2.740   0.090  0.1651  0.4703 -0.4619
 9797TIP3    H250807   0.978   2.825   0.196 -0.1147 -0.2963  0.3296
 9798TIP3   OH250808   6.020   2.601  16.899 -0.0512 -0.5103 -0.7777
 9798TIP3    H150809   6.012   2.691  16.929 -0.5229 -0.0339 -2.2312
 9798TIP3    H250810   5.981   2.548  16.968 -2.0114  0.6104 -0.9729
 9799TIP3   OH250811   5.058   1.777  14.050  0.1877  0.4888 -0.0673
 9799TIP3    H150812   5.063   1.819  14.136  0.6969 -0.1840  0.2352
 9799TIP3    H250813   5.070   1.684  14.068  1.3037  0.4417 -0.9797
 9800TIP3   OH250814   1.094   3.514  16.732 -0.6646  0.0575 -0.1939
 9800TIP3    H150815   1.136   3.597  16.711 -0.3211 -0.2427 -0.7000
 9800TIP3    H250816   1.143   3.448  16.683 -0.7747 -0.4823  0.3992
 9801TIP3   OH250817   2.617   5.049   4.642  0.2626  0.4283  0.6210
 9801TIP3    H150818   2.551   4.986   4.616  1.4807 -0.6502  0.0236
 9801TIP3    H250819   2.589   5.131   4.601 -0.8848  0.0878  0.6931
 9802TIP3   OH250820   1.483   1.310   6.099  0.1830 -0.2167 -0.0810
 9802TIP3    H150821   1.487   1.336   6.191  1.9438 -2.0451  0.4336
 9802TIP3    H250822   1.571   1.327   6.066  0.3014 -1.8631 -0.7139
 9803TIP3   OH250823   0.055   0.706  14.812 -0.2059 -0.6887 -0.2849
 9803TIP3    H150824   0.135   0.741  14.854 -0.2796 -0.5451 -0.2619
 9803TIP3    H250825   0.081   0.691  14.721  0.8849 -3.9436  0.4466
 9804TIP3   OH250826   2.329   6.741  13.353 -0.1350  0.0927  0.1287
 9804TIP3    H150827   2.390   6.769  13.421  1.1652 -1.2864 -0.3959
 9804TIP3    H250828   2.378   6.753  13.271 -1.4937  1.2850 -0.5668
 9805TIP3   OH250829   0.188   5.572  14.298 -0.5939  0.3447 -0.4865
 9805TIP3    H150830   0.114   5.514  14.312 -0.2649 -0.2150 -1.0203
 9805TIP3    H250831   0.190   5.628  14.376  0.1167 -1.4697  0.8649
 9806TIP3   OH250832   5.243   6.076  15.297  0.3570  0.1589 -0.2752
 9806TIP3    H150833   5.172   6.011  15.297  1.7380 -1.4580  0.9985
 9806TIP3    H250834   5.201   6.158  15.320 -1.3180 -0.4463 -1.0126
 9807TIP3   OH250835   6.039   6.678   3.227 -0.1153  0.4313 -0.0733
 9807TIP3    H150836   6.107   6.740   3.256  0.0102  0.3423 -0.1758
 9807TIP3    H250837   6.088   6.607   3.186 -0.3479  1.1287 -1.6400
 9808TIP3   OH250838   0.588   1.168   1.731  0.0230 -0.4680 -0.0047
 9808TIP3    H150839   0.540   1.150   1.650  0.0142 -1.2010  0.1576
 9808TIP3    H250840   0.619   1.083   1.760 -0.3702 -0.2814  1.0138
 9809TIP3   OH250841   0.918   1.616   5.467 -0.2972  0.3446 -0.0480
 9809TIP3    H150842   0.931   1.558   5.542  0.9936  0.1333 -0.3992
 9809TIP3    H250843   0.981   1.687   5.481  1.6859 -0.8879 -2.0505
 9810TIP3   OH250844   4.506   1.958  14.785 -0.3908 -0.4992 -0.2437
 9810TIP3    H150845   4.554   1.879  14.760  0.0879  0.0145 -1.0112
 9810TIP3    H250846   4.529   2.022  14.717 -0.0707  0.5705  0.8354
 9811TIP3   OH250847   0.097   6.214   1.493 -0.2503 -0.5197 -0.4010
 9811TIP3    H150848   0.052   6.174   1.418 -0.5132 -1.2299  0.1299
 9811TIP3    H250849   0.067   6.164   1.569 -1.5073  1.4244  0.4580
 9812TIP3   OH250850   0.795   0.183   2.570 -0.4014  0.3814  0.1201
 9812TIP3    H150851   0.822   0.213   2.656  1.0210  0.1904 -0.2444
 9812TIP3    H250852   0.864   0.212   2.511  0.0361 -1.8282 -0.5444
 9813TIP3   OH250853   3.201   4.117   2.134 -0.2463  0.5523 -0.0277
 9813TIP3    H150854   3.241   4.043   2.180  1.2620  1.1357 -0.3445
 9813TIP3    H250855   3.157   4.167   2.203 -0.3299 -0.0353  0.3536
 9814TIP3   OH250856   2.870   4.738  14.529 -0.4592 -0.0986  0.5090
 9814TIP3    H150857   2.812   4.801  14.486  0.4456 -0.0862 -0.7478
 9814TIP3    H250858   2.821   4.709  14.606 -1.2280  1.5225  0.6688
 9815TIP3   OH250859   1.776   5.792  15.745 -0.0200 -0.1189 -0.1329
 9815TIP3    H150860   1.868   5.820  15.748 -0.1383  0.2288  0.3644
 9815TIP3    H250861   1.731   5.864  15.700 -0.3003  0.4410  1.0103
 9816TIP3   OH250862   4.363   4.703  13.499  0.3164  0.3743  0.4098
 9816TIP3    H150863   4.287   4.651  13.472 -0.9956  2.2299  0.2563
 9816TIP3    H250864   4.412   4.647  13.558  0.0267 -1.6837 -1.1973
 9817TIP3   OH250865   2.425   1.040  17.057  0.0228 -0.4691  0.2823
 9817TIP3    H150866   2.400   0.950  17.081  0.1227 -0.5465  0.0960
 9817TIP3    H250867   2.367   1.063  16.985 -1.1757  0.2409  1.4171
 9818TIP3   OH250868   0.769   2.310  14.964 -0.0234 -0.1596 -0.0265
 9818TIP3    H150869   0.829   2.371  14.921  1.3357 -0.6140  1.1503
 9818TIP3    H250870   0.807   2.224  14.948 -0.3826 -0.4595  0.6777
 9819TIP3   OH250871   6.294   1.473  13.575 -0.6725 -0.1026  0.5998
 9819TIP3    H150872   6.274   1.519  13.494 -0.5217  0.6740  0.9948
 9819TIP3    H250873   6.290   1.380  13.552 -0.7821  0.1100 -0.2544
 9820TIP3   OH250874   5.795   3.227   2.587 -0.2672 -0.0783 -0.4293
 9820TIP3    H150875   5.871   3.168   2.592 -0.8886 -0.8429  0.3351
 9820TIP3    H250876   5.726   3.172   2.549 -0.6318  0.4073 -0.4680
 9821TIP3   OH250877   3.669   3.901  13.546  0.1387 -0.1235  0.6578
 9821TIP3    H150878   3.579   3.878  13.570 -0.8849 -0.1536 -2.7436
 9821TIP3    H250879   3.717   3.819  13.555  0.0377 -0.0180  2.9293
 9822TIP3   OH250880   6.294   1.504  16.896 -0.0592  0.1809  0.2768
 9822TIP3    H150881   6.353   1.496  16.971  0.5600 -1.1075 -0.3170
 9822TIP3    H250882   6.210   1.529  16.935  0.4324  0.2742  1.3263
 9823TIP3   OH250883   4.762   4.532   5.159  0.4769  0.3053 -0.5359
 9823TIP3    H150884   4.734   4.530   5.250 -0.2074  0.0364 -0.7411
 9823TIP3    H250885   4.750   4.623   5.131 -3.4819 -0.3597 -1.5685
 9824TIP3   OH250886   0.228   5.850  11.648 -0.4234 -0.7024  0.1696
 9824TIP3    H150887   0.318   5.821  11.662 -0.5399 -0.3322  1.8013
 9824TIP3    H250888   0.207   5.902  11.725 -1.8951 -0.3987 -0.4047
 9825TIP3   OH250889   4.972   1.337   0.987 -0.0654 -0.0579 -0.4000
 9825TIP3    H150890   4.934   1.298   1.066  0.6627  0.8989  0.4401
 9825TIP3    H250891   5.043   1.278   0.962  0.5479  0.3291  0.4250
 9826TIP3   OH250892   2.396   1.170  10.836  0.3711 -0.8187  0.0633
 9826TIP3    H150893   2.324   1.166  10.773  0.0181 -0.0682  0.4123
 9826TIP3    H250894   2.470   1.203  10.785 -0.0347  0.2313  0.1342
 9827TIP3   OH250895   4.028   2.863   4.775 -0.5746 -0.0284  0.2652
 9827TIP3    H150896   4.120   2.888   4.789 -0.4728 -0.4130  0.3158
 9827TIP3    H250897   3.997   2.838   4.863 -0.9756  0.8942  0.3895
 9828TIP3   OH250898   2.115   3.808  17.005 -0.0421  0.3525  0.2667
 9828TIP3    H150899   2.104   3.713  17.002  0.8933  0.2443 -0.3956
 9828TIP3    H250900   2.092   3.837  16.917 -0.0326  0.6989  0.3784
 9829TIP3   OH250901   3.827   3.433  12.077 -0.0611 -0.3176  0.4781
 9829TIP3    H150902   3.778   3.509  12.046 -1.7571 -0.0771  3.4097
 9829TIP3    H250903   3.805   3.363  12.015 -1.5143  0.6409 -0.1258
 9830TIP3   OH250904   4.376   0.409  14.203  0.3238  0.1053  0.6622
 9830TIP3    H150905   4.428   0.401  14.283 -0.7478 -3.3119  1.1669
 9830TIP3    H250906   4.286   0.394  14.231 -0.2707  0.4162 -0.9767
 9831TIP3   OH250907   1.734   3.072  11.724 -0.5914 -0.6653  0.3332
 9831TIP3    H150908   1.789   3.018  11.780 -1.9587 -0.9320  1.4673
 9831TIP3    H250909   1.677   3.121  11.784  1.3936  3.1017 -0.5190
 9832TIP3   OH250910   0.255   3.445   1.873 -0.1040  0.0651  0.1450
 9832TIP3    H150911   0.182   3.426   1.814  0.5757 -1.0298 -0.3711
 9832TIP3    H250912   0.292   3.360   1.895  2.2783  0.6377 -1.2277
 9833TIP3   OH250913   2.716   0.054   1.606 -0.0957  0.4132 -0.3500
 9833TIP3    H150914   2.764   0.134   1.583  0.3343  0.0441 -0.7498
 9833TIP3    H250915   2.668   0.031   1.527 -0.0161  0.1312 -0.3166
 9834TIP3   OH250916   1.162   3.564  11.249 -0.1720 -0.0159 -0.2372
 9834TIP3    H150917   1.248   3.605  11.259 -0.6590  0.9020  0.3448
 9834TIP3    H250918   1.157   3.543  11.156  1.1272 -1.1170 -0.0799
 9835TIP3   OH250919   6.477   2.540   4.790 -0.0370  0.5129  0.5661
 9835TIP3    H150920   6.388   2.544   4.755  0.1922 -0.3009 -0.1088
 9835TIP3    H250921   6.533   2.520   4.715  0.7157  0.9023  1.0027
 9836TIP3   OH250922   3.197   0.665  15.274 -0.3070 -0.3147 -0.2815
 9836TIP3    H150923   3.209   0.574  15.303 -1.6167 -0.6144 -0.6036
 9836TIP3    H250924   3.112   0.689  15.309 -1.1215 -0.0655 -2.2968
 9837TIP3   OH250925   1.374   5.895  12.651 -0.4452 -0.5022 -0.3876
 9837TIP3    H150926   1.354   5.850  12.569 -1.5484 -0.8842  0.0631
 9837TIP3    H250927   1.396   5.825  12.712 -0.4757 -0.2981 -0.1382
 9838TIP3   OH250928   4.003   5.268  15.371 -0.5881 -0.3737  0.1002
 9838TIP3    H150929   4.028   5.256  15.280  0.0842  0.5694  0.1474
 9838TIP3    H250930   3.908   5.284  15.369 -0.2838  1.5634 -0.6394
 9839TIP3   OH250931   0.790   1.799  12.937 -0.8651  0.2985  0.7735
 9839TIP3    H150932   0.754   1.735  12.999 -2.2441  0.2648 -0.0138
 9839TIP3    H250933   0.783   1.755  12.852 -1.8531  1.4730  0.2126
 9840TIP3   OH250934   4.769   0.068   2.209  0.0806  0.3134 -0.1128
 9840TIP3    H150935   4.797   0.126   2.139  2.0717  0.2447  0.5754
 9840TIP3    H250936   4.673   0.076   2.209  0.1907  2.4035 -1.0377
 9841TIP3   OH250937   3.538   0.745   1.318  0.2177  0.7680 -0.1042
 9841TIP3    H150938   3.474   0.735   1.247  0.6019 -0.1487 -0.3333
 9841TIP3    H250939   3.576   0.831   1.304 -0.4901  1.0458 -0.3625
 9842TIP3   OH250940   4.384   6.242   3.514  0.4959  0.3670  0.0427
 9842TIP3    H150941   4.439   6.303   3.465  0.5485  0.2350 -0.0612
 9842TIP3    H250942   4.382   6.163   3.461  1.0951 -0.0120  0.5595
 9843TIP3   OH250943   5.549   6.196  12.916  0.1406 -0.2039  0.0083
 9843TIP3    H150944   5.520   6.216  13.004  0.2269  2.0918 -0.4292
 9843TIP3    H250945   5.528   6.103  12.904 -0.6299 -0.3468  2.1129
 9844TIP3   OH250946   6.758   0.250   2.767  0.3093  0.1330  0.6691
 9844TIP3    H150947   6.821   0.202   2.714 -0.2476 -0.5698  0.6372
 9844TIP3    H250948   6.683   0.262   2.710  1.2727  3.1010 -0.1465
 9845TIP3   OH250949   2.162   3.683   5.825  0.0096  0.1514  0.2398
 9845TIP3    H150950   2.077   3.660   5.787  0.8458  0.3812 -1.9530
 9845TIP3    H250951   2.184   3.767   5.783  2.4350 -1.1437 -1.3282
 9846TIP3   OH250952   1.506   0.034   3.980 -0.7621 -0.5764 -0.4544
 9846TIP3    H150953   1.504   0.129   3.991 -0.6576 -0.6850  0.6638
 9846TIP3    H250954   1.415   0.010   3.966 -0.6269 -0.1774 -2.2215
 9847TIP3   OH250955   4.332   2.346  16.726  0.0179  0.0902 -0.0939
 9847TIP3    H150956   4.359   2.437  16.735  1.7868 -0.4103  0.0350
 9847TIP3    H250957   4.398   2.296  16.774 -1.9887 -1.1566  1.5464
 9848TIP3   OH250958   5.258   2.212   4.452  0.0619  0.0227  0.1803
 9848TIP3    H150959   5.299   2.242   4.534 -1.1343 -0.1603  0.8772
 9848TIP3    H250960   5.253   2.290   4.397 -1.1359  0.6879  1.1695
 9849TIP3   OH250961   4.164   5.698   4.523  0.1006 -0.2667  0.6849
 9849TIP3    H150962   4.124   5.697   4.610  0.6961 -2.3512  0.9913
 9849TIP3    H250963   4.099   5.657   4.466  0.1284  0.1643  0.3351
 9850TIP3   OH250964   0.308   6.591  13.706 -0.3555 -0.3595 -0.5004
 9850TIP3    H150965   0.250   6.515  13.707 -0.1578 -0.6200 -3.1180
 9850TIP3    H250966   0.250   6.666  13.719 -0.7879 -0.8033  0.2229
 9851TIP3   OH250967   2.618   3.781  17.041  0.2789 -0.2054  0.4509
 9851TIP3    H150968   2.694   3.747  16.993 -1.3549 -1.2195 -1.5373
 9851TIP3    H250969   2.616   3.728  17.121  1.1282 -0.8028  0.1022
 9852TIP3   OH250970   5.045   0.102   3.640 -0.3839  0.5732 -0.5085
 9852TIP3    H150971   5.020   0.085   3.549 -1.3826  1.5675 -0.4289
 9852TIP3    H250972   4.992   0.177   3.667 -0.4119  0.0360  1.0364
 9853TIP3   OH250973   4.337   1.201  15.729 -0.1653 -0.0028  0.5822
 9853TIP3    H150974   4.399   1.261  15.687 -1.2531 -0.4088 -1.7951
 9853TIP3    H250975   4.361   1.114  15.696 -1.7173 -0.2082 -0.1135
 9854TIP3   OH250976   2.174   5.832  14.450 -0.5960  0.4507 -0.2253
 9854TIP3    H150977   2.143   5.764  14.509  0.8590  0.8003  1.0080
 9854TIP3    H250978   2.269   5.825  14.453 -0.4422  0.0367 -3.1208
 9855TIP3   OH250979   4.214   2.295   0.973  0.6103 -0.1312 -0.1904
 9855TIP3    H150980   4.218   2.210   0.928  0.5913 -0.5451  0.5725
 9855TIP3    H250981   4.167   2.352   0.912 -1.2075 -1.2161  0.0972
 9856TIP3   OH250982   1.712   2.367   2.094 -0.1070  0.2935  0.1299
 9856TIP3    H150983   1.776   2.313   2.046 -1.2250 -1.3565  0.4026
 9856TIP3    H250984   1.738   2.358   2.185 -1.7366 -1.9700  0.4669
 9857TIP3   OH250985   4.976   6.243   0.796  0.4004  0.9836 -0.2347
 9857TIP3    H150986   4.958   6.258   0.703 -0.8785  1.9645  0.1324
 9857TIP3    H250987   4.956   6.151   0.810  0.4425  0.8677 -0.8915
 9858TIP3   OH250988   5.043   0.925  16.856  0.7660 -0.6206  0.3072
 9858TIP3    H150989   5.015   0.855  16.915 -0.3682  0.3859  0.9900
 9858TIP3    H250990   4.978   0.925  16.786 -1.6411  2.2633  2.3146
 9859TIP3   OH250991   5.105   6.592  10.778 -0.1251 -0.2187 -0.0022
 9859TIP3    H150992   5.139   6.536  10.848 -2.6506  1.1385  2.5339
 9859TIP3    H250993   5.116   6.681  10.812 -2.1775  0.4385 -0.9054
 9860TIP3   OH250994   1.610   3.417  14.910  1.0274  0.4230  0.3501
 9860TIP3    H150995   1.689   3.364  14.923 -0.7013 -2.2971  0.3828
 9860TIP3    H250996   1.616   3.446  14.819  1.9960  0.1794  0.3201
 9861TIP3   OH250997   6.614   2.799  12.808  0.2648  0.1523 -0.3080
 9861TIP3    H150998   6.674   2.736  12.848  1.0981  0.9829 -0.2008
 9861TIP3    H250999   6.625   2.787  12.714  0.0671 -0.1869 -0.2877
 9862TIP3   OH251000   6.680   5.371  15.944 -0.1141  0.2313 -0.6071
 9862TIP3    H151001   6.632   5.316  15.883  0.6927 -1.7427  0.4552
 9862TIP3    H251002   6.652   5.341  16.030  1.9485 -0.0308  0.0167
 9863TIP3   OH251003   0.940   3.188   2.468  0.0067  0.2985  0.3719
 9863TIP3    H151004   0.934   3.181   2.563 -0.3565  0.7426  0.3866
 9863TIP3    H251005   1.027   3.224   2.452 -0.1097  0.6778  0.5683
 9864TIP3   OH251006   6.342   5.902   5.537  0.3004 -0.0590  0.4698
 9864TIP3    H151007   6.305   5.973   5.485  1.1463 -0.2805 -0.4707
 9864TIP3    H251008   6.312   5.919   5.627  0.6436  1.5777  0.2976
 9865TIP3   OH251009   4.931   1.651  17.165 -0.5670 -0.3065 -0.3454
 9865TIP3    H151010   4.996   1.711  17.130 -1.9568  0.3098 -2.0229
 9865TIP3    H251011   4.916   1.682  17.255  3.1501 -1.9999  1.0403
 9866TIP3   OH251012   5.756   2.912  12.900 -0.3909 -0.4416  0.6070
 9866TIP3    H151013   5.829   2.947  12.849  0.9265 -2.2334  1.1841
 9866TIP3    H251014   5.679   2.956  12.863  0.4300 -1.6477 -2.9934
 9867TIP3   OH251015   2.511   2.899   2.264 -0.0182  0.3400 -0.2047
 9867TIP3    H151016   2.475   2.988   2.272 -1.3203 -0.3213  2.1302
 9867TIP3    H251017   2.440   2.848   2.225  0.0618 -0.0353  0.1320
 9868TIP3   OH251018   1.300   1.482   6.336  0.2457  0.1442  0.0514
 9868TIP3    H151019   1.220   1.437   6.363  0.0065 -0.2007 -1.1730
 9868TIP3    H251020   1.370   1.434   6.379 -0.2141  0.8486  1.6706
 9869TIP3   OH251021   5.960   4.019  15.322  0.2045 -0.0653  0.7225
 9869TIP3    H151022   5.884   4.020  15.264 -0.2627  0.3136  1.3273
 9869TIP3    H251023   6.029   3.975  15.271  0.1236  1.1455 -0.5021
 9870TIP3   OH251024   0.658   5.339  15.176  0.3149 -0.1591  0.0971
 9870TIP3    H151025   0.712   5.340  15.255  1.0457 -1.3875 -0.3574
 9870TIP3    H251026   0.720   5.356  15.105 -0.1104 -0.3579 -0.3217
 9871TIP3   OH251027   4.361   4.979  15.458  0.3370 -0.0054  0.0918
 9871TIP3    H151028   4.347   4.911  15.392 -2.4001  0.6992 -0.1356
 9871TIP3    H251029   4.319   5.057  15.422 -0.7550  0.5421  2.4128
 9872TIP3   OH251030   0.192   5.282  10.307  0.2402 -0.0867  0.2150
 9872TIP3    H151031   0.097   5.287  10.317  0.1754  0.5200 -0.5995
 9872TIP3    H251032   0.205   5.273  10.212  0.9500 -1.4583  0.4152
 9873TIP3   OH251033   4.248   2.754   1.720  0.4299 -0.1130 -0.0538
 9873TIP3    H151034   4.231   2.693   1.792  1.2117 -0.2498  0.0200
 9873TIP3    H251035   4.320   2.714   1.671 -0.7706 -0.5525 -1.5359
 9874TIP3   OH251036   5.248   0.124   0.630 -0.0345  0.1883 -0.0689
 9874TIP3    H151037   5.175   0.183   0.616 -0.0605 -0.1504 -1.5076
 9874TIP3    H251038   5.318   0.180   0.665  0.1098  1.2171 -1.8651
 9875TIP3   OH251039   3.515   6.714   3.803  0.3559 -0.8839  0.3477
 9875TIP3    H151040   3.422   6.697   3.788  0.6747 -0.8953 -1.9726
 9875TIP3    H251041   3.516   6.784   3.869 -1.2046 -2.1483  1.7984
 9876TIP3   OH251042   3.118   4.990   2.898 -0.2991  0.4519 -0.0979
 9876TIP3    H151043   3.058   5.012   2.969  0.5697 -0.7764  1.0531
 9876TIP3    H251044   3.082   4.910   2.860 -0.3863  0.7343 -0.6252
 9877TIP3   OH251045   4.614   5.763   2.296  0.1131 -1.0075 -0.8342
 9877TIP3    H151046   4.647   5.821   2.228 -2.2493 -0.2421 -1.4051
 9877TIP3    H251047   4.690   5.747   2.352  1.1444  1.6983 -1.3058
 9878TIP3   OH251048   6.297   3.201  15.051  0.1563  0.1177 -0.6821
 9878TIP3    H151049   6.365   3.182  15.116 -0.8762  2.1458  1.1078
 9878TIP3    H251050   6.340   3.258  14.987 -0.0853  2.6145  1.2254
 9879TIP3   OH251051   3.605   3.218  13.513  0.0752  0.5813 -0.1663
 9879TIP3    H151052   3.556   3.274  13.573 -0.9017  1.1929 -1.4554
 9879TIP3    H251053   3.660   3.164  13.569 -2.5215 -0.5916  1.4679
 9880TIP3   OH251054   0.486   5.195   5.294 -0.2492  0.4510 -0.4593
 9880TIP3    H151055   0.435   5.139   5.353 -0.8371  0.3398 -1.0598
 9880TIP3    H251056   0.454   5.172   5.207  2.2149 -1.1021 -1.0535
 9881TIP3   OH251057   0.252   2.094   4.248  0.0170 -0.2798  0.3015
 9881TIP3    H151058   0.200   2.096   4.328 -0.2160  1.3673  0.1542
 9881TIP3    H251059   0.214   2.163   4.193  0.3384 -1.1956 -1.1285
 9882TIP3   OH251060   5.098   0.238   0.132  0.4138 -0.5577  0.4224
 9882TIP3    H151061   5.167   0.302   0.153 -0.3535  1.0360 -1.5046
 9882TIP3    H251062   5.017   0.289   0.138 -0.1472 -1.0174 -2.1088
 9883TIP3   OH251063   2.288   0.147   0.673  0.6182  0.8573  0.2730
 9883TIP3    H151064   2.281   0.199   0.753 -5.0554 -0.4681  1.0416
 9883TIP3    H251065   2.293   0.057   0.703  1.2276  0.4593 -0.9366
 9884TIP3   OH251066   0.654   4.399  12.098 -0.2554  0.2724 -0.0808
 9884TIP3    H151067   0.644   4.487  12.135 -0.5833 -0.4064  1.5244
 9884TIP3    H251068   0.578   4.351  12.132 -0.6729 -0.3614 -1.8130
 9885TIP3   OH251069   5.171   1.258  14.239 -0.1922  0.2964  0.3376
 9885TIP3    H151070   5.093   1.216  14.202 -0.4184 -2.0381  3.0695
 9885TIP3    H251071   5.243   1.199  14.218  0.5164  1.3854 -0.3917
 9886TIP3   OH251072   6.428   5.513   1.679 -0.0948 -0.6007 -0.2884
 9886TIP3    H151073   6.480   5.585   1.715  1.5181 -1.5318 -0.6632
 9886TIP3    H251074   6.337   5.542   1.689  0.4479  2.8657 -3.1771
 9887TIP3   OH251075   2.026   0.355  12.380  0.0321  0.5562  0.5642
 9887TIP3    H151076   1.933   0.372  12.391 -0.2623 -2.2310  3.5827
 9887TIP3    H251077   2.036   0.335  12.287 -2.6694 -0.5637  0.4439
 9888TIP3   OH251078   3.133   1.094  12.486  0.4431  0.2069 -0.0073
 9888TIP3    H151079   3.110   1.120  12.396  0.5842 -3.1350 -1.1652
 9888TIP3    H251080   3.229   1.091  12.486  0.5321  2.0553  0.9139
 9889TIP3   OH251081   1.254   2.077   3.800  0.4589 -0.2591  0.2827
 9889TIP3    H151082   1.258   2.146   3.733 -0.0997  0.3765  0.8937
 9889TIP3    H251083   1.326   2.018   3.777 -0.4766 -0.7525 -1.6374
 9890TIP3   OH251084   3.152   1.429  14.016 -0.2103 -0.4103  0.0622
 9890TIP3    H151085   3.084   1.423  13.948 -1.0887 -0.8244  0.9470
 9890TIP3    H251086   3.151   1.343  14.058  0.5894 -0.2777  0.3609
 9891TIP3   OH251087   3.467   2.058   4.658  0.0657  0.8214 -0.1622
 9891TIP3    H151088   3.504   2.024   4.576 -1.8022  0.5311 -0.9321
 9891TIP3    H251089   3.407   1.989   4.687 -0.9809  1.8623  0.2247
 9892TIP3   OH251090   0.643   1.567  12.873  0.4194  0.1192 -0.1450
 9892TIP3    H151091   0.571   1.590  12.931  0.7186  0.6325  0.0297
 9892TIP3    H251092   0.708   1.526  12.930  0.3163 -0.2394 -0.2826
 9893TIP3   OH251093   2.162   1.175   3.113  0.4213 -0.2309 -0.2258
 9893TIP3    H151094   2.245   1.159   3.067  1.8743  0.5629  1.9366
 9893TIP3    H251095   2.161   1.270   3.127  0.1063 -0.4509  1.4371
 9894TIP3   OH251096   0.055   4.513   1.568 -0.9017 -0.9026  0.1235
 9894TIP3    H151097   0.030   4.604   1.552  1.5510 -0.3184 -0.6907
 9894TIP3    H251098   0.030   4.467   1.489  0.9984 -0.1961 -0.9579
 9895TIP3   OH251099   0.461   2.778  13.488 -0.0508  0.6288  0.2655
 9895TIP3    H151100   0.457   2.858  13.540 -0.0359  0.8941 -0.1360
 9895TIP3    H251101   0.397   2.791  13.418  1.1996  1.0457 -0.8385
 9896TIP3   OH251102   2.943   2.479  12.844  0.1224  0.1117 -0.9813
 9896TIP3    H151103   2.919   2.473  12.751 -0.0406  0.8188 -0.9977
 9896TIP3    H251104   3.027   2.434  12.851 -0.6922 -1.5091 -1.1325
 9897TIP3   OH251105   2.699   3.805   5.706 -0.0645  0.3405 -0.5238
 9897TIP3    H151106   2.781   3.833   5.665  0.4562 -2.4979 -1.6627
 9897TIP3    H251107   2.630   3.842   5.651  0.3558  2.7662  0.4533
 9898TIP3   OH251108   0.755   6.333  17.198 -0.4443 -0.2119  0.5339
 9898TIP3    H151109   0.839   6.338  17.244 -1.4741  0.7863  2.4490
 9898TIP3    H251110   0.716   6.251  17.229 -0.6876 -0.0622  0.6289
 9899TIP3   OH251111   5.250   3.480   2.173  0.0978 -0.3586  0.4705
 9899TIP3    H151112   5.281   3.555   2.122 -0.0944 -1.2219 -0.9511
 9899TIP3    H251113   5.270   3.504   2.264 -1.4126  2.1407  0.2588
 9900TIP3   OH251114   4.668   4.414  13.060  0.6439 -0.4814  0.7182
 9900TIP3    H151115   4.664   4.490  13.001 -1.5738  0.1281  1.5481
 9900TIP3    H251116   4.751   4.424  13.107  0.2373  1.6580  1.0748
 9901TIP3   OH251117   4.242   1.341   2.045 -0.1399 -0.6363 -0.1630
 9901TIP3    H151118   4.266   1.359   1.955 -1.1642  0.6204 -0.2240
 9901TIP3    H251119   4.192   1.419   2.072 -1.9680 -2.0239  0.6724
 9902TIP3   OH251120   2.706   5.325  15.793  0.3388 -0.0369 -0.1678
 9902TIP3    H151121   2.694   5.420  15.802  0.1515  0.0041 -0.8023
 9902TIP3    H251122   2.775   5.303  15.855  0.4789  0.5390 -0.1185
 9903TIP3   OH251123   6.762   6.757  12.273 -0.0213  0.3296 -0.1400
 9903TIP3    H151124   6.815   6.837  12.271  0.6246 -0.1032 -0.7150
 9903TIP3    H251125   6.799   6.706  12.345  0.1666  0.1520 -0.3602
 9904TIP3   OH251126   1.769   2.322   5.939 -0.8650 -0.4508 -0.2950
 9904TIP3    H151127   1.811   2.293   6.020  1.3327 -2.6837 -2.0827
 9904TIP3    H251128   1.775   2.247   5.880 -1.3352  1.4137 -2.9160
 9905TIP3   OH251129   1.371   6.388   1.441 -0.0871 -0.7286 -0.2426
 9905TIP3    H151130   1.316   6.405   1.365  0.4805  0.0581 -0.4988
 9905TIP3    H251131   1.354   6.297   1.465 -2.7347 -0.0693  0.7046
 9906TIP3   OH251132   6.492   3.240   3.713  0.5862  0.1251  0.2812
 9906TIP3    H151133   6.531   3.168   3.763 -0.9773  0.2413  1.7867
 9906TIP3    H251134   6.399   3.237   3.736  0.2627  1.8186 -0.6376
 9907TIP3   OH251135   1.102   2.817  15.661  0.1522 -0.1042 -0.2344
 9907TIP3    H151136   1.158   2.740  15.669 -0.6193 -0.7617 -0.9328
 9907TIP3    H251137   1.156   2.890  15.692  0.3062 -1.1585  2.2199
 9908TIP3   OH251138   2.062   3.719   4.299  0.1894  0.0457  0.3919
 9908TIP3    H151139   2.099   3.689   4.216 -0.6374  2.5559 -1.0061
 9908TIP3    H251140   2.138   3.736   4.354  0.7082 -3.7047  1.0602
 9909TIP3   OH251141   6.545   5.100   0.162 -0.9960  0.6607  0.1962
 9909TIP3    H151142   6.601   5.160   0.113  1.4551 -1.2343  0.4765
 9909TIP3    H251143   6.519   5.150   0.240  1.8199  1.1420  0.9535
 9910TIP3   OH251144   5.977   5.683  11.689  0.1389  0.2187  0.0210
 9910TIP3    H151145   5.924   5.756  11.723 -0.8001 -0.0461 -0.8021
 9910TIP3    H251146   6.032   5.722  11.622 -0.3555  0.1878 -0.4107
 9911TIP3   OH251147   3.394   5.389   1.259  0.1494  0.2670 -0.3389
 9911TIP3    H151148   3.457   5.460   1.265  0.0678  0.2819  0.3891
 9911TIP3    H251149   3.410   5.336   1.337 -1.2274  0.6754  0.2354
 9912TIP3   OH251150   5.602   6.766  15.589  0.2388 -0.2222  0.0785
 9912TIP3    H151151   5.531   6.830  15.601 -0.4930 -0.9059 -0.4903
 9912TIP3    H251152   5.662   6.809  15.528  0.3834  0.4117  0.6527
 9913TIP3   OH251153   1.015   2.397   5.330  0.2543 -0.5646 -0.9362
 9913TIP3    H151154   1.051   2.465   5.387 -1.7730 -0.7091  0.5946
 9913TIP3    H251155   1.088   2.336   5.318  1.2298  0.3483  0.0842
 9914TIP3   OH251156   2.598   4.505   5.088  0.0986  0.4779 -0.5013
 9914TIP3    H151157   2.550   4.441   5.036 -0.9160  0.1311  0.8172
 9914TIP3    H251158   2.551   4.509   5.171  2.3105  0.1568  0.8589
 9915TIP3   OH251159   6.591   5.416  11.561  0.2598  0.3528  0.1126
 9915TIP3    H151160   6.577   5.435  11.653 -2.5177  0.8151 -0.2995
 9915TIP3    H251161   6.531   5.476  11.515  0.3651 -0.9665 -1.8870
 9916TIP3   OH251162   6.665   4.165  17.128 -0.2250  0.0578  0.2250
 9916TIP3    H151163   6.757   4.143  17.110 -0.4612 -0.0272 -0.9471
 9916TIP3    H251164   6.629   4.085  17.167  0.5409  0.5562  2.0234
 9917TIP3   OH251165   0.948   4.940  16.074  0.0692 -0.1748 -0.1506
 9917TIP3    H151166   0.980   5.030  16.061 -1.8533  0.7324  0.9502
 9917TIP3    H251167   0.937   4.932  16.169 -2.2080 -0.6410 -0.3994
 9918TIP3   OH251168   4.578   5.744  13.328  0.1052  0.1911  0.0977
 9918TIP3    H151169   4.530   5.690  13.391  1.5783 -0.5898  0.5947
 9918TIP3    H251170   4.627   5.806  13.382  1.1566 -0.2958 -0.2727
 9919TIP3   OH251171   6.680   0.357   1.545 -0.2206  0.6382 -0.0520
 9919TIP3    H151172   6.767   0.355   1.506  0.2493  0.2078  0.9756
 9919TIP3    H251173   6.650   0.447   1.533 -0.9641  0.0792 -3.1853
 9920TIP3   OH251174   2.691   4.500   0.241 -0.4207  0.5236 -0.0267
 9920TIP3    H151175   2.597   4.515   0.240 -0.4897  0.1220 -0.0378
 9920TIP3    H251176   2.708   4.458   0.325 -0.3593 -0.0199 -0.3029
 9921TIP3   OH251177   3.364   2.142  14.227 -0.2112 -0.7347 -0.5988
 9921TIP3    H151178   3.426   2.213  14.244 -1.2641  0.8076 -2.6911
 9921TIP3    H251179   3.411   2.082  14.168  0.7530 -1.9844  1.3382
 9922TIP3   OH251180   3.383   1.477  16.796 -0.5884  0.3577  0.0835
 9922TIP3    H151181   3.301   1.471  16.747 -0.6471 -0.0873  0.2284
 9922TIP3    H251182   3.375   1.410  16.863  0.4892 -0.7009 -0.7934
 9923TIP3   OH251183   3.953   1.490  10.282 -0.0465 -0.3407 -0.2614
 9923TIP3    H151184   3.914   1.415  10.326  0.1505 -0.1284  0.2874
 9923TIP3    H251185   3.894   1.563  10.302 -0.6835 -0.4992 -1.4750
 9924TIP3   OH251186   3.144   1.510  13.444 -0.4062 -0.0193  0.6339
 9924TIP3    H151187   3.207   1.582  13.445 -1.5506  1.1592 -1.9678
 9924TIP3    H251188   3.061   1.550  13.472 -1.1686 -0.1026 -1.3314
 9925TIP3   OH251189   4.754   4.286   6.249 -0.4564  0.1139 -0.1870
 9925TIP3    H151190   4.813   4.226   6.202 -0.0178 -1.0220  1.7200
 9925TIP3    H251191   4.762   4.261   6.341 -0.8245  2.6418  0.6183
 9926TIP3   OH251192   1.871   0.830  12.992 -0.3115 -0.8308 -0.4482
 9926TIP3    H151193   1.896   0.838  13.084  0.2490 -1.7828 -0.5053
 9926TIP3    H251194   1.807   0.760  12.990 -0.5858 -0.5778 -0.7463
 9927TIP3   OH251195   5.060   4.090  13.394 -0.2074  0.1397  0.5576
 9927TIP3    H151196   5.037   4.064  13.305  0.6959  0.2361  0.2824
 9927TIP3    H251197   5.042   4.013  13.447  1.1637 -0.6436 -0.0419
 9928TIP3   OH251198   5.731   0.892  17.185 -0.0622 -0.5739  0.3223
 9928TIP3    H151199   5.714   0.880  17.091  0.0225  1.1344  0.0612
 9928TIP3    H251200   5.708   0.807  17.224 -1.6530 -0.8235 -1.0342
 9929TIP3   OH251201   6.169   3.221   3.273  0.2227  0.1577  0.9700
 9929TIP3    H151202   6.154   3.311   3.245 -1.4246 -0.5886 -0.7143
 9929TIP3    H251203   6.263   3.215   3.287  0.5674  1.7027 -0.4972
 9930TIP3   OH251204   4.912   2.448   2.215  0.1645  0.4809  0.1721
 9930TIP3    H151205   4.833   2.404   2.247 -1.6275  2.0960 -1.6752
 9930TIP3    H251206   4.883   2.492   2.135  3.3452 -0.0604 -1.4353
 9931TIP3   OH251207   2.528   3.735   1.412  0.1559 -0.2850  0.0290
 9931TIP3    H151208   2.573   3.810   1.372 -2.0197  1.1607  0.1330
 9931TIP3    H251209   2.542   3.745   1.506 -1.2927  0.8761  0.1641
 9932TIP3   OH251210   4.474   3.292  17.086  0.1300 -0.3454 -0.5025
 9932TIP3    H151211   4.558   3.332  17.062 -0.8554  1.0967 -1.7200
 9932TIP3    H251212   4.490   3.198  17.078  1.6853 -0.1123 -0.5260
 9933TIP3   OH251213   2.940   6.138  12.227 -0.3493  0.6011 -1.0464
 9933TIP3    H151214   2.989   6.193  12.166 -2.6964  1.7489 -2.0163
 9933TIP3    H251215   2.851   6.175  12.227 -1.2479 -1.3621  0.6074
 9934TIP3   OH251216   4.584   3.873   1.964 -0.3768  0.3782  0.4598
 9934TIP3    H151217   4.554   3.896   1.876  0.9026 -0.7507 -0.3305
 9934TIP3    H251218   4.657   3.932   1.981  0.1176 -0.1583  0.2549
 9935TIP3   OH251219   4.105   1.723  14.764 -0.5512  0.9455 -0.6435
 9935TIP3    H151220   4.118   1.654  14.699 -0.2932  0.3444  0.0337
 9935TIP3    H251221   4.120   1.805  14.716  1.0081  0.4723 -1.0361
 9936TIP3   OH251222   3.546   0.999  11.484 -0.0147  0.2339 -0.1261
 9936TIP3    H151223   3.572   0.998  11.576  0.5911  0.5832 -0.2943
 9936TIP3    H251224   3.469   1.057  11.482  0.4068  0.8085  0.0458
 9937TIP3   OH251225   3.531   6.339   2.438 -0.4283 -0.0729  0.6326
 9937TIP3    H151226   3.487   6.298   2.363  1.3585  1.0259 -1.1163
 9937TIP3    H251227   3.500   6.429   2.438 -0.2009  0.0061  1.0255
 9938TIP3   OH251228   4.334   2.045  16.530  0.2002  0.0971 -0.1598
 9938TIP3    H151229   4.299   2.120  16.481 -0.7824 -0.9098 -1.0397
 9938TIP3    H251230   4.363   1.984  16.462  2.7942  0.4505  0.5379
 9939TIP3   OH251231   5.419   1.988   5.704 -0.3277 -0.4533  0.5510
 9939TIP3    H151232   5.483   2.022   5.767  0.9083  0.4151 -1.0820
 9939TIP3    H251233   5.465   1.916   5.661 -1.2271 -1.1635  0.7635
 9940TIP3   OH251234   1.112   2.033   5.119  0.4072 -0.2651 -0.1567
 9940TIP3    H151235   1.156   2.115   5.142 -0.8597  0.2658  0.4907
 9940TIP3    H251236   1.019   2.057   5.110 -0.1248 -1.7756  0.8989
 9941TIP3   OH251237   2.759   5.134  11.849  0.2119  0.4783  0.1267
 9941TIP3    H151238   2.727   5.194  11.916 -1.1981  1.5542 -1.4346
 9941TIP3    H251239   2.809   5.190  11.789  2.1303 -0.5981  0.6299
 9942TIP3   OH251240   1.785   6.630  16.670 -0.5615  0.7734  0.2566
 9942TIP3    H151241   1.774   6.569  16.598  0.2095  1.8791 -0.8460
 9942TIP3    H251242   1.697   6.662  16.689 -0.9308 -0.4385  0.6537
 9943TIP3   OH251243   1.140   5.610   2.400 -0.2984  0.0068  0.0717
 9943TIP3    H151244   1.231   5.620   2.373 -1.0653  1.8289 -2.2286
 9943TIP3    H251245   1.143   5.554   2.478  2.5207 -2.4534 -1.5986
 9944TIP3   OH251246   2.427   6.196  16.682  0.1201  0.9603  0.2209
 9944TIP3    H151247   2.396   6.117  16.638  1.2496  0.5263  0.1836
 9944TIP3    H251248   2.422   6.264  16.614 -1.3789  1.0825  0.4060
 9945TIP3   OH251249   2.426   6.149  15.709 -0.0052 -0.2795  0.1105
 9945TIP3    H151250   2.388   6.101  15.635  2.4859  0.1227 -1.5760
 9945TIP3    H251251   2.408   6.241  15.689  0.4797 -0.1834  0.0905
 9946TIP3   OH251252   0.978   1.162  11.901  0.6497  0.0159  0.4893
 9946TIP3    H151253   1.065   1.190  11.872  0.1803 -0.0035 -1.0161
 9946TIP3    H251254   0.946   1.235  11.954 -0.0227  1.8535 -2.2663
 9947TIP3   OH251255   4.264   5.397  11.632  0.3175  0.2672 -0.1554
 9947TIP3    H151256   4.231   5.471  11.682  0.5896  0.2524  0.0481
 9947TIP3    H251257   4.224   5.406  11.546  3.3047  2.8923 -1.4658
 9948TIP3   OH251258   1.578   4.629  13.676  0.7157 -0.0116 -0.4672
 9948TIP3    H151259   1.513   4.590  13.734 -0.5168  1.9064 -0.4970
 9948TIP3    H251260   1.576   4.573  13.598 -0.3348 -0.4456 -0.1482
 9949TIP3   OH251261   3.368   2.334  13.201  0.7518 -0.3976  0.1351
 9949TIP3    H151262   3.300   2.281  13.243  2.2259 -0.5650  2.5181
 9949TIP3    H251263   3.330   2.422  13.196 -1.4943 -1.3613 -3.3279
 9950TIP3   OH251264   3.826   4.406  15.239 -0.8677 -0.0185  0.1224
 9950TIP3    H151265   3.769   4.377  15.310 -2.7465 -1.3641 -1.8056
 9950TIP3    H251266   3.875   4.328  15.214  0.9878  0.8204  0.8837
 9951TIP3   OH251267   0.122   0.392   0.360 -0.3127 -0.6186 -0.3297
 9951TIP3    H151268   0.216   0.377   0.366 -0.8240 -4.8060  1.5683
 9951TIP3    H251269   0.086   0.307   0.333 -3.5237  1.1560 -2.2598
 9952TIP3   OH251270   5.906   5.801   4.759  0.0594  0.3576  0.2512
 9952TIP3    H151271   5.955   5.737   4.811  2.0858  0.3794 -1.5058
 9952TIP3    H251272   5.964   5.876   4.751 -0.9377  1.0771 -0.5411
 9953TIP3   OH251273   2.073   4.756   4.802  0.0433  0.3658  0.8592
 9953TIP3    H151274   2.082   4.844   4.764 -1.1475  0.7426  1.4243
 9953TIP3    H251275   2.149   4.748   4.860  1.3070  0.1963 -0.7404
 9954TIP3   OH251276   5.346   1.120  15.235 -0.8442 -0.4578 -0.7947
 9954TIP3    H151277   5.263   1.123  15.283 -0.0540  1.3301  0.5822
 9954TIP3    H251278   5.343   1.195  15.176 -0.1248 -0.2512 -0.5752
 9955TIP3   OH251279   4.896   5.821  14.820  0.3145  0.6928 -0.0729
 9955TIP3    H151280   4.827   5.782  14.874  0.9016 -0.2320  0.0268
 9955TIP3    H251281   4.894   5.914  14.842  0.0550  0.4439  0.9939
 9956TIP3   OH251282   2.934   0.190  11.908  0.8867  0.1373 -0.5062
 9956TIP3    H151283   2.904   0.099  11.903 -0.3307  0.2891  2.0360
 9956TIP3    H251284   3.021   0.185  11.947  1.1250  0.0225 -1.0563
 9957TIP3   OH251285   0.694   1.694  13.529 -0.0032 -0.3063  0.0796
 9957TIP3    H151286   0.779   1.736  13.515  0.0159 -0.8217 -1.5339
 9957TIP3    H251287   0.705   1.605  13.498 -1.6240  0.1353 -1.9795
 9958TIP3   OH251288   1.543   4.360   1.370  0.5568  0.4630 -0.0378
 9958TIP3    H151289   1.626   4.319   1.394  1.8645  2.8039 -0.1935
 9958TIP3    H251290   1.484   4.339   1.442  1.9678  0.5613  1.2079
 9959TIP3   OH251291   5.033   3.756  14.440 -0.5464 -0.2697  0.0152
 9959TIP3    H151292   5.034   3.759  14.536 -1.5641  0.7560  0.0105
 9959TIP3    H251293   5.112   3.804  14.415 -0.7215  0.2120  0.3467
 9960TIP3   OH251294   5.589   3.420  12.043 -0.1087 -0.5130 -0.2647
 9960TIP3    H151295   5.628   3.472  11.973 -0.9678 -2.3001 -2.1904
 9960TIP3    H251296   5.644   3.437  12.119  0.5227  1.9698 -1.1747
 9961TIP3   OH251297   0.837   6.666   1.426  0.3498 -0.5146  0.3328
 9961TIP3    H151298   0.876   6.701   1.506  1.8324  0.2320 -0.6682
 9961TIP3    H251299   0.788   6.739   1.389 -0.2247 -0.8219  0.4600
 9962TIP3   OH251300   4.430   1.082  14.933 -0.0509 -0.5622  0.0359
 9962TIP3    H151301   4.501   1.051  14.990 -0.0958 -0.4843  0.1353
 9962TIP3    H251302   4.432   1.177  14.942  0.0702 -0.5381 -0.2467
 9963TIP3   OH251303   4.004   3.953   1.462 -0.0582 -0.2246  0.2010
 9963TIP3    H151304   4.081   3.920   1.507  0.0309 -0.1573  0.0972
 9963TIP3    H251305   4.037   4.018   1.400 -0.4111  1.6225  1.8542
 9964TIP3   OH251306   4.359   6.511  13.582 -0.4772  0.0545 -0.3272
 9964TIP3    H151307   4.415   6.565  13.526  1.3907  1.8027  2.9232
 9964TIP3    H251308   4.417   6.443  13.615 -0.9074  0.3866  1.1723
 9965TIP3   OH251309   2.055   2.527   1.075  0.4208  0.2004  0.3447
 9965TIP3    H151310   1.995   2.496   1.143  0.6087 -1.9796 -0.4006
 9965TIP3    H251311   2.109   2.594   1.118  0.0124 -0.5667  2.1047
 9966TIP3   OH251312   4.900   1.004  16.632  0.1552 -0.3289 -0.3748
 9966TIP3    H151313   4.888   1.075  16.570  1.2449 -1.4133 -1.8913
 9966TIP3    H251314   4.820   0.952  16.625 -0.6051  0.6516  0.6744
 9967TIP3   OH251315   2.268   2.188  16.916 -0.0143 -0.0814  0.5361
 9967TIP3    H151316   2.225   2.170  16.999 -2.1377 -1.8999 -0.8319
 9967TIP3    H251317   2.349   2.137  16.919  0.2377  0.3645  1.7062
 9968TIP3   OH251318   1.261   0.576  11.844  0.3230 -0.3072  0.1374
 9968TIP3    H151319   1.283   0.668  11.825  1.3615 -0.3584  1.0384
 9968TIP3    H251320   1.337   0.542  11.890 -1.1629 -0.8304  2.3651
 9969TIP3   OH251321   6.615   0.514   6.298 -0.7457  0.0935  0.0847
 9969TIP3    H151322   6.641   0.491   6.209  0.3683 -0.9382  0.6455
 9969TIP3    H251323   6.539   0.571   6.287 -1.4126 -1.0231 -1.4874
 9970TIP3   OH251324   4.140   3.300  14.872  0.2391  0.1588  0.1111
 9970TIP3    H151325   4.194   3.378  14.877  1.5624 -0.6630 -0.7311
 9970TIP3    H251326   4.202   3.227  14.867 -0.9370 -1.0070  1.3004
 9971TIP3   OH251327   0.784   4.403  10.900  0.3015  0.7377 -0.3397
 9971TIP3    H151328   0.723   4.375  10.831 -0.6541 -1.4462  1.2397
 9971TIP3    H251329   0.731   4.458  10.958  0.7510  1.5308 -0.6768
 9972TIP3   OH251330   0.733   3.335  11.753  0.0254  0.0217 -0.1432
 9972TIP3    H151331   0.741   3.362  11.662  0.4142  0.4417  0.0117
 9972TIP3    H251332   0.682   3.405  11.794  1.1124  0.5918  0.2798
 9973TIP3   OH251333   2.764   6.239   5.222 -0.7906 -0.4856 -0.4024
 9973TIP3    H151334   2.791   6.249   5.130 -1.3218 -0.2797 -0.5371
 9973TIP3    H251335   2.750   6.145   5.232  0.5620 -0.6828 -0.1604
 9974TIP3   OH251336   2.616   1.271   1.253  0.2559  0.1872  0.5421
 9974TIP3    H151337   2.616   1.238   1.342  0.6297 -0.6338  0.2457
 9974TIP3    H251338   2.534   1.238   1.215 -0.0931  0.8593  0.6880
 9975TIP3   OH251339   3.976   0.022  15.681 -0.3867  0.1399  0.0056
 9975TIP3    H151340   3.957  -0.053  15.624 -1.0932  0.6412 -0.4198
 9975TIP3    H251341   4.059   0.056  15.648 -0.7651  0.3915 -0.6811
 9976TIP3   OH251342   2.602   1.592  11.384 -0.0666 -0.1809 -0.5454
 9976TIP3    H151343   2.598   1.643  11.304 -0.2359 -0.6367 -0.8308
 9976TIP3    H251344   2.528   1.532  11.378 -0.4123  0.1589  0.2113
 9977TIP3   OH251345   6.661   2.899   3.439  0.2488  0.3545  0.3938
 9977TIP3    H151346   6.732   2.861   3.492  0.6043 -0.6283 -0.7356
 9977TIP3    H251347   6.582   2.878   3.487  0.4449 -1.8066 -0.1094
 9978TIP3   OH251348   1.977   3.900  13.535  0.3287  0.2237  0.3758
 9978TIP3    H151349   1.976   3.951  13.616 -1.3001  1.0225 -0.0998
 9978TIP3    H251350   1.886   3.903  13.504  0.7516 -0.7651 -1.0432
 9979TIP3   OH251351   5.199   2.370  13.922  0.1242 -0.2326  0.2749
 9979TIP3    H151352   5.193   2.275  13.918 -0.0824 -0.2082 -0.1027
 9979TIP3    H251353   5.285   2.390  13.884  0.2885 -0.2849  0.6224
 9980TIP3   OH251354   1.041   4.068  11.935 -0.1993 -0.1933 -0.5439
 9980TIP3    H151355   1.079   3.991  11.977 -1.6941 -1.7886 -1.8995
 9980TIP3    H251356   1.114   4.109  11.890  0.9171  0.0856  1.4242
 9981TIP3   OH251357   2.250   6.180   3.960 -0.5368  0.3335 -0.8858
 9981TIP3    H151358   2.334   6.211   3.926 -0.2074  0.3720 -0.0513
 9981TIP3    H251359   2.240   6.093   3.920  0.8288 -0.4941  0.4677
 9982TIP3   OH251360   1.472   2.397  13.678 -0.4635  0.0243 -0.2347
 9982TIP3    H151361   1.499   2.330  13.741 -1.7801  0.4884  0.8607
 9982TIP3    H251362   1.540   2.465  13.685 -1.4757  0.9104  2.0575
 9983TIP3   OH251363   2.834   2.753   1.124 -0.4424  0.5531  0.5388
 9983TIP3    H151364   2.783   2.672   1.130  0.5066 -0.0564  0.5784
 9983TIP3    H251365   2.878   2.748   1.040  1.8729 -0.3839  1.7070
 9984TIP3   OH251366   5.494   2.628  13.532  0.0274  0.3709  0.2615
 9984TIP3    H151367   5.488   2.575  13.453 -0.1850 -0.3201  0.7291
 9984TIP3    H251368   5.405   2.628  13.567  0.2872 -0.0103  0.9320
 9985TIP3   OH251369   6.771   0.593   1.322 -0.7988  0.0847 -0.1149
 9985TIP3    H151370   6.764   0.667   1.261  0.7554 -1.0544 -1.7801
 9985TIP3    H251371   6.788   0.517   1.266 -1.5133 -1.4294  1.5991
 9986TIP3   OH251372   6.431   0.704  13.418 -0.3702  0.0162 -0.1966
 9986TIP3    H151373   6.470   0.782  13.458 -1.5118  0.7456 -0.4430
 9986TIP3    H251374   6.410   0.731  13.329 -0.9490 -0.5129 -0.2294
 9987TIP3   OH251375   3.652   6.399  14.937  0.3083 -0.6620  0.2172
 9987TIP3    H151376   3.715   6.387  15.008  0.8887 -1.7510 -0.4642
 9987TIP3    H251377   3.645   6.313  14.896  0.8559  0.1876 -1.7909
 9988TIP3   OH251378   3.552   2.836  13.366 -0.2464 -0.0013 -0.6772
 9988TIP3    H151379   3.542   2.928  13.339 -0.5628  0.0508 -0.3945
 9988TIP3    H251380   3.639   2.831  13.404 -0.3648  0.2697 -0.3624
 9989TIP3   OH251381   1.938   4.831   2.769 -0.9054 -0.0731 -0.2762
 9989TIP3    H151382   1.984   4.747   2.771  0.1732  0.4508 -1.5619
 9989TIP3    H251383   1.850   4.810   2.739 -0.2620 -0.6168 -1.9065
 9990TIP3   OH251384   3.903   0.499  10.946  0.2025 -0.2438  0.0647
 9990TIP3    H151385   3.975   0.437  10.953  0.0318 -0.4134  0.3229
 9990TIP3    H251386   3.906   0.548  11.028  0.4547  0.2189 -0.2164
 9991TIP3   OH251387   1.440   1.593  11.095  0.0132  0.2379  0.0149
 9991TIP3    H151388   1.399   1.549  11.020 -0.0548  1.9617 -1.0118
 9991TIP3    H251389   1.532   1.602  11.070  0.1491  0.1594  0.4782
 9992TIP3   OH251390   3.984   3.823  15.148 -0.6858 -0.1115  0.2326
 9992TIP3    H151391   3.898   3.787  15.170 -0.6626 -0.0601  0.4110
 9992TIP3    H251392   4.003   3.788  15.061  0.6811 -3.0250  1.5542
 9993TIP3   OH251393   2.247   0.271  16.818 -0.2724 -0.1371 -0.0104
 9993TIP3    H151394   2.174   0.316  16.775  0.4841  1.1374 -0.0213
 9993TIP3    H251395   2.212   0.245  16.903 -0.4607  1.3976  0.4146
 9994TIP3   OH251396   4.916   2.205  12.216 -0.0711  0.1471  0.0299
 9994TIP3    H151397   4.867   2.154  12.280  0.0450 -0.0419 -0.0289
 9994TIP3    H251398   5.008   2.182  12.233  0.2276  2.1825  1.6449
 9995TIP3   OH251399   4.627   2.478   6.436 -0.4550 -0.7697  0.2650
 9995TIP3    H151400   4.564   2.502   6.367 -0.1497 -2.8601 -0.8074
 9995TIP3    H251401   4.685   2.554   6.442 -1.9033  0.4208 -0.0872
 9996TIP3   OH251402   6.480   4.348  17.090 -0.0088  0.0013 -0.6745
 9996TIP3    H151403   6.535   4.275  17.120  1.0285  0.5349 -1.2288
 9996TIP3    H251404   6.542   4.413  17.058 -0.9901  0.3662 -1.9182
 9997TIP3   OH251405   2.526   3.852  15.356  0.4939  0.7353  0.7750
 9997TIP3    H151406   2.491   3.837  15.444  0.6182 -0.1366  0.6833
 9997TIP3    H251407   2.448   3.850  15.300  0.5945 -0.5169  0.6550
 9998TIP3   OH251408   3.833   4.097   0.419  0.1040  0.1344  0.5289
 9998TIP3    H151409   3.912   4.073   0.467  1.0442  0.0075 -0.9946
 9998TIP3    H251410   3.834   4.193   0.416  1.8709  0.1326 -1.9832
 9999TIP3   OH251411   0.657   5.769   5.444  0.7174  0.0114  0.3323
 9999TIP3    H151412   0.730   5.767   5.505  0.6604  2.6173  0.6245
 9999TIP3    H251413   0.693   5.739   5.361  1.9020  0.3863  0.6947
10000TIP3   OH251414   1.785   2.341  13.726  0.6700 -0.7071 -0.2242
10000TIP3    H151415   1.748   2.429  13.721  0.4942 -0.6418  1.6809
10000TIP3    H251416   1.755   2.298  13.645  0.8870  0.9903 -1.2645
10001TIP3   OH251417   2.129   4.624   1.186 -0.7918  0.3945  0.0721
10001TIP3    H151418   2.224   4.633   1.201 -0.7946 -0.2945  0.5779
10001TIP3    H251419   2.120   4.537   1.147 -1.1142  0.9138 -1.0437
10002TIP3   OH251420   0.086   0.627   4.817  0.2174 -0.1041  0.3168
10002TIP3    H151421   0.178   0.641   4.793  0.9339 -0.7071  2.5020
10002TIP3    H251422   0.059   0.550   4.766  0.6999  0.4270 -0.7877
10003TIP3   OH251423   5.168   0.574  13.600  0.0314  0.0346 -0.5659
10003TIP3    H151424   5.089   0.536  13.638  1.5597 -0.5465  2.4121
10003TIP3    H251425   5.137   0.645  13.544 -2.5921 -0.4798  0.0925
10004TIP3   OH251426   0.767   3.523   5.406 -0.5552  0.3457  1.0851
10004TIP3    H151427   0.692   3.540   5.348 -0.8935  0.0649  1.4315
10004TIP3    H251428   0.818   3.456   5.360 -1.7419 -1.1693  1.8779
10005TIP3   OH251429   2.904   0.842  15.026  0.7200  0.1919 -0.3237
10005TIP3    H151430   2.934   0.931  15.040  1.3186  0.1556 -1.3220
10005TIP3    H251431   2.897   0.805  15.114 -0.1119  1.3902  0.1440
10006TIP3   OH251432   5.701   1.684   0.393 -0.1584  0.8861 -0.6102
10006TIP3    H151433   5.696   1.694   0.298  0.5920  0.6473 -0.6825
10006TIP3    H251434   5.778   1.734   0.419 -0.9083  1.7617  0.0094
10007TIP3   OH251435   2.417   5.628   2.794 -0.3064 -0.0121 -0.0367
10007TIP3    H151436   2.482   5.696   2.780 -0.1280 -0.4307 -1.3168
10007TIP3    H251437   2.359   5.664   2.861  0.5045  0.8761  0.2083
10008TIP3   OH251438   0.759   5.561   3.959  0.7601 -0.3132  0.3456
10008TIP3    H151439   0.789   5.518   3.879 -1.0397 -1.6677  0.3508
10008TIP3    H251440   0.682   5.611   3.933  1.6776  1.3820  0.7466
10009TIP3   OH251441   3.845   6.236   2.082  0.3946  0.2978  0.1261
10009TIP3    H151442   3.898   6.308   2.116  1.5604  0.2766 -1.5481
10009TIP3    H251443   3.902   6.191   2.019 -0.2921 -2.1057  1.0994
10010TIP3   OH251444   6.768   2.760   0.545  0.0170  0.1842  0.1052
10010TIP3    H151445   6.853   2.718   0.557  0.2418  0.5199 -0.2946
10010TIP3    H251446   6.716   2.696   0.496  0.2603  0.2474 -0.2400
10011TIP3   OH251447   6.387   3.725  15.240 -0.0398  0.1938  0.1755
10011TIP3    H151448   6.444   3.775  15.181 -0.1666 -1.3401 -1.3242
10011TIP3    H251449   6.391   3.636  15.206 -0.4756 -0.6702  2.2625
10012TIP3   OH251450   3.072   1.804  10.600 -0.1120  0.5009  0.0123
10012TIP3    H151451   3.108   1.870  10.542 -1.3316  1.0133 -0.1890
10012TIP3    H251452   3.040   1.735  10.542 -0.2234  0.4455  0.1377
10013TIP3   OH251453   4.807   5.462  12.174 -0.2241 -0.2528  0.3778
10013TIP3    H151454   4.833   5.389  12.118  0.3427  0.4486 -0.2929
10013TIP3    H251455   4.885   5.480  12.226 -0.2687  0.0534  0.3409
10014TIP3   OH251456   0.159   5.164   1.574 -0.8339 -0.0579  0.3440
10014TIP3    H151457   0.223   5.092   1.570 -0.4162  0.3569 -1.0979
10014TIP3    H251458   0.075   5.121   1.557 -0.9615 -0.5884  2.1361
10015TIP3   OH251459   0.121   5.117  12.233 -0.0823  0.3962  0.1199
10015TIP3    H151460   0.131   5.022  12.239  0.9227  0.5096  0.4494
10015TIP3    H251461   0.086   5.143  12.319  2.1985  0.5980  1.0542
10016TIP3   OH251462   5.298   0.129   2.985  0.5402  0.5729 -0.4491
10016TIP3    H151463   5.237   0.125   2.912 -1.1566  0.6907  0.9043
10016TIP3    H251464   5.245   0.159   3.059  2.0207 -0.2485  1.0138
10017TIP3   OH251465   3.256   0.286  12.643  0.5036 -0.1163 -0.3236
10017TIP3    H151466   3.335   0.338  12.658  0.2963  0.2103 -0.3527
10017TIP3    H251467   3.212   0.285  12.727 -0.5195  1.4810 -0.8023
10018TIP3   OH251468   3.082   5.071  14.515 -0.1131  0.5781 -0.0528
10018TIP3    H151469   2.994   5.107  14.527 -1.0278 -1.1603 -1.1633
10018TIP3    H251470   3.096   5.015  14.591 -0.4319  0.0002 -0.4130
10019TIP3   OH251471   1.817   5.918  16.809 -0.2331 -0.1041  0.1927
10019TIP3    H151472   1.787   5.940  16.721  0.1828  0.3517  0.1619
10019TIP3    H251473   1.785   5.829  16.823 -0.2674 -0.1990 -0.4374
10020TIP3   OH251474   1.509   4.505  13.003  0.2887 -0.1173 -1.0343
10020TIP3    H151475   1.442   4.443  12.978 -0.0420  0.6925 -2.2312
10020TIP3    H251476   1.466   4.564  13.066  0.1397 -0.1419 -1.1144
10021TIP3   OH251477   4.908   5.614  14.582  0.3681 -0.2228 -0.0784
10021TIP3    H151478   4.851   5.544  14.611 -0.3518  0.2628 -0.2921
10021TIP3    H251479   4.904   5.679  14.652 -0.2531  0.3173 -0.5993
10022TIP3   OH251480   0.758   1.239   2.283  0.4085  0.5631 -0.7961
10022TIP3    H151481   0.821   1.306   2.307 -0.5057  1.9188 -1.9903
10022TIP3    H251482   0.725   1.267   2.197 -1.9727  0.0530 -0.1243
10023TIP3   OH251483   6.574   4.376   1.933 -0.2046 -0.1268 -0.4702
10023TIP3    H151484   6.577   4.306   1.868 -0.4750 -0.8111  0.2449
10023TIP3    H251485   6.488   4.367   1.974 -1.7109  2.6928 -2.6029
10024TIP3   OH251486   1.565   3.945   0.616 -0.6605 -0.2621 -0.2478
10024TIP3    H151487   1.476   3.912   0.601 -1.1692  0.3728  1.1723
10024TIP3    H251488   1.561   3.987   0.702  0.9026  0.2083 -0.3678
10025TIP3   OH251489   4.472   6.112  15.247 -0.8607 -0.0537 -0.8923
10025TIP3    H151490   4.470   6.181  15.313  0.3849 -0.0043 -0.8918
10025TIP3    H251491   4.485   6.158  15.164  0.7979 -0.3137 -0.8054
10026TIP3   OH251492   0.199   1.482   1.982  0.1796  0.5238  0.0588
10026TIP3    H151493   0.268   1.455   1.921 -0.2112  2.7865 -1.4900
10026TIP3    H251494   0.221   1.571   2.007 -1.3087  0.7018  0.8692
10027TIP3   OH251495   6.344   5.957  11.002 -0.4332 -0.0780  0.4358
10027TIP3    H151496   6.279   6.008  10.954 -1.5233  0.1547  2.0723
10027TIP3    H251497   6.382   6.020  11.064  1.7322 -0.0877 -0.8075
10028TIP3   OH251498   1.893   4.665   6.147  0.0468 -0.0524 -0.0718
10028TIP3    H151499   1.862   4.576   6.165 -0.5252  0.3526  1.0805
10028TIP3    H251500   1.815   4.713   6.119  0.5417 -0.1366 -1.6790
10029TIP3   OH251501   0.197   5.476   3.915 -0.5559  0.1707 -0.1545
10029TIP3    H151502   0.241   5.404   3.871  0.7029  1.1460 -0.5375
10029TIP3    H251503   0.234   5.477   4.003 -0.3250  0.5701 -0.2578
10030TIP3   OH251504   6.669   6.527   2.598  0.1343 -0.6462  0.1675
10030TIP3    H151505   6.640   6.538   2.507 -1.5934  0.2443  0.7727
10030TIP3    H251506   6.610   6.583   2.648 -0.3746 -2.7984  2.1012
10031TIP3   OH251507   4.376   2.966   2.110 -0.1490  0.0927 -0.4881
10031TIP3    H151508   4.354   2.984   2.201 -0.6247  0.3077 -0.6438
10031TIP3    H251509   4.470   2.947   2.111 -0.4910 -1.7989  0.3436
10032TIP3   OH251510   0.114   3.087  11.830  0.4621 -0.2101  0.7283
10032TIP3    H151511   0.113   3.104  11.736  0.6369  0.7797  0.8948
10032TIP3    H251512   0.141   2.995  11.838  0.7356 -0.2119 -0.1720
10033TIP3   OH251513   2.542   2.007  14.589 -0.0857  0.1036 -0.4226
10033TIP3    H151514   2.554   2.079  14.528 -1.5870 -0.6694 -1.6780
10033TIP3    H251515   2.629   1.966  14.595  1.1045  2.6159  1.2220
10034TIP3   OH251516   5.930   1.611   5.210 -0.1935 -0.0890 -0.3484
10034TIP3    H151517   5.849   1.630   5.259 -0.9048  0.1482 -1.5650
10034TIP3    H251518   5.991   1.580   5.276 -1.2666 -0.2219  0.6199
10035TIP3   OH251519   2.965   3.399   0.037  0.4287  0.4585 -0.2987
10035TIP3    H151520   3.048   3.374  -0.004  0.2541  0.3905 -0.6110
10035TIP3    H251521   2.985   3.404   0.130  0.2377 -1.8345 -0.0878
10036TIP3   OH251522   0.175   2.327   4.063 -0.0254 -0.1245 -0.0421
10036TIP3    H151523   0.120   2.391   4.108 -0.9654 -0.8210 -0.1595
10036TIP3    H251524   0.263   2.365   4.063  0.1339 -0.2758  2.7804
10037TIP3   OH251525   0.600   4.290  10.715  0.1643  0.4244  0.1745
10037TIP3    H151526   0.584   4.277  10.621  4.2400 -0.5580 -0.5670
10037TIP3    H251527   0.571   4.380  10.731 -2.9736 -0.1749 -1.3197
10038TIP3   OH251528   5.470   1.705   2.110 -0.5718 -0.0992  0.2151
10038TIP3    H151529   5.545   1.695   2.168 -0.9343 -1.2647  0.5084
10038TIP3    H251530   5.506   1.742   2.030  0.1272  0.3993  0.7558
10039TIP3   OH251531   2.145   5.507  14.541 -0.2239 -0.3969  0.1026
10039TIP3    H151532   2.111   5.555  14.616 -0.6771 -0.1463 -0.2575
10039TIP3    H251533   2.134   5.415  14.565  0.7763 -0.3360  0.8497
10040TIP3   OH251534   0.269   2.380  11.183 -0.4963 -0.0068 -0.2325
10040TIP3    H151535   0.253   2.351  11.093 -0.1811  0.4231 -0.4266
10040TIP3    H251536   0.182   2.381  11.223 -0.5513 -0.8998 -0.3172
10041TIP3   OH251537   2.223   3.316   1.124 -0.0815 -0.3175 -0.3722
10041TIP3    H151538   2.283   3.388   1.144  0.4170 -0.8663  0.1440
10041TIP3    H251539   2.279   3.247   1.089 -0.4018 -0.8594  0.1673
10042TIP3   OH251540   3.458   6.157  11.576 -0.1846  0.4080  0.4738
10042TIP3    H151541   3.477   6.223  11.643 -0.6028  0.1327  0.8705
10042TIP3    H251542   3.403   6.093  11.621  1.2246 -0.8789  0.4603
10043TIP3   OH251543   6.334   6.265  16.074 -1.0327  0.1698 -0.1651
10043TIP3    H151544   6.341   6.176  16.040 -0.8966 -0.2479  0.8909
10043TIP3    H251545   6.299   6.254  16.163  0.1830  1.0536  0.4585
10044TIP3   OH251546   1.665   3.929  16.324  0.1640  0.1905  0.1181
10044TIP3    H151547   1.669   4.024  16.314  0.6891 -0.0119 -1.8585
10044TIP3    H251548   1.719   3.895  16.254  1.0774 -1.5740  1.6061
10045TIP3   OH251549   4.025   2.394   5.631 -0.6198  0.4964 -0.2023
10045TIP3    H151550   4.044   2.304   5.606  1.7518  1.2562 -1.3547
10045TIP3    H251551   4.098   2.420   5.687 -2.0041  1.2963  1.3460
10046TIP3   OH251552   1.039   0.731   0.845 -0.7155  0.2496  0.1894
10046TIP3    H151553   1.121   0.712   0.799 -0.1839 -1.8219  1.8455
10046TIP3    H251554   1.066   0.787   0.919 -0.9264  0.1978  0.3071
10047TIP3   OH251555   0.328   2.395  16.056 -0.2767  0.1163  0.1458
10047TIP3    H151556   0.365   2.366  16.139  0.0761  0.2707  0.0493
10047TIP3    H251557   0.404   2.405  15.999 -0.5373 -0.1852 -0.2572
10048TIP3   OH251558   2.603   2.029   5.153 -0.1473 -0.3401 -0.0557
10048TIP3    H151559   2.635   2.113   5.120 -1.5956  1.3095  2.4553
10048TIP3    H251560   2.517   2.018   5.113  0.8959 -1.8457 -2.1186
10049TIP3   OH251561   2.871   4.537  17.017  0.1633 -0.0627 -0.3775
10049TIP3    H151562   2.776   4.547  17.006  0.3086  1.3805 -0.5190
10049TIP3    H251563   2.882   4.521  17.111 -0.0387  3.3724  0.3738
10050TIP3   OH251564   4.678   6.447  12.104  0.1429 -0.5579  0.5043
10050TIP3    H151565   4.715   6.375  12.154 -1.9022 -3.2306 -1.5321
10050TIP3    H251566   4.725   6.446  12.020 -1.8866 -1.6574 -0.7097
10051TIP3   OH251567   5.022   2.010  16.152  0.3500 -0.0334 -0.2664
10051TIP3    H151568   4.930   1.984  16.155 -0.2575  1.3034 -3.1430
10051TIP3    H251569   5.032   2.051  16.065  2.9266  2.5586  1.0733
10052TIP3   OH251570   3.307   0.895   2.599  0.4239  0.7643 -0.8898
10052TIP3    H151571   3.258   0.977   2.606  1.3641  1.4989 -2.3232
10052TIP3    H251572   3.263   0.836   2.660 -1.5136  1.7186 -1.2767
10053TIP3   OH251573   1.521   1.991  10.444 -0.4121  0.4567 -0.8197
10053TIP3    H151574   1.547   1.942  10.522  2.6115  1.4615 -1.0895
10053TIP3    H251575   1.451   1.939  10.405  0.1040 -1.6576  0.9097
10054TIP3   OH251576   0.916   1.180  13.192 -0.0553 -0.2544 -0.2818
10054TIP3    H151577   0.856   1.106  13.181  0.2663 -0.6294  0.4377
10054TIP3    H251578   0.924   1.191  13.287  1.1290 -0.3144 -0.3601
10055TIP3   OH251579   4.504   2.977   3.155 -0.3497  0.2513 -0.0284
10055TIP3    H151580   4.477   3.056   3.109 -0.8201  1.2764  1.8734
10055TIP3    H251581   4.427   2.953   3.207  0.3051 -0.5296  0.6159
10056TIP3   OH251582   2.643   1.456  16.069  0.5835  0.4025 -0.1617
10056TIP3    H151583   2.729   1.429  16.037  1.6797  2.4156  0.8681
10056TIP3    H251584   2.599   1.493  15.992  1.1725  0.5391 -0.4397
10057TIP3   OH251585   3.959   4.192   4.807 -0.0922  0.3899 -0.2003
10057TIP3    H151586   3.967   4.287   4.819 -1.5767  0.5617 -0.3599
10057TIP3    H251587   3.874   4.170   4.845  0.1422 -0.8484 -0.3524
10058TIP3   OH251588   3.246   6.661  12.057  0.2115 -0.1904 -0.2333
10058TIP3    H151589   3.182   6.591  12.046  0.0327 -0.1405  0.4538
10058TIP3    H251590   3.290   6.667  11.972  1.8633 -2.7529  0.3342
10059TIP3   OH251591   3.309   0.050  13.293  0.1182  0.5502 -0.0966
10059TIP3    H151592   3.216   0.028  13.302  0.0166  1.0214  0.0730
10059TIP3    H251593   3.355  -0.015  13.345 -0.1099  0.2581 -0.2556
10060TIP3   OH251594   3.643   5.473  11.465 -0.2792  0.0542  0.2928
10060TIP3    H151595   3.724   5.424  11.450 -0.1425 -0.0236  1.2616
10060TIP3    H251596   3.672   5.562  11.484 -0.4545  0.1621  0.0628
10061TIP3   OH251597   2.897   5.093   4.176  0.0120 -0.1875 -0.0880
10061TIP3    H151598   2.968   5.035   4.205 -0.1822 -0.6119 -0.4400
10061TIP3    H251599   2.911   5.101   4.081  0.3981  0.8384  0.0515
10062TIP3   OH251600   1.617   5.824   2.254  0.3826  0.4200 -0.0411
10062TIP3    H151601   1.675   5.853   2.324  2.4827 -2.1837 -0.5292
10062TIP3    H251602   1.616   5.896   2.192  1.7432  1.2053  0.8003
10063TIP3   OH251603   6.121   5.801   0.757  0.3722  1.1405 -0.0235
10063TIP3    H151604   6.045   5.847   0.724 -0.6539 -1.2743 -1.2929
10063TIP3    H251605   6.090   5.757   0.836  0.9394  1.4598  0.3903
10064TIP3   OH251606   4.435   6.465  11.288  0.0525  0.0421  0.0937
10064TIP3    H151607   4.409   6.390  11.234 -2.4465  0.3219  0.7852
10064TIP3    H251608   4.451   6.428  11.375  3.2902 -0.2861 -0.5381
10065TIP3   OH251609   4.859   5.611  16.232  0.4389  0.3355 -0.6339
10065TIP3    H151610   4.802   5.680  16.266 -2.0414 -1.7143 -0.3607
10065TIP3    H251611   4.875   5.553  16.306  0.3803 -0.7202 -1.4237
10066TIP3   OH251612   5.001   6.736   5.129 -0.2015 -0.5629 -0.0899
10066TIP3    H151613   5.038   6.777   5.050  1.4384  0.7517  1.2816
10066TIP3    H251614   4.925   6.791   5.150  0.1533 -0.0992 -0.0038
10067TIP3   OH251615   1.489   4.417   2.325 -0.1033  0.4232  0.2793
10067TIP3    H151616   1.427   4.485   2.353 -1.0917 -0.4003  0.1779
10067TIP3    H251617   1.435   4.338   2.319  1.3869 -0.8528  2.3773
10068TIP3   OH251618   5.335   1.678   3.462  0.1156 -0.0005  0.4474
10068TIP3    H151619   5.249   1.680   3.419  1.6762  0.3159 -2.9767
10068TIP3    H251620   5.352   1.585   3.477 -0.1865 -0.1901 -0.3381
10069TIP3   OH251621   5.413   5.952   5.483  0.9343 -0.1174 -0.0854
10069TIP3    H151622   5.382   5.972   5.394 -0.5266 -0.6889  0.2574
10069TIP3    H251623   5.345   5.895   5.519  1.1827  0.5937  1.6113
10070TIP3   OH251624   0.069   3.609  12.203 -0.3274 -0.2511 -0.1007
10070TIP3    H151625   0.059   3.594  12.109 -0.7300  2.7802 -0.6404
10070TIP3    H251626   0.163   3.608  12.218 -0.0577  2.2182 -1.2040
10071TIP3   OH251627   0.172   0.149   2.233 -0.2805  0.6617  0.5937
10071TIP3    H151628   0.120   0.167   2.155 -0.7816  0.0623  0.7809
10071TIP3    H251629   0.238   0.218   2.234 -0.5373  0.9292 -0.1199
10072TIP3   OH251630   3.878   4.427   3.659  0.5387 -0.1578 -0.2953
10072TIP3    H151631   3.886   4.518   3.689 -0.9563  0.5012 -1.7363
10072TIP3    H251632   3.961   4.408   3.616  1.1484  0.2488  0.6777
10073TIP3   OH251633   5.415   5.657   1.514 -0.3013 -0.5005 -0.3470
10073TIP3    H151634   5.489   5.661   1.575 -1.3130  0.3954  0.8799
10073TIP3    H251635   5.380   5.568   1.524  0.5710 -0.9221 -0.9187
10074TIP3   OH251636   1.549   3.990   0.146  0.2209  0.7221 -0.9353
10074TIP3    H151637   1.476   4.051   0.153  1.0020  1.5539  0.7538
10074TIP3    H251638   1.595   4.015   0.066 -0.7700  0.8381 -1.4748
10075TIP3   OH251639   6.339   4.485  14.801 -0.1316 -0.0310  0.9739
10075TIP3    H151640   6.365   4.408  14.851  1.3689  0.3227  0.7904
10075TIP3    H251641   6.415   4.505  14.746 -0.9883  0.7938  0.0467
10076TIP3   OH251642   1.730   0.975  11.963 -0.0542 -0.3520 -0.1340
10076TIP3    H151643   1.718   1.009  11.874  0.5085  0.8807  0.2383
10076TIP3    H251644   1.786   1.039  12.006 -0.6804 -0.6930  1.2638
10077TIP3   OH251645   1.713   5.104  12.816 -0.2405 -0.6955  0.0047
10077TIP3    H151646   1.739   5.045  12.887 -0.7771 -0.7221  0.1858
10077TIP3    H251647   1.618   5.111  12.824 -0.0304  1.7954  1.2521
10078TIP3   OH251648   3.636   4.009   3.669 -0.3631 -0.2450  0.2935
10078TIP3    H151649   3.662   4.096   3.639  0.0102  0.1740  1.7415
10078TIP3    H251650   3.615   3.961   3.589  0.1643  0.9356 -0.5810
10079TIP3   OH251651   1.157   6.356   2.427  0.0807 -0.4071 -0.1570
10079TIP3    H151652   1.072   6.338   2.388  0.5350 -0.5610 -1.0874
10079TIP3    H251653   1.136   6.388   2.515 -0.9053 -1.1484 -0.1089
10080TIP3   OH251654   1.917   2.671  13.322 -0.5643  0.0615 -0.5671
10080TIP3    H151655   1.853   2.641  13.387 -2.0530  0.2008 -1.9064
10080TIP3    H251656   1.869   2.736  13.270  0.9127  0.7059 -1.1630
10081TIP3   OH251657   5.493   0.114  12.283  0.4230  0.6065 -0.4368
10081TIP3    H151658   5.586   0.100  12.305  0.2379  1.7833  1.3146
10081TIP3    H251659   5.488   0.206  12.258 -0.5569  1.0771  1.3426
10082TIP3   OH251660   4.876   0.731  13.262  0.1203  0.0141 -0.0966
10082TIP3    H151661   4.859   0.637  13.261 -0.3483  0.1020 -0.8804
10082TIP3    H251662   4.857   0.758  13.351  0.9902 -0.7631  0.3422
10083TIP3   OH251663   5.806   3.115  12.371 -0.2607 -0.2112  0.0754
10083TIP3    H151664   5.773   3.046  12.314  1.1941 -2.0353  1.3133
10083TIP3    H251665   5.737   3.128  12.436 -0.2570 -1.0585  0.2616
10084TIP3   OH251666   4.076   1.963   2.298 -0.4993  0.1234 -0.7054
10084TIP3    H151667   4.163   1.965   2.338  0.3769  1.4076 -2.5442
10084TIP3    H251668   4.039   2.049   2.317 -2.0011 -0.8516  1.2060
10085TIP3   OH251669   3.057   5.533  14.328 -0.3360 -0.3864  0.3833
10085TIP3    H151670   3.117   5.607  14.327  1.2165 -1.5584 -1.7576
10085TIP3    H251671   3.099   5.467  14.272 -2.9792 -1.8081 -0.0995
10086TIP3   OH251672   4.782   3.079  11.321 -0.5673  0.1494  0.1481
10086TIP3    H151673   4.845   3.040  11.261 -0.2068  0.7179  0.1472
10086TIP3    H251674   4.721   3.127  11.264  0.1464  1.2221  0.2562
10087TIP3   OH251675   3.219   2.174  14.451 -0.0804 -0.1710  0.1686
10087TIP3    H151676   3.258   2.144  14.369 -1.6096  0.7177 -0.9347
10087TIP3    H251677   3.219   2.269  14.445  0.1232 -0.0663  1.3986
10088TIP3   OH251678   1.002   3.295  12.716  0.1071  0.1378  0.2885
10088TIP3    H151679   0.999   3.379  12.761  1.4097  0.2012  0.2759
10088TIP3    H251680   1.005   3.230  12.786  0.7858  0.1810  0.3062
10089TIP3   OH251681   2.479   0.771  16.242 -0.3358  0.4850 -0.2437
10089TIP3    H151682   2.454   0.854  16.201  1.1769  1.7754  1.2859
10089TIP3    H251683   2.570   0.757  16.212  0.2450  0.6480  1.3705
10090TIP3   OH251684   3.081   1.250   1.912  0.1936 -0.5447 -0.3336
10090TIP3    H151685   3.020   1.184   1.879  1.0371 -1.8113  0.5427
10090TIP3    H251686   3.049   1.270   2.000 -0.8084  1.2327 -1.0396
10091TIP3   OH251687   0.537   2.678   1.550 -0.7087  0.1119 -0.4119
10091TIP3    H151688   0.545   2.692   1.456  0.0344 -0.0262 -0.3792
10091TIP3    H251689   0.445   2.696   1.570 -0.5932  1.4656 -0.9510
10092TIP3   OH251690   6.267   6.259  11.372  0.7018  0.3352 -0.0769
10092TIP3    H151691   6.221   6.176  11.388  0.3441  0.0982 -2.0795
10092TIP3    H251692   6.326   6.240  11.299  1.1185  1.6714 -0.1169
10093TIP3   OH251693   5.343   6.306   3.391  0.3142  0.2375 -0.4420
10093TIP3    H151694   5.316   6.378   3.447 -0.5301  0.5668 -1.2398
10093TIP3    H251695   5.287   6.233   3.418 -1.3303  0.8653 -1.9598
10094TIP3   OH251696   1.786   1.418   1.183 -0.0706  0.0549  0.1835
10094TIP3    H151697   1.798   1.501   1.230 -1.4852  2.1794 -2.8943
10094TIP3    H251698   1.875   1.391   1.160  0.7935 -1.5539  4.4616
10095TIP3   OH251699   4.551   5.283  10.575 -0.1575 -0.2685  0.2792
10095TIP3    H151700   4.560   5.249  10.664  1.0594 -0.9348 -0.0708
10095TIP3    H251701   4.518   5.208  10.525  0.4457 -0.3077 -0.0732
10096TIP3   OH251702   0.921   3.366   1.520 -0.0934  0.1903 -0.1274
10096TIP3    H151703   0.853   3.411   1.470 -0.6697 -0.5354 -0.0128
10096TIP3    H251704   0.917   3.407   1.607 -2.1845 -1.5549  0.6932
10097TIP3   OH251705   5.673   4.921   2.694 -0.4035 -0.3023 -0.0937
10097TIP3    H151706   5.720   4.838   2.686 -1.0828 -0.6313 -0.7726
10097TIP3    H251707   5.581   4.896   2.706 -0.5289  0.3459  0.3716
10098TIP3   OH251708   0.326   6.301  14.362 -0.3830 -0.2649  0.3416
10098TIP3    H151709   0.239   6.275  14.333  0.4441 -1.3850 -1.2209
10098TIP3    H251710   0.370   6.219  14.382  1.0662  0.1235 -1.1215
10099TIP3   OH251711   6.330   6.270  15.781  0.4585 -0.0592 -0.1098
10099TIP3    H151712   6.334   6.365  15.781 -0.6595  0.0466  2.0349
10099TIP3    H251713   6.398   6.243  15.721  1.4541  2.0814 -0.0166
10100TIP3   OH251714   2.769   4.168  12.974 -0.1367 -0.3081  0.3077
10100TIP3    H151715   2.744   4.260  12.977  1.6065  0.2459 -0.5699
10100TIP3    H251716   2.776   4.148  12.880  1.6491 -0.6607  0.4760
10101TIP3   OH251717   4.661   3.812   4.268 -0.5932 -0.6823  0.0091
10101TIP3    H151718   4.583   3.783   4.315 -1.1176  0.7355  0.0714
10101TIP3    H251719   4.695   3.885   4.321  0.0181 -0.4283 -0.7091
10102TIP3   OH251720   5.680   2.480  14.705 -0.4625  0.1290  0.2584
10102TIP3    H151721   5.630   2.531  14.769 -1.9147 -1.6296  0.6080
10102TIP3    H251722   5.628   2.484  14.625 -0.7274 -0.9786  0.3625
10103TIP3   OH251723   1.495   6.495   6.463  0.3320 -0.1000  0.5353
10103TIP3    H151724   1.444   6.464   6.538  0.1441  0.6526  0.7289
10103TIP3    H251725   1.586   6.491   6.492  0.4620 -2.0049 -0.0130
10104TIP3   OH251726   3.108   5.703   5.318 -0.0581  0.1521 -0.4482
10104TIP3    H151727   3.167   5.735   5.386 -0.6286  1.7879 -0.6798
10104TIP3    H251728   3.161   5.700   5.238  0.0199  0.4599 -0.4085
10105TIP3   OH251729   5.864   1.469  12.209  0.1169  0.4024 -0.1013
10105TIP3    H151730   5.958   1.459  12.221  0.4541  2.2639 -0.8579
10105TIP3    H251731   5.840   1.541  12.266 -0.4163  1.4225 -1.5586
10106TIP3   OH251732   4.000   4.511  12.876 -0.6410  0.5213 -0.4017
10106TIP3    H151733   3.937   4.495  12.946  0.1086 -0.7195  0.0324
10106TIP3    H251734   4.082   4.531  12.922  0.1561 -1.4712 -0.8505
10107TIP3   OH251735   2.137   1.874   3.850  0.1780 -0.3626  0.8319
10107TIP3    H151736   2.146   1.819   3.773  1.6172  0.2465  0.5364
10107TIP3    H251737   2.065   1.933   3.830  0.6709 -0.0739 -0.1453
10108TIP3   OH251738   2.262   6.089  13.617  0.1645  0.2469 -0.5203
10108TIP3    H151739   2.190   6.152  13.606  0.7527  0.7239 -1.8459
10108TIP3    H251740   2.220   6.004  13.612 -0.3430  0.5254 -1.1663
10109TIP3   OH251741   4.586   4.391   2.609  0.0834  0.1929  1.0471
10109TIP3    H151742   4.663   4.384   2.552 -0.0895  0.9431  0.7113
10109TIP3    H251743   4.612   4.348   2.690  0.1415 -1.4044  0.2204
10110TIP3   OH251744   2.521   5.506   4.636 -0.5112 -0.0798 -0.0779
10110TIP3    H151745   2.573   5.446   4.690  0.9170  0.6160 -0.6162
10110TIP3    H251746   2.477   5.563   4.699  0.4450  0.1628  0.3880
10111TIP3   OH251747   3.813   2.314  12.905 -0.3760  0.3572 -0.4239
10111TIP3    H151748   3.736   2.259  12.891 -0.3854  0.9070 -3.1889
10111TIP3    H251749   3.838   2.299  12.996 -0.7668 -3.7048 -0.8183
10112TIP3   OH251750   4.187   4.446   1.092  0.4735 -0.5257 -0.3051
10112TIP3    H151751   4.166   4.413   1.004 -0.8518 -1.7219  0.4212
10112TIP3    H251752   4.279   4.423   1.104  1.2834  1.4546 -2.1175
10113TIP3   OH251753   3.765   4.181  13.597  0.3059 -0.5094 -0.0062
10113TIP3    H151754   3.707   4.106  13.588  0.2106 -0.9521  3.0854
10113TIP3    H251755   3.707   4.256  13.610  0.4157 -0.4043 -0.1116
10114TIP3   OH251756   3.487   0.174   3.930  0.2843 -0.2930 -0.1515
10114TIP3    H151757   3.534   0.248   3.891  0.3366  1.2600  2.6409
10114TIP3    H251758   3.395   0.192   3.910  0.2974  0.5395  0.4971
10115TIP3   OH251759   0.032   0.812   5.714  0.0356 -0.6877 -0.3375
10115TIP3    H151760   0.002   0.894   5.675 -0.1563 -0.7098 -0.2346
10115TIP3    H251761  -0.045   0.776   5.757  0.2907 -0.5773  0.2095
10116TIP3   OH251762   5.955   3.576  11.170 -0.3833  0.4324  0.0954
10116TIP3    H151763   5.879   3.612  11.216 -0.6751 -0.1661  0.0876
10116TIP3    H251764   5.953   3.483  11.190 -0.0616  0.2960 -0.4990
10117TIP3   OH251765   0.186   3.994  10.328 -0.2958  0.1893 -0.1192
10117TIP3    H151766   0.109   4.039  10.295 -0.3500 -0.7357 -1.3594
10117TIP3    H251767   0.153   3.939  10.399  0.2461  4.2408  3.7147
10118TIP3   OH251768   3.481   4.886   3.647  0.0889  0.0709 -0.8379
10118TIP3    H151769   3.438   4.832   3.580  0.7778  0.4312 -1.5890
10118TIP3    H251770   3.574   4.865   3.638  0.2118  0.3300 -0.1732
10119TIP3   OH251771   5.041   0.903   0.460 -0.6849 -0.0148  0.1177
10119TIP3    H151772   4.974   0.843   0.427 -1.0523  0.6637 -0.3911
10119TIP3    H251773   5.012   0.926   0.548 -0.5939 -0.4959  0.2768
10120TIP3   OH251774   4.896   6.390  11.778 -0.5571 -0.2225 -0.1986
10120TIP3    H151775   4.834   6.340  11.832 -1.2297  1.2133  0.4022
10120TIP3    H251776   4.841   6.450  11.728  0.2652  0.1597 -0.6651
10121TIP3   OH251777   2.149   4.899  13.308  0.2077  0.2537  0.1231
10121TIP3    H151778   2.168   4.973  13.250 -2.3549  0.0984 -1.0229
10121TIP3    H251779   2.137   4.824  13.249 -0.1965 -0.4276  1.0420
10122TIP3   OH251780   1.965   5.623  11.623  0.8243 -0.1177  0.6150
10122TIP3    H151781   1.968   5.538  11.668 -0.7760 -0.2900  0.4534
10122TIP3    H251782   2.057   5.646  11.611  1.3037 -1.7499  0.8004
10123TIP3   OH251783   1.585   5.020  14.742  0.4423 -0.7572 -0.5705
10123TIP3    H151784   1.636   5.097  14.767  0.2365 -0.7310 -0.2364
10123TIP3    H251785   1.642   4.945  14.762  0.8897 -0.6681 -1.4749
10124TIP3   OH251786   5.538   0.591   3.854  0.1691  0.4476 -0.2176
10124TIP3    H151787   5.464   0.615   3.798 -0.0844  0.9034  0.2982
10124TIP3    H251788   5.503   0.595   3.943  0.6034 -0.1321 -0.0189
10125TIP3   OH251789   1.019   2.284  11.283  0.0014  0.0517  0.1388
10125TIP3    H151790   0.925   2.286  11.301  0.1036  1.2828  0.6105
10125TIP3    H251791   1.025   2.297  11.188 -0.2954  0.6138  0.1888
10126TIP3   OH251792   1.674   0.811  11.157 -0.3548 -0.1530  0.5463
10126TIP3    H151793   1.661   0.831  11.065 -1.6568  0.4184  0.8270
10126TIP3    H251794   1.676   0.715  11.161 -0.4319 -0.1788 -0.0578
10127TIP3   OH251795   3.873   2.900   5.904 -0.0973  0.1246  1.0015
10127TIP3    H151796   3.874   2.815   5.947  0.1335 -0.1826  0.3870
10127TIP3    H251797   3.932   2.954   5.956  2.2512 -0.9634 -0.3873
10128TIP3   OH251798   2.300   4.791  13.913  0.3309  0.1961 -0.6182
10128TIP3    H151799   2.358   4.819  13.984 -0.7673  1.9608 -0.3510
10128TIP3    H251800   2.268   4.873  13.874 -3.3343 -0.5791  0.3830
10129TIP3   OH251801   6.636   0.604  12.360 -0.2053 -0.4729 -0.0576
10129TIP3    H151802   6.711   0.578  12.306 -1.5196 -2.3137 -1.1052
10129TIP3    H251803   6.566   0.624  12.297 -0.8529  0.4732  0.9125
10130TIP3   OH251804   3.198   0.812   5.051  0.2741 -0.8027 -0.3545
10130TIP3    H151805   3.279   0.831   5.004  0.2769  1.3324  0.4077
10130TIP3    H251806   3.166   0.897   5.080 -1.8011 -1.6719  0.1263
10131TIP3   OH251807   2.349   2.009   5.061  0.1123  0.7775  0.2409
10131TIP3    H151808   2.254   1.999   5.052 -0.1875  3.2139  0.0324
10131TIP3    H251809   2.378   2.039   4.975  1.0969  0.0589  0.3027
10132TIP3   OH251810   0.298   1.015  17.060 -0.0115  0.0852  0.6559
10132TIP3    H151811   0.347   1.036  16.981 -0.7653 -2.2164 -0.4808
10132TIP3    H251812   0.359   0.963  17.113 -1.3892 -3.9968 -1.3650
10133TIP3   OH251813   5.115   4.666   6.639 -0.0732  0.1289  0.0949
10133TIP3    H151814   5.114   4.579   6.599  0.5012 -0.6329  1.6730
10133TIP3    H251815   5.206   4.695   6.632 -0.1630  0.4017  0.0240
10134TIP3   OH251816   0.933   0.358  11.159 -0.0223  0.2400  0.6042
10134TIP3    H151817   0.941   0.276  11.208 -0.2723  0.0211  0.2834
10134TIP3    H251818   0.851   0.349  11.110  0.3910  0.3241 -0.1096
10135TIP3   OH251819   5.091   5.000   5.754  0.2046 -0.3588  0.4119
10135TIP3    H151820   5.147   5.061   5.706  0.5713  0.3675  1.7241
10135TIP3    H251821   5.072   4.930   5.691  0.5580  0.6270 -0.8147
10136TIP3   OH251822   2.244   1.346   0.180  0.2615  0.3810 -0.4790
10136TIP3    H151823   2.295   1.267   0.195  2.4428  1.7084 -0.4298
10136TIP3    H251824   2.186   1.324   0.107 -1.1453 -2.0462  1.2154
10137TIP3   OH251825   2.584   5.961   1.277 -0.7875  0.1392 -0.0225
10137TIP3    H151826   2.550   6.049   1.293  1.0083  1.0197 -0.8465
10137TIP3    H251827   2.556   5.940   1.188 -0.3695  0.3062 -0.1970
10138TIP3   OH251828   1.748   5.181   2.515  0.3488  0.2862 -0.2598
10138TIP3    H151829   1.658   5.200   2.540  0.5045  0.3284  0.2858
10138TIP3    H251830   1.797   5.186   2.597  1.0758  1.5543 -0.7509
10139TIP3   OH251831   1.019   5.800  13.301  0.2305 -0.1588  0.5248
10139TIP3    H151832   0.966   5.845  13.236  0.4402  0.1511  0.5666
10139TIP3    H251833   1.106   5.794  13.261  0.1205 -0.8327  0.3780
10140TIP3   OH251834   2.913   0.395   3.710  0.6604 -0.0339 -0.0023
10140TIP3    H151835   2.829   0.436   3.730  0.3542 -0.7987  0.2757
10140TIP3    H251836   2.950   0.451   3.641  0.0471  0.4534  0.0511
10141TIP3   OH251837   1.360   4.305  15.960  0.0786  0.0860  0.9548
10141TIP3    H151838   1.347   4.331  15.869 -0.7751 -1.4621  0.6016
10141TIP3    H251839   1.285   4.342  16.007 -2.3519 -3.2368  0.0826
10142TIP3   OH251840   6.486   6.247  11.547 -0.0176 -0.8209  0.5245
10142TIP3    H151841   6.453   6.246  11.637 -1.7847 -0.9083 -0.0782
10142TIP3    H251842   6.407   6.257  11.493  1.0254 -0.4969 -1.0074
10143TIP3   OH251843   1.496   2.738  16.744 -0.2369  0.4035  0.8186
10143TIP3    H151844   1.530   2.765  16.659  0.1152 -0.2426  0.7449
10143TIP3    H251845   1.573   2.731  16.800 -0.2292 -0.9515  0.6844
10144TIP3   OH251846   2.943   2.600   5.755 -0.2267 -0.2421  0.0348
10144TIP3    H151847   2.937   2.517   5.708  0.7193 -0.6521  0.6126
10144TIP3    H251848   3.036   2.619   5.759 -0.3219  0.0646  1.2534
10145TIP3   OH251849   0.488   1.586   1.355 -0.0981 -0.6395  0.3679
10145TIP3    H151850   0.448   1.502   1.334 -0.5861 -0.9977  2.4591
10145TIP3    H251851   0.454   1.608   1.442  3.4121 -0.4511  1.8644
10146TIP3   OH251852   5.001   5.956   0.157  0.2678  0.1864  0.0386
10146TIP3    H151853   4.926   5.897   0.161 -0.1816  0.7837  0.6313
10146TIP3    H251854   5.010   5.975   0.064 -0.2079 -0.0313 -0.0586
10147TIP3   OH251855   4.985   1.866  13.810 -0.2103 -0.4771  0.4156
10147TIP3    H151856   4.922   1.799  13.784 -2.0277  1.1770  0.3681
10147TIP3    H251857   5.006   1.845  13.901  1.3416 -2.6007 -0.3277
10148TIP3   OH251858   6.083   5.742  13.145  0.4213 -0.3186 -0.1480
10148TIP3    H151859   6.051   5.711  13.060  3.5485  0.2298 -1.6998
10148TIP3    H251860   6.138   5.670  13.177  2.0544  0.8077 -0.3296
10149TIP3   OH251861   4.716   0.386   5.893  0.2079 -0.1583  0.2674
10149TIP3    H151862   4.764   0.465   5.914 -2.2898  2.6216 -3.2180
10149TIP3    H251863   4.640   0.387   5.951 -1.1836  1.6226 -1.4576
10150TIP3   OH251864   2.561   1.959   1.729 -0.0287  0.1249 -0.2764
10150TIP3    H151865   2.476   1.956   1.772  0.1716  1.2731  0.2503
10150TIP3    H251866   2.583   1.868   1.713 -0.0481 -0.3852  2.2074
10151TIP3   OH251867   1.149   5.935  13.894  0.5933  0.0414  0.2488
10151TIP3    H151868   1.187   5.877  13.960 -0.1101 -0.4711  0.2184
10151TIP3    H251869   1.098   5.877  13.837  0.3455  0.6123 -0.1283
10152TIP3   OH251870   6.218   3.661   0.090 -0.4707 -0.4006 -0.0045
10152TIP3    H151871   6.185   3.653   0.000 -1.8968 -1.6361  0.5972
10152TIP3    H251872   6.225   3.571   0.122  1.4058 -0.0607  0.6761
10153TIP3   OH251873   0.908   6.630   3.467 -0.3535 -0.3475 -0.4834
10153TIP3    H151874   0.927   6.613   3.559  0.5522 -2.7009 -1.0291
10153TIP3    H251875   0.825   6.678   3.468 -0.8066 -1.0711  1.5220
10154TIP3   OH251876   4.385   2.309   5.726 -0.5827 -0.0110  0.3347
10154TIP3    H151877   4.341   2.392   5.748 -0.3599  0.6015 -1.3501
10154TIP3    H251878   4.427   2.327   5.642  3.8581 -0.1878  2.2671
10155TIP3   OH251879   1.635   1.748  15.198  0.0567  0.7872  0.4655
10155TIP3    H151880   1.705   1.706  15.248  0.0098  0.4394  0.2452
10155TIP3    H251881   1.681   1.795  15.128  0.0970  0.9285  0.5864
10156TIP3   OH251882   5.436   4.790   3.329 -0.3079 -0.6308  1.1531
10156TIP3    H151883   5.510   4.850   3.323 -0.4763 -0.4893  0.3910
10156TIP3    H251884   5.463   4.725   3.393  1.2684 -1.6858 -0.4899
10157TIP3   OH251885   3.900   3.354   5.970  0.1387 -0.0175 -0.0618
10157TIP3    H151886   3.983   3.392   5.996 -0.6464  2.3307 -0.7691
10157TIP3    H251887   3.888   3.279   6.029  1.2740  1.4359  2.1278
10158TIP3   OH251888   3.997   6.186   4.849  0.3630  0.3092 -0.8893
10158TIP3    H151889   4.058   6.163   4.779 -0.7464  0.5469 -1.9721
10158TIP3    H251890   3.910   6.184   4.807 -0.1389  2.8391 -0.1625
10159TIP3   OH251891   1.473   1.876  14.636  0.0444  0.1656  0.2683
10159TIP3    H151892   1.558   1.843  14.606 -0.3189  1.2621 -2.1703
10159TIP3    H251893   1.421   1.797  14.651  0.5346 -0.4785 -1.2624
10160TIP3   OH251894   1.810   5.471   0.706 -0.3843 -0.2783  0.2497
10160TIP3    H151895   1.780   5.551   0.663  3.0171  0.4311 -1.0859
10160TIP3    H251896   1.772   5.400   0.655 -0.2414  0.5398 -1.0400
10161TIP3   OH251897   5.335   3.045  13.617 -0.3515 -0.1192  0.7990
10161TIP3    H151898   5.270   3.025  13.549 -1.4325 -3.0832  2.5240
10161TIP3    H251899   5.407   2.985  13.599  0.0718  0.2255  1.3404
10162TIP3   OH251900   3.349   6.554  12.579 -0.1215 -0.2708  0.3032
10162TIP3    H151901   3.335   6.492  12.508 -0.1581  0.3377 -0.2286
10162TIP3    H251902   3.435   6.592  12.562  0.6104 -1.2771  1.4908
10163TIP3   OH251903   0.907   2.242   1.021 -0.4784 -0.5910  0.7639
10163TIP3    H151904   0.878   2.299   0.950 -0.4042 -1.3566  0.1034
10163TIP3    H251905   0.915   2.300   1.097  0.6186  0.4710 -0.1375
10164TIP3   OH251906   3.399   2.826  15.790 -0.1641  0.4497  0.3954
10164TIP3    H151907   3.334   2.868  15.845 -0.4621  0.1022  0.3144
10164TIP3    H251908   3.421   2.892  15.724  0.6205  1.0743  1.2589
10165TIP3   OH251909   3.382   3.813   4.485 -0.2518 -0.4207  0.1742
10165TIP3    H151910   3.400   3.898   4.523  0.6827 -1.0586  1.2020
10165TIP3    H251911   3.454   3.757   4.514 -1.1134 -1.6917 -0.0438
10166TIP3   OH251912   4.519   2.631  12.556  0.3930 -0.5070 -0.0599
10166TIP3    H151913   4.430   2.598  12.565  0.3842 -0.9749 -1.5696
10166TIP3    H251914   4.524   2.664  12.466  2.0030 -1.2911 -0.3044
10167TIP3   OH251915   3.457   3.508   1.851  0.5389  0.6988 -0.6460
10167TIP3    H151916   3.525   3.477   1.792 -0.4354  1.9575 -2.5302
10167TIP3    H251917   3.375   3.485   1.808 -0.2922 -0.6154  1.4735
10168TIP3   OH251918   6.210   2.981  13.815  0.1962  0.3938 -0.4545
10168TIP3    H151919   6.123   2.946  13.794 -0.0265  1.8422 -2.1989
10168TIP3    H251920   6.209   3.071  13.781  1.8330  1.0214  0.9729
10169TIP3   OH251921   5.732   2.302   1.014 -0.0048 -0.0634  0.7224
10169TIP3    H151922   5.708   2.393   1.032 -1.2493  0.3633 -2.4792
10169TIP3    H251923   5.810   2.308   0.960 -0.7178 -0.8174 -0.4189
10170TIP3   OH251924   4.754   5.577   4.419 -0.0039 -0.8180  0.2722
10170TIP3    H151925   4.840   5.536   4.408  0.1194 -0.7805  1.0531
10170TIP3    H251926   4.772   5.671   4.419 -0.2252 -0.7565 -0.9898
10171TIP3   OH251927   3.530   0.864  15.978 -0.0984 -0.2067  0.0534
10171TIP3    H151928   3.495   0.901  15.897 -0.9627 -0.5019  0.2767
10171TIP3    H251929   3.518   0.770  15.969 -2.8525 -0.1326  1.6209
10172TIP3   OH251930   2.286   4.621   0.877 -0.0673  1.0331  0.0610
10172TIP3    H151931   2.198   4.638   0.910 -0.1921  0.2477  0.1614
10172TIP3    H251932   2.336   4.699   0.900 -0.1464  0.5398  2.1192
10173TIP3   OH251933   5.374   3.920  11.481 -0.1540 -0.0733  0.0766
10173TIP3    H151934   5.362   3.923  11.576  0.3601  0.4348  0.1323
10173TIP3    H251935   5.467   3.900  11.469 -0.2796 -0.4388 -0.3236
10174TIP3   OH251936   5.127   0.507  11.871  0.2715  0.0924  0.4432
10174TIP3    H151937   5.209   0.538  11.833 -0.3898  0.4841 -0.6955
10174TIP3    H251938   5.118   0.557  11.952  1.1678  0.0051  0.6133
10175TIP3   OH251939   5.875   5.788   1.922 -0.1401  0.1273 -1.1235
10175TIP3    H151940   5.934   5.753   1.989 -0.6716 -1.9738 -1.7016
10175TIP3    H251941   5.819   5.849   1.969 -0.0519 -0.7902  0.2175
10176TIP3   OH251942   1.546   1.372  13.698  0.3497  0.0292  0.1730
10176TIP3    H151943   1.521   1.283  13.671  0.6325  0.0470 -0.1592
10176TIP3    H251944   1.596   1.359  13.778  0.1593 -0.0907  0.2729
10177TIP3   OH251945   5.401   2.099   1.745  0.2526  0.0372  0.4828
10177TIP3    H151946   5.371   2.060   1.662  2.0172 -1.4383  0.4878
10177TIP3    H251947   5.329   2.083   1.806 -1.4196  1.8179 -0.8796
10178TIP3   OH251948   1.560   5.060  16.467 -0.0217 -0.4376  0.2245
10178TIP3    H151949   1.620   5.055  16.392 -0.4140 -0.3306 -0.1011
10178TIP3    H251950   1.488   5.114  16.436 -0.8805 -1.5519  0.1873
10179TIP3   OH251951   3.455   6.402  13.366  0.3292 -0.3022 -0.9115
10179TIP3    H151952   3.467   6.316  13.407  0.1392 -0.7651 -1.8059
10179TIP3    H251953   3.539   6.446  13.378 -0.0894  0.0548  1.0253
10180TIP3   OH251954   5.004   4.085   5.768  0.0174  0.1889 -0.1431
10180TIP3    H151955   5.060   4.037   5.829  1.5841  0.4974 -1.2781
10180TIP3    H251956   4.944   4.019   5.734  0.3228 -0.3720  0.3831
10181TIP3   OH251957   4.759   1.303  14.319 -0.1048  0.0766  0.0425
10181TIP3    H151958   4.703   1.244  14.269  0.1094  0.5288 -0.7383
10181TIP3    H251959   4.798   1.361  14.254  3.1572 -1.7029  0.1923
10182TIP3   OH251960   1.034   4.896  14.232 -0.3131 -0.3564 -0.0515
10182TIP3    H151961   1.114   4.939  14.261 -0.9864  0.3671  0.7905
10182TIP3    H251962   1.040   4.807  14.267 -1.4180  0.6621  3.0892
10183TIP3   OH251963   0.643   0.599  15.956 -0.1383 -0.3123 -0.4452
10183TIP3    H151964   0.575   0.666  15.969 -0.9232 -1.1236 -0.3010
10183TIP3    H251965   0.665   0.606  15.863 -0.5741 -0.1881 -0.5426
10184TIP3   OH251966   6.763   5.212   5.060  0.0117  0.6816  0.3486
10184TIP3    H151967   6.679   5.221   5.106 -1.0939 -0.0319 -1.4491
10184TIP3    H251968   6.773   5.118   5.046 -0.6253  0.9371 -2.4148
10185TIP3   OH251969   1.377   1.608   6.115 -0.1047 -0.0189  0.1824
10185TIP3    H151970   1.375   1.550   6.191  2.3562 -0.4609 -0.0132
10185TIP3    H251971   1.306   1.670   6.130  0.8168  0.4253  3.2686
10186TIP3   OH251972   5.075   6.597  13.618 -0.4079  0.2246 -0.1683
10186TIP3    H151973   5.133   6.578  13.692  0.5160 -0.0493 -0.9479
10186TIP3    H251974   5.095   6.687  13.593 -0.9196  0.4137  0.0770
10187TIP3   OH251975   4.282   0.697  15.252  0.4218 -0.5328  0.6236
10187TIP3    H151976   4.219   0.732  15.314  1.2039  0.4811  0.8683
10187TIP3    H251977   4.367   0.712  15.293  1.2737  3.1966 -1.9441
10188TIP3   OH251978   2.965   6.403  13.357 -0.2271  0.2293 -0.4312
10188TIP3    H151979   2.886   6.415  13.305 -0.6349 -0.6599 -0.0483
10188TIP3    H251980   2.935   6.358  13.436  0.5486  0.5550  0.0589
10189TIP3   OH251981   3.287   0.753  11.297 -0.2741 -0.2077  0.2714
10189TIP3    H151982   3.379   0.730  11.302 -0.1046 -0.2569 -2.0528
10189TIP3    H251983   3.251   0.696  11.229 -1.3615  1.7295 -0.8735
10190TIP3   OH251984   4.184   2.759   5.821  0.1363  0.7680  0.2402
10190TIP3    H151985   4.200   2.836   5.876 -0.3912  0.4337  0.8617
10190TIP3    H251986   4.124   2.791   5.753  0.1121  0.9595  0.3501
10191TIP3   OH251987   1.324   6.089   1.588 -0.4941 -0.0501  0.1915
10191TIP3    H151988   1.388   6.035   1.542 -1.6073 -2.7027  1.5498
10191TIP3    H251989   1.327   6.059   1.678 -1.4484  1.9882  0.9634
10192TIP3   OH251990   6.252   2.409   3.213 -0.1122 -0.9931  0.4385
10192TIP3    H151991   6.206   2.378   3.291 -2.9142 -1.7645 -1.3514
10192TIP3    H251992   6.268   2.330   3.162  4.3198 -0.9205  1.3308
10193TIP3   OH251993   0.474   3.865  13.137 -0.5298 -0.0618  0.4309
10193TIP3    H151994   0.524   3.945  13.121 -0.0260 -0.3566  0.4838
10193TIP3    H251995   0.500   3.839  13.225 -0.0464 -0.7349  0.0954
10194TIP3   OH251996   0.345   2.480   3.219  0.1988 -0.1361 -0.0212
10194TIP3    H151997   0.429   2.460   3.260 -0.9444  0.0649  2.6676
10194TIP3    H251998   0.292   2.402   3.235 -1.2692  1.1505  1.8446
10195TIP3   OH251999   0.310   3.667   1.238  0.1267  0.0637  0.0718
10195TIP3    H152000   0.366   3.658   1.316 -0.6357  0.7362  0.7152
10195TIP3    H252001   0.346   3.743   1.193 -0.5704  0.8420  0.7780
10196TIP3   OH252002   5.089   3.029  15.156 -0.3806 -0.4533  0.6657
10196TIP3    H152003   5.139   3.015  15.237 -1.6498  0.4968  1.6621
10196TIP3    H252004   5.156   3.037  15.088  0.7230 -1.2512  1.6158
10197TIP3   OH252005   3.461   4.555   3.337 -0.4525 -0.8980 -0.2933
10197TIP3    H152006   3.422   4.495   3.401  0.3669 -1.5418 -0.3732
10197TIP3    H252007   3.473   4.501   3.258 -1.1833 -0.1863 -0.9055
10198TIP3   OH252008   2.314   2.916   5.835 -0.4238 -0.4401  0.1091
10198TIP3    H152009   2.264   2.851   5.885 -0.2586 -0.2094  0.5789
10198TIP3    H252010   2.392   2.933   5.888 -0.2381 -0.2031 -0.2364
10199TIP3   OH252011   5.993   3.993   6.272 -0.0182 -0.5732 -0.3127
10199TIP3    H152012   6.066   4.050   6.248  1.1220 -1.4213  1.0149
10199TIP3    H252013   5.966   4.022   6.359 -4.4811  2.8553 -2.3997
10200TIP3   OH252014   5.422   0.774  16.105  0.5753  0.0368  0.1451
10200TIP3    H152015   5.417   0.808  16.195 -2.3309  2.1580 -0.6748
10200TIP3    H252016   5.354   0.707  16.101 -0.4494  1.0837 -0.8299
10201TIP3   OH252017   0.214   0.123   0.327 -0.5823 -0.0288  0.8348
10201TIP3    H152018   0.255   0.037   0.333 -1.4888 -0.7336 -1.6671
10201TIP3    H252019   0.272   0.181   0.376  1.0796 -1.7074  0.9842
10202TIP3   OH252020   2.865   4.392   4.801 -0.0498 -0.4446  0.4554
10202TIP3    H152021   2.856   4.431   4.888 -0.5383 -0.4495  0.4064
10202TIP3    H252022   2.899   4.304   4.819 -0.4802 -0.5712  0.6673
10203TIP3   OH252023   4.961   5.617   3.555  0.0330  0.2676 -0.2231
10203TIP3    H152024   4.953   5.522   3.568 -1.7451  0.2391 -1.1075
10203TIP3    H252025   5.032   5.644   3.613  2.4316 -1.9793 -1.9011
10204TIP3   OH252026   0.499   0.809  16.255  0.2932 -0.0868  0.2110
10204TIP3    H152027   0.450   0.728  16.242 -0.3218  0.4182 -0.7377
10204TIP3    H252028   0.519   0.840  16.167  1.2998  0.3420  0.5720
10205TIP3   OH252029   1.401   3.769   5.891 -0.1721  0.0418 -0.2485
10205TIP3    H152030   1.399   3.827   5.967  1.7687 -1.9740  1.5164
10205TIP3    H252031   1.311   3.741   5.879 -0.7547  1.5657  0.3385
10206TIP3   OH252032   4.268   2.088   5.449 -0.0164 -0.1053  0.5260
10206TIP3    H152033   4.356   2.123   5.439 -0.3874  0.6299 -0.3122
10206TIP3    H252034   4.250   2.094   5.543  1.3682 -1.6616  0.9417
10207TIP3   OH252035   4.806   1.714  15.872 -0.0323  0.2227 -0.2241
10207TIP3    H152036   4.830   1.626  15.899  1.6092  0.0653 -1.9517
10207TIP3    H252037   4.889   1.755  15.847 -0.9057  1.8142 -0.6630
10208TIP3   OH252038   3.499   0.149   3.332 -0.6814  0.2212  0.0990
10208TIP3    H152039   3.511   0.233   3.289  1.2741 -0.0997 -0.0840
10208TIP3    H252040   3.517   0.166   3.425 -1.1467  0.1770  0.1981
10209TIP3   OH252041   6.336   0.954   1.093  0.2304  0.2137  1.0559
10209TIP3    H152042   6.285   1.013   1.149 -1.5229  2.5636 -2.6072
10209TIP3    H252043   6.272   0.888   1.064  0.5769  0.2156  0.2770
10210TIP3   OH252044   3.440   2.831   1.197  0.3794  0.0200  0.3977
10210TIP3    H152045   3.378   2.819   1.269  0.4290 -0.2176  0.4034
10210TIP3    H252046   3.522   2.855   1.240  0.3661  0.0430  0.4101
10211TIP3   OH252047   1.006   1.915  11.838 -0.5246  0.0938  0.0347
10211TIP3    H152048   1.037   2.000  11.808 -0.6157 -0.1765 -0.8433
10211TIP3    H252049   0.970   1.932  11.925  0.2484  0.7871  0.2380
10212TIP3   OH252050   0.387   0.715  14.275 -0.2567  0.5145 -0.4899
10212TIP3    H152051   0.298   0.734  14.304 -0.4018 -0.6572 -0.1386
10212TIP3    H252052   0.385   0.624  14.246  0.2702  1.1273 -2.6907
10213TIP3   OH252053   3.148   0.547   5.714 -0.0306 -0.2805 -0.1304
10213TIP3    H152054   3.203   0.542   5.792  1.2126  0.4010 -0.9311
10213TIP3    H252055   3.156   0.638   5.685  1.3020 -1.0218 -2.2718
10214TIP3   OH252056   4.325   0.854  14.372 -0.1758 -0.1370 -0.5408
10214TIP3    H152057   4.345   0.793  14.443  1.2089 -0.3922 -1.1183
10214TIP3    H252058   4.242   0.895  14.398 -0.5087 -1.3745  0.4340
10215TIP3   OH252059   1.109   2.131  10.471 -0.2122 -0.1490 -0.1708
10215TIP3    H152060   1.178   2.100  10.529  0.4208 -1.0383 -1.3465
10215TIP3    H252061   1.131   2.222  10.453  0.5676 -0.3763 -0.3934
10216TIP3   OH252062   0.137   6.254  12.547 -0.4949  0.5908  0.3826
10216TIP3    H152063   0.228   6.236  12.523 -1.3911 -2.7245 -1.1386
10216TIP3    H252064   0.112   6.178  12.600 -2.2628  1.6676  1.1567
10217TIP3   OH252065   6.743   5.487   1.495 -0.3378 -0.1781  0.1042
10217TIP3    H152066   6.690   5.544   1.438  0.6194  0.5078 -0.1337
10217TIP3    H252067   6.686   5.414   1.515 -1.9913  1.3399  1.2284
10218TIP3   OH252068   5.169   4.811   2.940 -0.5421  0.5728  0.1625
10218TIP3    H152069   5.130   4.826   3.026 -2.8619 -2.3034 -0.2132
10218TIP3    H252070   5.248   4.760   2.958 -0.8984  0.1708  0.6035
10219TIP3   OH252071   4.231   4.774  10.476 -0.3261 -0.0969 -0.5225
10219TIP3    H152072   4.154   4.718  10.467 -1.1062  0.4035  2.1404
10219TIP3    H252073   4.284   4.732  10.544  0.3571  1.0293 -0.3266
10220TIP3   OH252074   0.771   2.388   1.789  0.3257 -0.1664  0.3940
10220TIP3    H152075   0.844   2.374   1.850  0.8909  0.3125 -0.1526
10220TIP3    H252076   0.712   2.315   1.806  0.7454 -0.3557  1.1189
10221TIP3   OH252077   0.855   1.974   5.497  0.1749  0.4588 -0.4697
10221TIP3    H152078   0.838   1.952   5.405  1.3743  0.4268 -0.7036
10221TIP3    H252079   0.780   1.937   5.544 -0.3461  0.2740 -1.4067
10222TIP3   OH252080   0.272   5.271   2.871 -0.0598 -0.2642  0.4601
10222TIP3    H152081   0.228   5.261   2.786  2.9533  1.1120 -1.4329
10222TIP3    H252082   0.333   5.198   2.876 -0.2422 -0.3596  1.4796
10223TIP3   OH252083   4.743   6.272   0.127 -0.4067  0.2846 -1.0227
10223TIP3    H152084   4.683   6.344   0.105 -0.4811  0.2918 -0.7973
10223TIP3    H252085   4.826   6.316   0.147 -0.3947  0.2925 -1.0899
10224TIP3   OH252086   6.716   1.824  15.416 -0.1080  0.4357 -0.1277
10224TIP3    H152087   6.714   1.915  15.443  0.9701  0.2037  0.7824
10224TIP3    H252088   6.651   1.781  15.471  0.5760  0.3530  0.6209
10225TIP3   OH252089   6.625   3.249   6.068  0.1667 -0.0670 -0.5382
10225TIP3    H152090   6.683   3.174   6.056  1.8872  1.2296 -0.8383
10225TIP3    H252091   6.588   3.238   6.155  0.9850 -0.8869 -0.2780
10226TIP3   OH252092   0.763   5.303  14.044  0.3948  0.3483  0.4928
10226TIP3    H152093   0.841   5.280  14.094 -0.0645  0.2893  1.1948
10226TIP3    H252094   0.690   5.263  14.092 -0.1545  1.1150  0.3322
10227TIP3   OH252095   1.615   0.743  17.009 -0.3221 -0.4644  0.3827
10227TIP3    H152096   1.676   0.706  16.945  2.0115 -0.3180  2.3500
10227TIP3    H252097   1.534   0.695  16.996  0.7877 -2.0772 -1.1004
10228TIP3   OH252098   2.738   4.898   5.095  0.2820 -0.5102  0.7116
10228TIP3    H152099   2.822   4.851   5.100 -0.8876 -2.8699 -0.5015
10228TIP3    H252100   2.705   4.896   5.185  1.4116  0.2932  1.1734
10229TIP3   OH252101   6.179   6.493   3.082  0.1079 -0.1699 -0.3322
10229TIP3    H152102   6.182   6.408   3.125 -0.3409 -0.2434 -0.4424
10229TIP3    H252103   6.217   6.478   2.995  0.3022 -0.1918 -0.2426
10230TIP3   OH252104   4.286   5.816   2.718  0.0064 -1.0047  0.0000
10230TIP3    H152105   4.381   5.820   2.724  0.0837 -2.5660  0.2981
10230TIP3    H252106   4.269   5.766   2.638 -0.6063  0.1638 -0.6354
10231TIP3   OH252107   4.579   2.538  14.821 -0.5861  0.3808  0.1226
10231TIP3    H152108   4.612   2.530  14.732 -0.3041 -0.0863  0.2667
10231TIP3    H252109   4.528   2.619  14.821 -1.6717 -0.2712 -0.8097
10232TIP3   OH252110   5.242   6.253   5.986 -0.2559  0.0670 -0.0956
10232TIP3    H152111   5.228   6.341   6.022 -0.3670  0.6127 -1.3903
10232TIP3    H252112   5.326   6.225   6.022 -1.6528 -0.6569  2.8754
10233TIP3   OH252113   6.363   3.399  17.072  0.1504  0.2854 -0.1691
10233TIP3    H152114   6.294   3.338  17.046 -1.1760  0.2051  3.0616
10233TIP3    H252115   6.324   3.486  17.061  0.5890  0.3847 -0.9963
10234TIP3   OH252116   4.515   2.437  11.514 -0.4450  0.2033 -0.7236
10234TIP3    H152117   4.504   2.519  11.563 -1.9137 -0.4842  0.1769
10234TIP3    H252118   4.542   2.465  11.427  1.1515  1.5214  0.1358
10235TIP3   OH252119   4.650   5.663  12.273  0.0899 -0.2780 -0.3224
10235TIP3    H152120   4.603   5.690  12.194 -1.6174 -0.0302  0.7205
10235TIP3    H252121   4.714   5.599  12.242 -1.1792 -0.9126 -1.8025
10236TIP3   OH252122   3.105   2.662   1.156  0.0149  0.0732 -0.0050
10236TIP3    H152123   3.112   2.619   1.241  0.4958 -0.6932 -0.4217
10236TIP3    H252124   3.015   2.692   1.151  0.0193  0.2383  0.8307
10237TIP3   OH252125   3.205   2.171   0.236  0.2075  0.2373  0.1278
10237TIP3    H152126   3.241   2.116   0.306 -0.3741  0.9723  1.0229
10237TIP3    H252127   3.282   2.211   0.195  0.5864 -0.5956 -0.0044
10238TIP3   OH252128   4.132   4.679   2.321 -0.2542  0.0166  0.3967
10238TIP3    H152129   4.068   4.685   2.251 -0.6232  0.7310  0.7812
10238TIP3    H252130   4.206   4.633   2.282  0.2128  1.7885 -0.9677
10239TIP3   OH252131   0.793   4.678  12.564 -0.0726 -0.4464 -0.2628
10239TIP3    H152132   0.702   4.654  12.546 -0.5056  0.0403  1.1512
10239TIP3    H252133   0.816   4.628  12.643  0.4843  0.3157  0.0735
10240TIP3   OH252134   4.436   3.849  11.579 -0.0684  0.1118  0.0884
10240TIP3    H152135   4.410   3.929  11.625 -1.3889 -0.4003  0.2635
10240TIP3    H252136   4.422   3.869  11.486  0.1975  0.2945  0.0872
10241TIP3   OH252137   3.905   3.291  15.321 -0.4422  0.3556 -0.2766
10241TIP3    H152138   3.837   3.232  15.354 -0.1691 -0.1458 -0.5889
10241TIP3    H252139   3.895   3.286  15.225 -1.8593  2.5268 -0.3127
10242TIP3   OH252140   4.583   3.808   6.649  0.2955 -0.1800 -0.1402
10242TIP3    H152141   4.600   3.731   6.703  1.1981  0.5372  0.6566
10242TIP3    H252142   4.553   3.773   6.566 -0.5404 -1.3405  0.6125
10243TIP3   OH252143   3.577   6.333   4.850 -0.2790  0.3671  0.4431
10243TIP3    H152144   3.492   6.373   4.870 -0.4296  1.0425 -1.3772
10243TIP3    H252145   3.560   6.275   4.777  0.5352 -0.7747  1.1283
10244TIP3   OH252146   3.224   4.795  14.044 -0.1620 -0.4376 -0.1034
10244TIP3    H152147   3.304   4.744  14.030  1.4225  0.8929  3.0727
10244TIP3    H252148   3.171   4.741  14.102  0.1391  0.1846  0.7731
10245TIP3   OH252149   5.630   1.074   0.726 -0.4308  0.2600  0.0595
10245TIP3    H152150   5.577   1.116   0.659  0.6590  1.2473 -0.2294
10245TIP3    H252151   5.699   1.028   0.678 -0.3633 -0.0586  0.4513
10246TIP3   OH252152   5.490   3.657  15.122 -0.2014  0.2884  0.0726
10246TIP3    H152153   5.578   3.640  15.155 -0.3218 -1.0028 -0.1992
10246TIP3    H252154   5.502   3.669  15.028 -0.0268  2.6168  0.3481
10247TIP3   OH252155   2.055   4.391  13.823 -0.0498 -0.1531 -0.4944
10247TIP3    H152156   2.015   4.356  13.902 -0.1074  1.7830  0.4053
10247TIP3    H252157   1.982   4.415  13.767 -0.1065  0.6453 -0.1026
10248TIP3   OH252158   1.226   3.327  12.562 -0.6316 -0.1110 -0.4907
10248TIP3    H152159   1.154   3.307  12.622 -3.0623  0.6224 -2.9965
10248TIP3    H252160   1.255   3.415  12.587  0.5458 -0.9721  1.4810
10249TIP3   OH252161   4.917   0.076   3.385  0.1160  0.1462  0.7704
10249TIP3    H152162   4.838   0.024   3.371  0.0326  0.1682  1.1389
10249TIP3    H252163   4.954   0.089   3.298 -0.3811  0.2777  0.5757
10250TIP3   OH252164   3.988   5.506  12.821 -0.2252 -0.9474  0.5726
10250TIP3    H152165   3.928   5.567  12.864 -0.8889  0.4945 -2.1608
10250TIP3    H252166   3.940   5.423  12.817 -1.5503 -0.1761 -0.3644
10251TIP3   OH252167   0.368   5.888  14.648 -0.4661 -0.4580 -0.1036
10251TIP3    H152168   0.396   5.976  14.673  0.3198 -1.0314  1.1318
10251TIP3    H252169   0.429   5.863  14.578  0.7620 -0.8236  1.0358
10252TIP3   OH252170   1.008   2.526  13.644 -0.3534  0.1443 -0.6362
10252TIP3    H152171   1.053   2.451  13.681 -0.8720 -0.5870 -1.4425
10252TIP3    H252172   0.963   2.567  13.718 -0.0374 -0.3077 -0.1912
10253TIP3   OH252173   2.537   0.934   3.386  0.1482  0.2323  0.2491
10253TIP3    H152174   2.505   1.007   3.334  2.4297 -0.3570 -2.2235
10253TIP3    H252175   2.475   0.863   3.368 -0.2519  0.6421 -0.0077
10254TIP3   OH252176   0.623   4.149  11.541 -0.5938  0.2290 -0.1459
10254TIP3    H152177   0.637   4.235  11.502  1.1841 -0.2943 -0.8097
10254TIP3    H252178   0.651   4.158  11.632 -1.1973  0.5485  0.0085
10255TIP3   OH252179   6.524   4.344  16.613  0.4121  0.2644 -0.5922
10255TIP3    H152180   6.591   4.277  16.598 -0.4393 -0.2553 -2.3114
10255TIP3    H252181   6.509   4.382  16.526 -1.0156  0.8437 -0.1087
10256TIP3   OH252182   5.836   4.562   5.404 -0.5172  0.8016  0.1527
10256TIP3    H152183   5.828   4.591   5.313  0.0059 -1.0855 -0.5373
10256TIP3    H252184   5.818   4.468   5.401 -0.4855  0.7073  2.0079
10257TIP3   OH252185   2.550   4.372  16.931  0.2356 -0.5074 -0.1032
10257TIP3    H152186   2.611   4.299  16.917  1.1312  0.3421 -0.7841
10257TIP3    H252187   2.522   4.362  17.022  1.6115 -0.7751  0.3203
10258TIP3   OH252188   0.486   2.629  14.211 -0.3869 -0.3140 -0.3739
10258TIP3    H152189   0.511   2.631  14.303 -3.4823  1.0586  0.5595
10258TIP3    H252190   0.517   2.543  14.180 -0.0653 -1.2111  2.1865
10259TIP3   OH252191   5.265   6.428  10.969  0.2682 -0.6627  0.3254
10259TIP3    H152192   5.199   6.444  11.036  0.1747 -2.5761  0.7327
10259TIP3    H252193   5.275   6.333  10.965  2.0402 -0.5034 -0.6675
10260TIP3   OH252194   0.480   3.565  16.373  0.7625  0.2180 -0.0053
10260TIP3    H152195   0.437   3.516  16.443 -0.1144 -1.6339 -1.7283
10260TIP3    H252196   0.566   3.524  16.365  1.2480  1.0800  0.5895
10261TIP3   OH252197   1.848   0.942  16.781  0.5008 -0.0124 -0.5902
10261TIP3    H152198   1.796   1.012  16.822 -2.0885 -1.7069 -0.7227
10261TIP3    H252199   1.882   0.892  16.855 -1.1476 -0.9709 -0.4365
10262TIP3   OH252200   6.312   2.633  11.905 -0.2092 -0.5342  0.1361
10262TIP3    H152201   6.378   2.575  11.866 -1.3624 -1.5962 -0.3002
10262TIP3    H252202   6.269   2.578  11.971 -1.8112 -0.4457 -0.7893
10263TIP3   OH252203   2.214   4.615  15.357 -0.0379 -0.0301  0.4183
10263TIP3    H152204   2.263   4.595  15.437 -0.0209  1.0552  0.6976
10263TIP3    H252205   2.271   4.589  15.286 -0.6972 -2.5754  0.7183
10264TIP3   OH252206   5.642   1.331  16.742  0.2094 -0.9793 -0.9141
10264TIP3    H152207   5.675   1.405  16.793  0.2831 -0.3626 -1.8254
10264TIP3    H252208   5.691   1.256  16.774  0.9141 -0.4426 -0.7075
10265TIP3   OH252209   4.418   3.946  13.936  0.5786  0.4230  0.2051
10265TIP3    H152210   4.502   3.975  13.970 -0.2165  1.1351  1.6853
10265TIP3    H252211   4.415   3.852  13.956  2.0528 -0.2210 -2.2135
10266TIP3   OH252212   1.617   0.035   1.508  0.2861  0.7699 -0.1210
10266TIP3    H152213   1.683   0.102   1.529  1.0049  0.1973 -0.5179
10266TIP3    H252214   1.592   0.053   1.418  0.9974  0.0881 -0.4645
10267TIP3   OH252215   1.153   2.223  12.020 -0.0606 -0.2346 -0.0619
10267TIP3    H152216   1.138   2.310  12.055  1.4712 -0.0529  0.2447
10267TIP3    H252217   1.117   2.225  11.932 -0.9177  0.3871  0.2969
10268TIP3   OH252218   4.423   5.286  11.050 -0.2645  0.8089  0.2099
10268TIP3    H152219   4.403   5.307  10.958 -0.3159  1.1065  0.2877
10268TIP3    H252220   4.425   5.191  11.053  0.3808  0.7980 -0.2457
10269TIP3   OH252221   2.544   3.556   3.044 -0.1861 -0.3747  0.3365
10269TIP3    H152222   2.591   3.479   3.075 -0.0189 -1.1418 -1.6865
10269TIP3    H252223   2.519   3.535   2.954 -1.0033  1.5507  0.0565
10270TIP3   OH252224   6.005   0.743   3.663  0.3549 -0.7218 -0.1712
10270TIP3    H152225   5.990   0.731   3.569 -0.2396  1.6082 -0.4347
10270TIP3    H252226   5.917   0.751   3.700  0.5644  2.2235 -0.0698
10271TIP3   OH252227   5.985   6.284   5.466 -0.0205  0.6210  0.8584
10271TIP3    H152228   6.062   6.236   5.495 -0.2408  0.1004  0.5904
10271TIP3    H252229   5.963   6.245   5.381 -0.7924  0.5187  1.0985
10272TIP3   OH252230   1.274   6.497  13.091 -0.4668  0.1232  0.3462
10272TIP3    H152231   1.298   6.440  13.163  0.5384 -0.4890 -0.4513
10272TIP3    H252232   1.262   6.438  13.016 -0.0254  0.8830 -0.3410
10273TIP3   OH252233   4.114   6.612  13.627 -0.3893  0.1358  0.0235
10273TIP3    H152234   4.200   6.569  13.623 -0.8169 -1.0337  2.1027
10273TIP3    H252235   4.126   6.693  13.577  1.1936 -1.1261 -1.8476
10274TIP3   OH252236   0.931   2.922   6.135 -0.5364  0.4047 -0.6527
10274TIP3    H152237   0.985   3.002   6.135 -0.2691  0.2284 -0.2511
10274TIP3    H252238   0.841   2.954   6.132 -0.4804  0.7629  0.8311
10275TIP3   OH252239   0.008   3.136   4.156  0.0388 -0.4254 -0.3853
10275TIP3    H152240  -0.081   3.116   4.186 -0.0703 -1.8728 -1.5859
10275TIP3    H252241  -0.004   3.170   4.068  0.6636 -0.1711 -0.3797
10276TIP3   OH252242   0.686   3.321   3.386 -0.0354  0.4530  0.3596
10276TIP3    H152243   0.704   3.240   3.435  0.1075  1.6586  2.4315
10276TIP3    H252244   0.608   3.357   3.428  0.5807  1.9742  0.2518
10277TIP3   OH252245   2.872   2.440  17.014 -0.1642 -0.0330  0.4783
10277TIP3    H152246   2.917   2.524  17.028  0.1762  0.1549 -1.4224
10277TIP3    H252247   2.921   2.398  16.944 -0.5111 -1.7223  1.1938
10278TIP3   OH252248   3.146   2.728   0.649  0.1002 -0.6165 -0.2869
10278TIP3    H152249   3.170   2.690   0.564 -0.2107 -0.4195 -0.4660
10278TIP3    H252250   3.054   2.750   0.640  0.8527  2.7906 -1.2572
10279TIP3   OH252251   2.839   3.162   2.153  0.2367  0.0865  0.0146
10279TIP3    H152252   2.916   3.111   2.179  0.5959  0.4970 -0.2433
10279TIP3    H252253   2.805   3.197   2.235  0.8643  0.6627  0.0350
10280TIP3   OH252254   2.865   3.218   1.145 -0.1476  0.1465 -0.5501
10280TIP3    H152255   2.894   3.307   1.164 -0.3072 -0.0060  0.5112
10280TIP3    H252256   2.793   3.203   1.206  1.4390 -1.5337  1.0519
10281TIP3   OH252257   3.356   6.697  15.836 -0.1681 -0.1606 -0.3992
10281TIP3    H152258   3.442   6.658  15.826  0.3793  1.1500 -1.0080
10281TIP3    H252259   3.344   6.749  15.756  0.3268  3.1189  1.4901
10282TIP3   OH252260   2.009   4.817   3.038  0.2476 -0.0491  0.4208
10282TIP3    H152261   1.941   4.755   3.061 -1.8068  2.0612  0.4394
10282TIP3    H252262   1.978   4.858   2.957  1.4183  1.0569  0.4949
10283TIP3   OH252263   0.379   1.566   4.122  0.7056  0.1695  0.1413
10283TIP3    H152264   0.318   1.544   4.052 -0.4217 -0.7246  1.3394
10283TIP3    H252265   0.362   1.658   4.141  0.1362  0.0891  0.0504
10284TIP3   OH252266   3.928   1.743  12.796  0.0332 -0.5089  0.1635
10284TIP3    H152267   3.862   1.709  12.856 -0.7466 -1.3911 -1.1541
10284TIP3    H252268   4.007   1.752  12.850 -0.7621 -0.8231  1.4188
10285TIP3   OH252269   3.129   0.867   3.046  0.0516 -0.2355  0.1485
10285TIP3    H152270   3.177   0.919   3.110 -3.4395  1.5405  1.5797
10285TIP3    H252271   3.057   0.828   3.095 -0.3859 -2.2882 -1.9387
10286TIP3   OH252272   5.420   5.564   5.339 -0.0972  0.3111  0.1525
10286TIP3    H152273   5.415   5.607   5.424 -1.7966  0.0791  0.2045
10286TIP3    H252274   5.403   5.472   5.356 -1.7702  0.4440 -0.5340
10287TIP3   OH252275   1.703   3.640   5.540  0.0662 -0.5866  0.2313
10287TIP3    H152276   1.715   3.546   5.533 -2.0581 -0.7887 -2.2837
10287TIP3    H252277   1.614   3.651   5.575 -0.8576  0.3554 -2.2046
10288TIP3   OH252278   0.620   1.446   3.881 -0.4510  0.6239  0.0991
10288TIP3    H152279   0.666   1.513   3.831 -1.9070  2.1716  0.7564
10288TIP3    H252280   0.629   1.473   3.973 -3.1781  1.4226  0.2294
10289TIP3   OH252281   4.532   4.829   4.126 -0.2198 -0.1139 -0.6496
10289TIP3    H152282   4.579   4.860   4.049  0.2141 -1.2971 -0.8834
10289TIP3    H252283   4.477   4.903   4.152  1.3555  1.1432 -0.6862
10290TIP3   OH252284   2.969   4.203  11.399 -0.2435 -0.1297  0.2173
10290TIP3    H152285   3.001   4.215  11.488  0.2232 -1.8802  0.3176
10290TIP3    H252286   2.899   4.138  11.406 -0.4435 -0.0271 -0.6451
10291TIP3   OH252287   5.359   0.958   0.880  0.3230 -0.6277  0.2676
10291TIP3    H152288   5.434   0.985   0.827 -1.0197 -0.5573 -1.6839
10291TIP3    H252289   5.303   1.036   0.884 -0.4671 -1.1820  0.1970
10292TIP3   OH252290   1.593   5.429   0.463  0.1812 -0.0350  0.4297
10292TIP3    H152291   1.610   5.378   0.384  0.5349 -1.6227  1.4864
10292TIP3    H252292   1.502   5.459   0.453  0.0625 -0.6225 -0.3467
10293TIP3   OH252293   3.848   2.804   1.847 -0.0784  0.1248  1.0587
10293TIP3    H152294   3.857   2.848   1.932 -1.6183 -0.8134  1.7507
10293TIP3    H252295   3.782   2.856   1.801  0.2567  0.2369  0.7047
10294TIP3   OH252296   1.554   2.494  14.011 -0.5295 -0.3017  0.0723
10294TIP3    H152297   1.558   2.417  13.954  1.3361  0.0963 -0.3929
10294TIP3    H252298   1.630   2.546  13.987 -0.1198  0.2895  2.3482
10295TIP3   OH252299   3.287   4.255  12.756  0.3721 -0.2343 -0.6184
10295TIP3    H152300   3.375   4.264  12.718  1.0794  0.8415  1.1447
10295TIP3    H252301   3.277   4.161  12.771  0.7557 -0.4895 -1.8488
10296TIP3   OH252302   6.213   1.610   5.275 -0.4852 -0.9163 -0.3152
10296TIP3    H152303   6.256   1.676   5.329  0.5501 -0.2113 -1.9373
10296TIP3    H252304   6.168   1.660   5.206 -0.6113 -1.8499 -0.9303
10297TIP3   OH252305   5.966   1.778  12.873  0.4045 -0.3254 -0.2576
10297TIP3    H152306   6.000   1.836  12.804 -1.2808  0.9623 -0.0682
10297TIP3    H252307   5.894   1.828  12.913 -0.6383 -2.2734  0.4172
10298TIP3   OH252308   5.891   0.543   2.870  0.3587 -0.3211  0.1856
10298TIP3    H152309   5.804   0.533   2.909 -0.0824  0.2212 -0.6363
10298TIP3    H252310   5.889   0.487   2.792  0.4618  0.3267 -0.2835
10299TIP3   OH252311   2.990   3.741   2.275 -0.0213  0.7052 -0.5582
10299TIP3    H152312   2.959   3.829   2.255 -1.5126  0.7327  1.5920
10299TIP3    H252313   2.939   3.684   2.218 -0.2832  1.1087 -0.7288
10300TIP3   OH252314   1.359   2.607   5.772  0.2247 -0.1906  0.2341
10300TIP3    H152315   1.407   2.681   5.735 -0.4010  0.2625  0.3146
10300TIP3    H252316   1.285   2.647   5.819  0.3097 -0.8191  0.9253
10301TIP3   OH252317   0.296   2.567  13.648  0.2098  0.5107  0.3731
10301TIP3    H152318   0.375   2.618  13.628  1.0123 -1.0343 -0.5571
10301TIP3    H252319   0.254   2.555  13.562 -0.2955  0.1225  0.6713
10302TIP3   OH252320   0.781   6.382   1.437 -0.1717 -0.0584  0.0953
10302TIP3    H152321   0.843   6.311   1.449 -0.2079 -0.3528 -1.2466
10302TIP3    H252322   0.834   6.458   1.414 -0.1996  0.1169  0.5970
10303TIP3   OH252323   0.667   2.532  11.462 -0.4872  0.0846 -0.5951
10303TIP3    H152324   0.637   2.448  11.497 -0.0613  0.1826  0.0042
10303TIP3    H252325   0.598   2.557  11.401 -0.8207 -0.5015 -0.4734
10304TIP3   OH252326   4.357   4.131  15.051  0.0793  0.3361 -0.5004
10304TIP3    H152327   4.426   4.194  15.073  0.8897 -0.2704 -1.2256
10304TIP3    H252328   4.352   4.074  15.128 -0.4938  1.1237  0.0633
10305TIP3   OH252329   2.304   5.218   0.931  0.2487 -0.0566 -0.1503
10305TIP3    H152330   2.307   5.313   0.931  1.6471 -0.0721  0.4573
10305TIP3    H252331   2.396   5.191   0.922  0.3916 -1.2958  3.5147
10306TIP3   OH252332   6.565   5.931   0.604 -0.4148  0.3709 -0.7528
10306TIP3    H152333   6.470   5.922   0.591 -0.2575  1.4595 -3.0041
10306TIP3    H252334   6.586   6.017   0.568  1.3824  0.3461  0.1510
10307TIP3   OH252335   1.641   4.224  15.639 -0.1619  0.9775  0.0120
10307TIP3    H152336   1.720   4.173  15.658  0.2924  1.6986  0.0909
10307TIP3    H252337   1.619   4.267  15.721 -2.0397 -1.0560  0.6635
10308TIP3   OH252338   2.413   5.878   2.577 -0.3842 -0.3833  0.4034
10308TIP3    H152339   2.469   5.947   2.541 -0.4747  0.8219  2.4023
10308TIP3    H252340   2.456   5.796   2.552  1.1255  0.4596  0.1063
10309TIP3   OH252341   1.267   0.832   2.874 -0.2103 -0.5265  0.7304
10309TIP3    H152342   1.193   0.827   2.813 -0.4709  0.1165  0.9819
10309TIP3    H252343   1.247   0.766   2.940 -0.4764 -0.4794  0.7012
10310TIP3   OH252344   1.218   5.493   3.018  0.1333 -0.2579 -0.4038
10310TIP3    H152345   1.155   5.563   3.035 -0.0439  0.0984 -2.3003
10310TIP3    H252346   1.262   5.480   3.101 -1.9201  0.0005  0.7979
10311TIP3   OH252347   4.516   5.214   0.044 -0.3203 -0.1201 -0.7998
10311TIP3    H152348   4.467   5.216   0.126 -0.3647 -1.0568 -0.7889
10311TIP3    H252349   4.568   5.294   0.045 -0.9825  0.3142 -0.2729
10312TIP3   OH252350   3.173   3.453  15.229  0.1087 -0.3429 -0.5453
10312TIP3    H152351   3.127   3.457  15.145  0.8210 -0.6698 -0.9603
10312TIP3    H252352   3.105   3.470  15.294 -0.6295 -0.9394 -1.1344
10313TIP3   OH252353   0.844   1.509   6.110 -0.6261  0.5232 -0.0683
10313TIP3    H152354   0.864   1.494   6.202 -2.7057  0.4912  0.4046
10313TIP3    H252355   0.864   1.602   6.095 -1.1188  0.7440  0.6394
10314TIP3   OH252356   6.060   2.694  14.160 -0.0382  0.4628  0.1038
10314TIP3    H152357   6.064   2.691  14.256  0.1904  0.7395  0.1052
10314TIP3    H252358   6.098   2.778  14.137 -1.6690  1.1777 -0.1407
10315TIP3   OH252359   0.791   3.399  11.246  0.3488 -0.2563  0.0583
10315TIP3    H152360   0.727   3.335  11.277  0.8418 -0.5200  0.5501
10315TIP3    H252361   0.739   3.476  11.224 -0.5398 -1.5316 -2.7124
10316TIP3   OH252362   4.834   0.499   3.947  0.1395 -0.2948 -0.4229
10316TIP3    H152363   4.893   0.479   3.874  0.6628  0.6484 -0.2665
10316TIP3    H252364   4.842   0.424   4.005 -2.5158 -2.5620 -2.6760
10317TIP3   OH252365   0.214   5.584  16.345 -0.1159  0.1677  0.1656
10317TIP3    H152366   0.297   5.564  16.386 -0.0092  1.7681  0.8256
10317TIP3    H252367   0.187   5.503  16.303  1.7988 -0.3627 -0.1142
10318TIP3   OH252368   1.698   0.916   0.024 -0.3949  0.1796  0.4198
10318TIP3    H152369   1.605   0.927   0.003 -0.9077 -1.4236  1.6013
10318TIP3    H252370   1.708   0.821   0.038  1.3712  0.3498  0.5790
10319TIP3   OH252371   0.790   0.398   3.919 -0.0149  0.1855  0.3191
10319TIP3    H152372   0.806   0.332   3.987 -0.2465 -1.0334 -0.7805
10319TIP3    H252373   0.695   0.404   3.913  0.0047  0.2576  0.0628
10320TIP3   OH252374   3.730   0.902  16.331  0.5032 -0.7975  0.1265
10320TIP3    H152375   3.634   0.898  16.337  0.4109 -1.8604 -1.3696
10320TIP3    H252376   3.753   0.833  16.269  2.1167  0.4684 -0.7746
10321TIP3   OH252377   2.797   3.786  11.438 -0.6667  0.2094 -0.0482
10321TIP3    H152378   2.740   3.710  11.429 -1.0667  0.4793  0.2007
10321TIP3    H252379   2.874   3.754  11.485  0.4115 -0.6867 -2.2897
10322TIP3   OH252380   0.286   1.055   0.699 -0.8253 -0.1873 -0.2070
10322TIP3    H152381   0.366   1.075   0.651 -0.6991  0.8776  0.4251
10322TIP3    H252382   0.244   0.986   0.647  0.6810 -1.0433 -0.3428
10323TIP3   OH252383   4.455   0.188   4.119  0.1683  0.0171  0.0614
10323TIP3    H152384   4.446   0.113   4.060 -0.7486  1.2971 -1.5102
10323TIP3    H252385   4.532   0.168   4.172  0.4811 -1.6094 -0.9467
10324TIP3   OH252386   1.307   4.601   2.120 -0.2753  0.7260 -0.2176
10324TIP3    H152387   1.305   4.679   2.065 -1.4150  0.4666 -0.5669
10324TIP3    H252388   1.226   4.555   2.099  1.1680 -1.4593 -1.3199
10325TIP3   OH252389   2.536   0.583   0.527  0.2178  0.4111  0.2924
10325TIP3    H152390   2.472   0.636   0.478 -0.6848 -0.7431  0.1668
10325TIP3    H252391   2.570   0.522   0.462 -0.9007 -1.0579  1.0194
10326TIP3   OH252392   3.059   2.208  10.465  0.2201  0.5670 -0.0720
10326TIP3    H152393   3.115   2.285  10.460  0.4036  0.3653 -1.3975
10326TIP3    H252394   2.998   2.228  10.536  1.3099  1.2143  0.7343
10327TIP3   OH252395   5.727   0.304   4.082 -0.2155  0.1143 -0.0595
10327TIP3    H152396   5.805   0.257   4.110 -1.0856 -1.4421 -0.1430
10327TIP3    H252397   5.700   0.260   4.001 -0.3883  1.5453 -0.8239
10328TIP3   OH252398   0.129   1.241   5.084 -0.0504  0.0533 -0.2781
10328TIP3    H152399   0.086   1.310   5.033 -0.0945 -0.2311 -0.6318
10328TIP3    H252400   0.194   1.204   5.024  1.0657  0.8418  0.4384
10329TIP3   OH252401   2.449   5.010   5.060 -0.0236 -0.0583  0.1381
10329TIP3    H152402   2.451   5.074   5.132 -0.7683  0.1471 -0.0178
10329TIP3    H252403   2.532   5.024   5.014  0.5993 -0.3861  1.1151
10330TIP3   OH252404   6.786   1.206  11.842  0.0151 -0.2560 -0.0997
10330TIP3    H152405   6.799   1.117  11.810 -1.2266 -0.2676 -0.6008
10330TIP3    H252406   6.744   1.195  11.927  0.7319 -0.1551  0.2786
10331TIP3   OH252407   2.045   3.634  14.196  1.0397 -0.9253 -0.4809
10331TIP3    H152408   1.975   3.570  14.187  0.9525 -0.8419 -0.3968
10331TIP3    H252409   2.000   3.717  14.213  1.1759 -0.9395 -0.0553
10332TIP3   OH252410   3.586   0.716   2.002  0.3789  0.1892 -0.2041
10332TIP3    H152411   3.493   0.733   2.016 -0.6393 -3.2305 -1.7554
10332TIP3    H252412   3.603   0.750   1.914  1.1760  2.4030  0.7245
10333TIP3   OH252413   6.771   4.060   5.642  0.1321  0.6744  0.2323
10333TIP3    H152414   6.764   4.126   5.573  0.3471 -0.0194 -0.4641
10333TIP3    H252415   6.842   4.004   5.614  1.0353  1.0814  1.6410
10334TIP3   OH252416   1.428   6.730  13.410  0.6545  0.1531 -0.0819
10334TIP3    H152417   1.503   6.676  13.432  1.5759  1.0947 -0.8478
10334TIP3    H252418   1.464   6.818  13.397 -0.4319  0.4437 -1.3643
10335TIP3   OH252419   4.065   2.411  17.090  0.0009  0.3679  0.1363
10335TIP3    H152420   3.973   2.422  17.113  0.2958  1.0406  1.0977
10335TIP3    H252421   4.108   2.487  17.130  0.8563  0.4935 -0.9894
10336TIP3   OH252422   5.226   4.500   3.938  0.3163  0.6366  0.4904
10336TIP3    H152423   5.166   4.435   3.903  0.3241  0.3600  0.9716
10336TIP3    H252424   5.182   4.584   3.926 -0.1589  0.4382  0.8241
10337TIP3   OH252425   3.682   5.710   5.262  0.3135 -0.6066  0.4670
10337TIP3    H152426   3.741   5.698   5.187  0.1720  1.5793 -0.0665
10337TIP3    H252427   3.705   5.796   5.296 -0.2341 -1.2038  2.4398
10338TIP3   OH252428   1.869   6.277   3.209 -0.8168 -0.3264 -0.2509
10338TIP3    H152429   1.931   6.205   3.225  0.5547  1.1739  1.6966
10338TIP3    H252430   1.879   6.297   3.116  1.2095 -0.5629 -0.1343
10339TIP3   OH252431   0.396   5.854   2.955 -0.7760  0.3606  0.6767
10339TIP3    H152432   0.374   5.822   2.867 -0.4460  1.0765  0.3257
10339TIP3    H252433   0.344   5.934   2.965  1.6566  2.1905 -0.2325
10340TIP3   OH252434   4.480   5.127   1.089 -0.0777  0.0873  0.0354
10340TIP3    H152435   4.505   5.121   0.997  0.2798  0.5073  0.0972
10340TIP3    H252436   4.439   5.214   1.097 -2.6053 -0.9901 -0.2930
10341TIP3   OH252437   2.766   1.071  14.750 -0.2721  0.1834 -0.0298
10341TIP3    H152438   2.853   1.071  14.790  0.0828  0.1638 -0.7771
10341TIP3    H252439   2.777   1.121  14.669 -0.3321 -1.8982 -1.3987
10342TIP3   OH252440   1.267   6.631  14.823 -0.0813 -0.1569 -0.6168
10342TIP3    H152441   1.279   6.724  14.844  1.7727 -0.6058  0.6114
10342TIP3    H252442   1.179   6.611  14.855 -0.1389  0.9616  0.0120
10343TIP3   OH252443   0.670   2.359  15.481  0.9373  0.5953 -0.3292
10343TIP3    H152444   0.756   2.367  15.521  0.3951 -0.3899  1.1353
10343TIP3    H252445   0.647   2.449  15.455  1.6119  1.1733  0.9791
10344TIP3   OH252446   5.755   0.129   0.154 -0.1346 -0.9923  0.3855
10344TIP3    H152447   5.792   0.045   0.182  0.7169 -0.7514  0.0145
10344TIP3    H252448   5.661   0.113   0.146 -0.0464 -1.7612  0.8447
10345TIP3   OH252449   1.003   3.006   2.091 -0.2241 -0.3081 -0.1820
10345TIP3    H152450   0.924   3.009   2.145 -0.5838  0.1967 -0.7184
10345TIP3    H252451   0.983   2.942   2.022 -1.0154  1.3127 -1.5523
10346TIP3   OH252452   0.088   2.253   3.786  0.2207  0.0394  0.1051
10346TIP3    H152453   0.168   2.224   3.743  0.7605  2.2162 -0.4594
10346TIP3    H252454   0.115   2.323   3.845 -0.9234 -0.9564  1.9222
10347TIP3   OH252455   6.248   1.771  13.475  0.1283 -0.2336  0.0698
10347TIP3    H152456   6.322   1.810  13.429  0.0555  1.0176  0.9765
10347TIP3    H252457   6.204   1.845  13.518  0.2565 -1.3449  2.2462
10348TIP3   OH252458   5.413   3.760   3.139  0.0161 -0.1270  0.2446
10348TIP3    H152459   5.441   3.852   3.134  0.8698 -0.4478 -1.7139
10348TIP3    H252460   5.404   3.744   3.233  2.9469  1.0729  0.8612
10349TIP3   OH252461   2.752   2.206  13.580 -0.4396 -0.4037  0.2501
10349TIP3    H152462   2.815   2.163  13.637 -1.4839 -3.0192 -0.3890
10349TIP3    H252463   2.793   2.204  13.493 -0.6639 -0.5435  0.1444
10350TIP3   OH252464   6.667   3.310  11.670  0.0933  0.2100 -0.0482
10350TIP3    H152465   6.630   3.227  11.702  0.8054  0.1501  0.6620
10350TIP3    H252466   6.596   3.352  11.623 -0.4322 -0.5749  0.0325
10351TIP3   OH252467   5.035   0.557  14.056 -0.0457 -0.2137 -0.0754
10351TIP3    H152468   5.067   0.585  14.142 -1.2047 -1.6227  0.8698
10351TIP3    H252469   4.984   0.478  14.074  0.7605 -1.3044 -2.2415
10352TIP3   OH252470   1.691   5.446   2.481 -0.6845 -0.3525  0.0623
10352TIP3    H152471   1.666   5.459   2.389 -2.1352 -3.6200 -0.1414
10352TIP3    H252472   1.723   5.355   2.485  2.4736  0.6676  2.2391
10353TIP3   OH252473   1.206   5.021   5.351 -0.9333 -0.3276  0.5098
10353TIP3    H152474   1.130   4.966   5.333  0.1735 -1.5187 -0.8641
10353TIP3    H252475   1.280   4.960   5.346  0.0493  0.5471  2.9954
10354TIP3   OH252476   6.511   3.346   2.566 -0.1103  0.1017 -0.6167
10354TIP3    H152477   6.430   3.296   2.579  0.9989 -1.2117  2.0074
10354TIP3    H252478   6.485   3.437   2.578 -1.0391 -0.3840  1.6114
10355TIP3   OH252479   1.577   0.692  11.749 -0.1850  0.4082  0.2947
10355TIP3    H152480   1.562   0.784  11.730  0.2874  0.5536  0.6247
10355TIP3    H252481   1.558   0.683  11.842  0.4598  0.3210  0.4212
10356TIP3   OH252482   3.573   2.028  13.504 -0.1544  0.2590 -0.0901
10356TIP3    H152483   3.642   2.087  13.533 -0.7529  0.6676  0.5143
10356TIP3    H252484   3.596   2.008  13.413  1.5727 -0.7939  0.5268
10357TIP3   OH252485   1.742   5.893  11.418 -0.1388 -0.3654  0.2935
10357TIP3    H152486   1.735   5.814  11.365  1.2615 -0.3952  0.1205
10357TIP3    H252487   1.828   5.886  11.461 -0.2148  0.8061  0.6778
10358TIP3   OH252488   1.285   2.685   0.175 -0.2830 -0.7772  0.0516
10358TIP3    H152489   1.336   2.628   0.232 -0.4555 -0.1099  0.8799
10358TIP3    H252490   1.334   2.686   0.093  1.2364  0.1031  0.9307
10359TIP3   OH252491   4.475   0.543  13.992 -0.5221 -0.1268  0.1354
10359TIP3    H152492   4.458   0.480  14.062 -0.3123  1.8731  2.1031
10359TIP3    H252493   4.434   0.505  13.914  0.5635 -3.1901  0.9064
10360TIP3   OH252494   1.240   5.356  13.899 -0.2347 -0.2698  0.5784
10360TIP3    H152495   1.144   5.356  13.900 -0.2405  0.0731  0.1294
10360TIP3    H252496   1.264   5.406  13.821  0.3049 -2.8972 -1.0791
10361TIP3   OH252497   0.613   6.262   0.410  0.4228 -0.4117 -0.4145
10361TIP3    H152498   0.675   6.219   0.351 -1.3318 -2.2215 -1.0741
10361TIP3    H252499   0.557   6.191   0.442 -0.5701  0.9577  1.0848
10362TIP3   OH252500   3.848   5.408   5.392  0.5269 -0.1884 -0.7395
10362TIP3    H152501   3.772   5.392   5.335  1.6812 -0.0898 -2.3718
10362TIP3    H252502   3.813   5.402   5.481 -1.6567  1.1761 -1.4352
10363TIP3   OH252503   4.742   6.343   6.097 -0.5887 -0.4597  0.0695
10363TIP3    H152504   4.678   6.408   6.127 -0.6191 -0.1486 -0.6578
10363TIP3    H252505   4.699   6.259   6.111  0.5172 -0.5928  3.7632
10364TIP3   OH252506   5.058   1.831   4.314  0.2936 -0.3910 -0.6895
10364TIP3    H152507   4.997   1.805   4.383  1.2161  0.2984  0.4125
10364TIP3    H252508   5.081   1.750   4.270 -0.9287 -0.7398 -0.7314
10365TIP3   OH252509   1.260   1.144  12.803 -0.3966 -0.5012 -0.1096
10365TIP3    H152510   1.218   1.117  12.885  0.2870  1.1675  0.8342
10365TIP3    H252511   1.322   1.074  12.783  0.3992 -0.3045  1.5499
10366TIP3   OH252512   5.372   2.846  12.527 -0.1877 -0.1598  0.2912
10366TIP3    H152513   5.317   2.885  12.595  1.1927  1.0443  0.7534
10366TIP3    H252514   5.407   2.767  12.566 -1.9844 -1.2646 -0.2040
10367TIP3   OH252515   1.194   5.599   2.721  0.5281  0.2951 -0.3248
10367TIP3    H152516   1.201   5.507   2.748 -0.7948  0.6406  1.3746
10367TIP3    H252517   1.247   5.647   2.785  1.4615  0.7120 -1.3830
10368TIP3   OH252518   5.901   1.985  14.150  0.4437 -0.2538 -0.1811
10368TIP3    H152519   5.926   2.046  14.219 -0.6068  0.0323 -0.0436
10368TIP3    H252520   5.848   1.919  14.194 -0.4194  0.0505 -0.7486
10369TIP3   OH252521   6.470   3.208   1.013 -0.0332  0.9396  0.4772
10369TIP3    H152522   6.396   3.240   0.962  0.7511  2.3551  0.1811
10369TIP3    H252523   6.448   3.117   1.033 -0.1883  0.1793 -2.6971
10370TIP3   OH252524   4.490   5.617  14.007  0.1906 -0.4001  0.5357
10370TIP3    H152525   4.516   5.705  14.034  2.9567 -0.6526 -0.9041
10370TIP3    H252526   4.496   5.564  14.086 -0.3275  0.4681  1.1659
10371TIP3   OH252527   4.245   0.130  12.083 -0.5509 -0.0528 -0.4074
10371TIP3    H152528   4.239   0.069  12.010 -1.8332  0.5930 -0.8732
10371TIP3    H252529   4.338   0.154  12.088 -0.3791 -0.4727 -1.5158
10372TIP3   OH252530   3.598   3.475   5.646 -0.0618  0.5237  0.0725
10372TIP3    H152531   3.657   3.413   5.604  1.0251  1.5148  0.0716
10372TIP3    H252532   3.599   3.450   5.738  1.1175  1.0808  0.2332
10373TIP3   OH252533   1.132   5.293   3.255 -0.1861 -0.2642  0.0005
10373TIP3    H152534   1.113   5.339   3.337 -0.1881 -1.3935  0.6458
10373TIP3    H252535   1.227   5.293   3.249 -0.1935  0.1083 -0.1779
10374TIP3   OH252536   2.977   6.138  11.255  0.2206 -0.7779 -0.1166
10374TIP3    H152537   3.073   6.132  11.259  0.3848  1.0947 -0.0496
10374TIP3    H252538   2.957   6.140  11.162  0.2309 -1.3366 -0.1308
10375TIP3   OH252539   3.968   5.883  16.010  0.2782 -0.2252 -0.5278
10375TIP3    H152540   3.899   5.942  16.041 -0.4044 -0.5153 -1.4435
10375TIP3    H252541   4.002   5.924  15.931  0.4222 -0.6007 -0.6656
10376TIP3   OH252542   1.731   1.159   0.217 -0.9840  0.0189 -0.4159
10376TIP3    H152543   1.683   1.112   0.149 -0.0655  1.0393 -1.8236
10376TIP3    H252544   1.716   1.251   0.198  0.0471  0.3318  0.2156
10377TIP3   OH252545   3.052   1.058   1.488 -0.1663  0.6339  0.4673
10377TIP3    H152546   3.022   1.148   1.492 -0.0448  0.6853  0.2196
10377TIP3    H252547   2.996   1.016   1.423 -0.7553  0.3224  1.1604
10378TIP3   OH252548   6.756   5.354  14.349  0.0311  0.2955  0.4814
10378TIP3    H152549   6.773   5.268  14.388  0.9754 -1.0552 -2.6050
10378TIP3    H252550   6.664   5.372  14.371 -0.8457 -2.5108 -0.4813
10379TIP3   OH252551   2.738   3.324   4.424 -0.6110  0.4335 -0.3013
10379TIP3    H152552   2.662   3.326   4.366 -1.6889  2.3603  1.0656
10379TIP3    H252553   2.710   3.273   4.500  0.0564 -0.2734 -0.5183
10380TIP3   OH252554   5.238   6.044  13.844  0.5871 -0.2374 -0.5200
10380TIP3    H152555   5.261   6.136  13.842  0.2620 -0.1309  0.3076
10380TIP3    H252556   5.216   6.022  13.753  1.3099  0.3237 -0.8355
10381TIP3   OH252557   3.714   0.427   4.989  0.1173  0.1168 -0.3855
10381TIP3    H152558   3.636   0.379   4.961  1.0740 -1.2084 -0.8531
10381TIP3    H252559   3.758   0.449   4.907  0.2181  0.9115 -0.1255
10382TIP3   OH252560   2.310   6.566   0.163  0.1792  0.2895 -0.3287
10382TIP3    H152561   2.356   6.529   0.238  0.5847 -2.0276 -1.6249
10382TIP3    H252562   2.219   6.535   0.173  0.2823 -0.2136 -0.8682
10383TIP3   OH252563   5.540   3.079   6.591 -0.0074  0.6254 -0.4117
10383TIP3    H152564   5.505   3.031   6.516  0.0608 -0.7810  0.4187
10383TIP3    H252565   5.635   3.078   6.578  0.2108 -1.7540  0.8557
10384TIP3   OH252566   5.730   1.977   3.510  0.5583  0.0536 -0.1905
10384TIP3    H152567   5.700   1.891   3.480 -1.8575  0.9214 -0.4112
10384TIP3    H252568   5.654   2.016   3.552  1.4026  2.3824 -0.6855
10385TIP3   OH252569   1.840   0.659  11.748 -0.0789 -0.0267  0.9823
10385TIP3    H152570   1.867   0.668  11.839  0.1930 -0.2770  0.9301
10385TIP3    H252571   1.745   0.652  11.751 -0.3266  2.2939  1.0750
10386TIP3   OH252572   1.902   2.462  17.056  0.3340  0.7530 -0.7014
10386TIP3    H152573   1.964   2.396  17.087 -0.3296  0.3619 -0.1613
10386TIP3    H252574   1.955   2.540  17.041  1.1283  0.1122 -1.3285
10387TIP3   OH252575   2.965   4.699  13.203 -0.0936  0.1586  0.1204
10387TIP3    H152576   2.972   4.607  13.178  1.9321  0.1274  0.6051
10387TIP3    H252577   3.010   4.747  13.133 -0.4873  0.7178  0.2417
10388TIP3   OH252578   2.015   6.657  14.359 -0.3937 -0.6486 -1.0180
10388TIP3    H152579   1.953   6.677  14.429 -0.2652 -0.5085 -0.9427
10388TIP3    H252580   1.961   6.649  14.280 -0.4666 -0.1245 -1.0280
10389TIP3   OH252581   0.024   2.217   2.624 -0.3186 -0.0892  0.1444
10389TIP3    H152582   0.022   2.141   2.566 -0.3326  1.9904 -2.8154
10389TIP3    H252583   0.108   2.210   2.670  0.6156 -0.8884 -1.5849
10390TIP3   OH252584   2.754   0.844  15.581  0.3285  0.5097  0.4225
10390TIP3    H152585   2.777   0.851  15.674  1.6988 -2.7411  0.4395
10390TIP3    H252586   2.836   0.823  15.537 -0.5740  0.5047 -1.3460
10391TIP3   OH252587   5.370   3.319  16.979 -0.1804  0.4999  0.6650
10391TIP3    H152588   5.277   3.339  16.984 -0.0204  1.1293  1.3756
10391TIP3    H252589   5.414   3.402  16.997  0.5911  1.0916 -3.1464
10392TIP3   OH252590   1.037   3.088  15.353  0.2543  0.1281  0.4575
10392TIP3    H152591   1.097   3.027  15.309  0.9254  0.7966  0.4143
10392TIP3    H252592   1.026   3.159  15.289  1.1468  1.0547  1.2998
10393TIP3   OH252593   1.800   2.537   4.585  0.6824 -0.2261 -0.2863
10393TIP3    H152594   1.892   2.563   4.581  0.6711 -0.2593 -0.8505
10393TIP3    H252595   1.771   2.565   4.672  0.9028  0.8724 -0.5526
10394TIP3   OH252596   5.235   0.604   2.487 -0.6458 -0.0222  0.0000
10394TIP3    H152597   5.177   0.680   2.483 -0.9622 -0.2952 -1.0980
10394TIP3    H252598   5.196   0.547   2.554  0.0703  1.1345  1.4419
10395TIP3   OH252599   0.699   1.694  15.505 -0.4746 -0.5930 -0.4782
10395TIP3    H152600   0.767   1.718  15.441  0.7892 -0.5861  0.8168
10395TIP3    H252601   0.655   1.777  15.524 -0.6046 -0.5266 -1.0434
10396TIP3   OH252602   4.267   2.138   4.929 -0.0191 -0.5464  0.3170
10396TIP3    H152603   4.251   2.089   5.010 -1.0532 -0.9128 -0.0900
10396TIP3    H252604   4.301   2.072   4.868 -0.4983 -0.5625  0.0610
10397TIP3   OH252605   5.766   1.647   4.037  0.2049  0.1741  0.3951
10397TIP3    H152606   5.673   1.656   4.055 -0.2247 -1.3260 -0.7982
10397TIP3    H252607   5.805   1.622   4.120 -0.7472 -0.8794  0.5408
10398TIP3   OH252608   4.448   6.622  11.917 -0.1497  0.4528 -0.4402
10398TIP3    H152609   4.470   6.715  11.909 -0.4471  0.5862  0.2111
10398TIP3    H252610   4.482   6.597  12.003 -0.9368  0.2157 -0.1912
10399TIP3   OH252611   4.815   4.818  13.739  0.0749 -0.1102 -0.0492
10399TIP3    H152612   4.791   4.895  13.790 -0.1391 -0.0620 -0.2200
10399TIP3    H252613   4.910   4.816  13.743  0.1214  0.4954 -0.5112
10400TIP3   OH252614   6.048   0.428   6.024  0.0935  0.5638 -0.2631
10400TIP3    H152615   6.110   0.358   6.046 -0.9305 -0.2105  0.2199
10400TIP3    H252616   6.101   0.508   6.028  1.4099 -0.2022 -1.3346
10401TIP3   OH252617   0.098   5.252   4.090 -0.1121 -0.1266 -0.2276
10401TIP3    H152618   0.147   5.331   4.113  1.7409 -1.2914  0.0350
10401TIP3    H252619   0.007   5.272   4.113  0.2302  2.0607 -0.5654
10402TIP3   OH252620   1.325   0.758  12.152 -0.0966 -0.3672  0.3864
10402TIP3    H152621   1.282   0.824  12.098  1.4370 -0.3125 -0.8513
10402TIP3    H252622   1.381   0.808  12.211 -0.0846 -0.5019  0.4898
10403TIP3   OH252623   5.672   6.390   5.416 -0.0532  0.2007 -0.3027
10403TIP3    H152624   5.595   6.373   5.362 -1.0594  1.6826  0.5954
10403TIP3    H252625   5.676   6.315   5.475 -1.0469  0.2909 -0.0990
10404TIP3   OH252626   3.778   5.351   0.308  0.7947 -0.1469 -0.2439
10404TIP3    H152627   3.703   5.395   0.268  1.3383 -0.1495 -1.2862
10404TIP3    H252628   3.818   5.418   0.364  0.8470  0.2885 -0.7946
10405TIP3   OH252629   4.476   4.043  17.007  0.4504 -0.5583 -0.1866
10405TIP3    H152630   4.388   4.070  16.982  0.2348 -1.5781 -0.5725
10405TIP3    H252631   4.463   3.976  17.074  1.0014  1.0697  1.6597
10406TIP3   OH252632   0.152   1.998  14.871  0.1374  0.2631  0.3769
10406TIP3    H152633   0.065   1.982  14.835  0.1766  0.3631  0.2337
10406TIP3    H252634   0.161   2.093  14.869  1.1247  0.1881 -1.7531
10407TIP3   OH252635   1.051   5.294  11.236  0.7173  0.0764 -0.5588
10407TIP3    H152636   1.056   5.368  11.175  0.2963 -1.6271 -2.7786
10407TIP3    H252637   0.960   5.293  11.265  0.1757 -0.7470 -2.1651
10408TIP3   OH252638   4.598   5.949   5.338 -1.0265  0.1863 -0.8064
10408TIP3    H152639   4.683   5.973   5.302  0.2256 -1.3735  0.9213
10408TIP3    H252640   4.618   5.886   5.407 -3.6913 -1.4471 -1.3791
10409TIP3   OH252641   3.620   6.600   0.216 -0.0169 -0.2403 -0.1239
10409TIP3    H152642   3.704   6.592   0.262 -0.3084  2.7446  1.0972
10409TIP3    H252643   3.645   6.604   0.123  1.0463 -0.7565  0.1160
10410TIP3   OH252644   0.373   0.332   1.181 -0.4137 -0.7307 -0.1043
10410TIP3    H152645   0.451   0.301   1.226 -0.0200 -2.1046 -1.6520
10410TIP3    H252646   0.405   0.370   1.099 -1.2585  0.1375 -0.0589
10411TIP3   OH252647   5.772   0.106   2.909 -0.5739 -0.1354 -0.4866
10411TIP3    H152648   5.704   0.144   2.965 -0.6058 -0.2455 -0.4508
10411TIP3    H252649   5.852   0.154   2.933 -0.9037  1.0016 -1.5370
10412TIP3   OH252650   2.793   1.752  15.616  0.1809 -0.0040  0.1514
10412TIP3    H152651   2.774   1.734  15.708  2.5177  0.1621  0.7281
10412TIP3    H252652   2.852   1.827  15.618  1.4905 -0.9267 -1.3676
10413TIP3   OH252653   5.039   4.112   5.287 -0.0696  0.2275  0.6469
10413TIP3    H152654   5.023   4.168   5.210 -2.3203 -0.9157  0.1964
10413TIP3    H252655   5.012   4.166   5.361 -1.8817 -0.0751  0.2453
10414TIP3   OH252656   0.615   5.203  11.196 -0.2413  0.7185  0.5725
10414TIP3    H152657   0.686   5.221  11.258  1.1988 -2.0350 -0.1144
10414TIP3    H252658   0.659   5.186  11.113 -1.8375  0.5115 -0.2667
10415TIP3   OH252659   1.821   4.255  13.245  0.0983  0.4451 -0.0568
10415TIP3    H152660   1.847   4.327  13.188  2.0496  0.4614  0.7435
10415TIP3    H252661   1.828   4.291  13.334 -2.1690  0.2191  0.2685
10416TIP3   OH252662   4.163   3.121   0.710  0.5201  0.0081  1.1249
10416TIP3    H152663   4.070   3.135   0.724  0.0944 -0.6964 -0.7755
10416TIP3    H252664   4.202   3.208   0.711 -0.2792  0.3646  1.1482
10417TIP3   OH252665   2.207   0.947  12.160 -0.3479 -0.3298 -0.2169
10417TIP3    H152666   2.191   1.038  12.186  0.0386  0.0818 -1.3482
10417TIP3    H252667   2.140   0.897  12.206 -0.3471  0.4830  0.6940
10418TIP3   OH252668   1.357   1.514  13.011  0.3086 -0.2471  0.4772
10418TIP3    H152669   1.267   1.480  13.014 -0.1186  0.6125 -1.3249
10418TIP3    H252670   1.407   1.443  12.970  0.3762 -0.5301  1.0324
10419TIP3   OH252671   5.767   2.326  15.999 -0.3610  0.3953  0.3027
10419TIP3    H152672   5.702   2.286  15.941  2.1826 -0.8789 -1.9425
10419TIP3    H252673   5.829   2.255  16.016  0.8026  1.7091  1.7792
10420TIP3   OH252674   0.219   2.887  14.247  0.1856 -0.0589  0.2554
10420TIP3    H152675   0.267   2.927  14.320  0.2781 -0.1452  0.2440
10420TIP3    H252676   0.244   2.938  14.171 -2.1171  1.8773  0.6872
10421TIP3   OH252677   0.900   2.347   1.520 -0.3947 -0.3452  0.2114
10421TIP3    H152678   0.948   2.420   1.559  1.2708 -0.6754 -1.1165
10421TIP3    H252679   0.895   2.281   1.589  2.0104 -0.7016  0.1047
10422TIP3   OH252680   5.162   5.781   0.758 -0.1834  0.6278  0.1417
10422TIP3    H152681   5.224   5.784   0.831 -2.1134 -0.0786  1.9122
10422TIP3    H252682   5.185   5.857   0.705  2.6808 -0.0287  0.2316
10423TIP3   OH252683   3.290   6.231   3.045  0.1556 -0.2243 -0.3711
10423TIP3    H152684   3.274   6.301   2.982  0.8279 -0.1994 -0.5191
10423TIP3    H252685   3.380   6.203   3.028 -0.0215 -0.9557 -0.1480
10424TIP3   OH252686   6.750   0.486   3.292  0.2968 -0.3505  0.3961
10424TIP3    H152687   6.764   0.564   3.344  0.9266 -1.0464  1.3075
10424TIP3    H252688   6.680   0.438   3.338 -2.0908  0.9225 -1.6405
10425TIP3   OH252689   1.214   3.277  15.091 -0.3639 -0.2185  0.0404
10425TIP3    H152690   1.278   3.278  15.019 -1.1404  2.0025 -0.6821
10425TIP3    H252691   1.129   3.288  15.048 -1.4365 -3.6239  0.9325
10426TIP3   OH252692   1.588   0.900   1.187  0.8743  0.5013  0.2285
10426TIP3    H152693   1.561   0.865   1.272 -0.9023 -0.8446 -0.8189
10426TIP3    H252694   1.588   0.824   1.129  2.3033  1.3497 -0.9381
10427TIP3   OH252695   6.339   5.182   5.703  0.3529  0.0135  0.0589
10427TIP3    H152696   6.419   5.220   5.738 -0.0150  1.1566 -0.3204
10427TIP3    H252697   6.352   5.087   5.712  1.5659  0.1940  0.3676
10428TIP3   OH252698   4.343   6.333  16.325  0.3303 -0.4900 -0.6438
10428TIP3    H152699   4.292   6.414  16.327 -0.6958 -1.1206  1.3224
10428TIP3    H252700   4.294   6.275  16.268  1.2553  0.3343 -2.3509
10429TIP3   OH252701   0.599   5.080   1.233 -0.3803 -0.3663 -0.1799
10429TIP3    H152702   0.547   5.158   1.252  1.2054  0.9088 -0.8325
10429TIP3    H252703   0.587   5.067   1.139 -0.0361 -0.4475 -0.2118
10430TIP3   OH252704   1.407   5.976  13.381  0.2954  0.3913  0.1041
10430TIP3    H152705   1.314   5.960  13.368  0.4214  0.6186 -1.2053
10430TIP3    H252706   1.450   5.931  13.308  0.9861  2.6729 -0.9839
10431TIP3   OH252707   5.337   1.935   2.735 -0.6263 -0.3310 -0.1638
10431TIP3    H152708   5.320   1.870   2.804 -1.8068 -0.7703 -0.8453
10431TIP3    H252709   5.270   2.002   2.748  1.4063  1.5846  1.4200
10432TIP3   OH252710   1.034   5.555   0.960  0.1499 -0.0977 -0.1899
10432TIP3    H152711   1.025   5.504   0.880  0.3287 -0.6092  0.1097
10432TIP3    H252712   1.124   5.537   0.990 -0.3313 -0.9260  0.8056
10433TIP3   OH252713   1.965   1.485   6.010 -0.3909 -0.1737  0.3730
10433TIP3    H152714   1.971   1.403   6.059 -2.9784 -0.3721  0.4660
10433TIP3    H252715   1.990   1.461   5.921 -1.7936 -1.2709  0.2371
10434TIP3   OH252716   5.316   6.651  14.600 -0.0359 -0.1907  0.2031
10434TIP3    H152717   5.346   6.588  14.666 -0.3269  0.3962  0.9097
10434TIP3    H252718   5.338   6.610  14.517 -1.3902 -1.8509  0.6044
10435TIP3   OH252719   3.876   4.926  14.541  0.2374  0.0418 -0.3445
10435TIP3    H152720   3.850   4.950  14.452  0.0036  0.0929 -0.2613
10435TIP3    H252721   3.794   4.910  14.587  0.2829 -4.1926 -1.2671
10436TIP3   OH252722   3.528   0.498  13.428  0.4542 -0.2888  0.9854
10436TIP3    H152723   3.499   0.413  13.462  0.2980 -0.1193  1.2861
10436TIP3    H252724   3.590   0.530  13.494  0.8479 -0.3632  0.6586
10437TIP3   OH252725   1.653   4.872   3.143  0.0591  0.4269 -0.0560
10437TIP3    H152726   1.713   4.938   3.178 -0.6829  1.7545 -1.1935
10437TIP3    H252727   1.696   4.788   3.162  1.4798  1.2650  0.5849
10438TIP3   OH252728   1.549   1.548  16.160  0.1622 -0.5652 -0.5353
10438TIP3    H152729   1.642   1.545  16.137  0.2832  0.5280 -0.2483
10438TIP3    H252730   1.506   1.495  16.092  1.0735 -1.9258 -0.0986
10439TIP3   OH252731   3.041   3.992   0.376 -0.1705 -0.6934 -0.2602
10439TIP3    H152732   3.031   3.899   0.395 -0.3780 -0.9728 -1.6482
10439TIP3    H252733   3.125   3.999   0.331 -0.9964 -0.5211 -1.8647
10440TIP3   OH252734   1.143   4.919   4.032  0.3493  0.2459  0.0815
10440TIP3    H152735   1.231   4.882   4.027  0.8521  1.3889  0.0096
10440TIP3    H252736   1.131   4.940   4.125 -0.2282 -0.7447  0.2466
10441TIP3   OH252737   3.026   0.278   4.139  0.3884 -0.0632  0.2159
10441TIP3    H152738   3.005   0.196   4.183  1.0368 -1.6968 -2.3249
10441TIP3    H252739   2.941   0.314   4.115  0.1086 -1.7662 -1.5937
10442TIP3   OH252740   1.082   2.479  12.084  0.4755  1.0326 -0.0467
10442TIP3    H152741   1.088   2.530  12.004 -0.7531  1.2086 -0.0543
10442TIP3    H252742   1.081   2.544  12.154 -0.4336  1.0139 -0.0210
10443TIP3   OH252743   5.682   0.404  11.076 -0.0985 -0.1385  0.1772
10443TIP3    H152744   5.612   0.378  11.137  0.2847  0.0667  0.7133
10443TIP3    H252745   5.648   0.381  10.989 -0.1479 -1.6212  0.5502
10444TIP3   OH252746   4.851   0.974   3.401 -0.3255  0.1974  0.0087
10444TIP3    H152747   4.823   0.899   3.349 -0.9128  1.5850 -1.7283
10444TIP3    H252748   4.836   0.947   3.492  0.4212 -2.1478 -0.4981
10445TIP3   OH252749   5.678   0.980  12.230 -0.3275  0.2658 -0.1320
10445TIP3    H152750   5.657   1.048  12.167  0.2681  0.8781  0.3153
10445TIP3    H252751   5.599   0.925  12.234 -0.3932  0.2398 -1.3548
10446TIP3   OH252752   4.843   0.721  16.094 -0.6310  0.2155 -0.1332
10446TIP3    H152753   4.934   0.747  16.097 -0.9454  1.3442 -0.0951
10446TIP3    H252754   4.803   0.763  16.171 -1.1026 -0.5964  0.0817
10447TIP3   OH252755   5.986   1.260   1.386  0.3265 -0.2753 -0.3174
10447TIP3    H152756   6.004   1.321   1.314 -0.0748 -0.5646 -0.6626
10447TIP3    H252757   5.982   1.316   1.464 -0.0567  0.1408 -0.6341
10448TIP3   OH252758   1.084   3.204   3.219  0.2742  0.1017 -0.0192
10448TIP3    H152759   1.109   3.115   3.192 -0.5744 -0.6860  1.6248
10448TIP3    H252760   1.090   3.202   3.314 -1.9467  1.1002  0.1903
10449TIP3   OH252761   6.085   4.605  13.318 -0.2214 -0.5051  0.3426
10449TIP3    H152762   6.117   4.539  13.380 -2.3404 -0.8114  1.1859
10449TIP3    H252763   6.014   4.562  13.271  0.2623  0.2792 -1.1656
10450TIP3   OH252764   6.687   6.021  16.948 -0.1798  0.1294 -0.0206
10450TIP3    H152765   6.691   5.978  16.862  1.0412  1.1760 -0.5129
10450TIP3    H252766   6.728   5.958  17.008 -0.1683 -0.2091 -0.3805
10451TIP3   OH252767   5.149   1.955  11.678 -0.6276  0.4703  0.0248
10451TIP3    H152768   5.226   1.899  11.687 -0.8664  0.0570 -0.4156
10451TIP3    H252769   5.123   1.946  11.586 -0.7590  1.1938 -0.0164
10452TIP3   OH252770   3.023   4.098  14.175 -0.1805 -0.3274 -0.0678
10452TIP3    H152771   3.085   4.118  14.245 -1.1569  0.6950  0.5440
10452TIP3    H252772   3.028   4.174  14.117 -0.3829 -0.5436 -0.3694
10453TIP3   OH252773   6.748   4.131  16.643  0.3529 -0.4940 -0.1634
10453TIP3    H152774   6.799   4.062  16.684 -0.8803 -1.3049  0.0553
10453TIP3    H252775   6.724   4.189  16.715 -1.6280 -1.8015  0.3187
10454TIP3   OH252776   2.773   6.341  12.977 -0.1291 -0.1924 -0.2894
10454TIP3    H152777   2.687   6.335  12.934  0.3708 -0.4472 -1.2947
10454TIP3    H252778   2.834   6.300  12.915  1.3837  3.5450 -1.5694
10455TIP3   OH252779   2.130   2.409  13.248 -0.1255 -0.3733  0.0379
10455TIP3    H152780   2.040   2.396  13.278 -0.3140 -1.2865 -0.8673
10455TIP3    H252781   2.170   2.463  13.316 -2.0391  2.2578 -0.7253
10456TIP3   OH252782   2.385   3.393   3.379  0.1588  0.2557 -0.2536
10456TIP3    H152783   2.367   3.330   3.448 -0.6033 -0.7066 -1.2940
10456TIP3    H252784   2.324   3.465   3.396 -1.5530 -0.9247 -1.1015
10457TIP3   OH252785   5.244   2.640  11.364  0.1510 -0.4311 -0.6155
10457TIP3    H152786   5.186   2.615  11.292 -2.4316  2.4042  0.2800
10457TIP3    H252787   5.294   2.714  11.331 -1.4577  1.2622  0.5264
10458TIP3   OH252788   0.321   3.078  12.705 -0.0100  0.4949  0.2708
10458TIP3    H152789   0.391   3.020  12.675 -1.5162 -1.3673  0.1383
10458TIP3    H252790   0.304   3.136  12.631 -0.0349 -0.4518 -0.4816
10459TIP3   OH252791   2.932   4.683  11.991  0.3758 -0.3315  0.2009
10459TIP3    H152792   2.967   4.683  11.902 -1.4327  0.5247 -0.5436
10459TIP3    H252793   2.911   4.591  12.009  2.2074 -0.7521  0.3881
10460TIP3   OH252794   1.566   3.172   4.021  0.6616  0.3222 -0.4084
10460TIP3    H152795   1.557   3.146   3.929  0.4750 -2.1154  0.2188
10460TIP3    H252796   1.576   3.089   4.068  0.7845  1.5098  1.7822
10461TIP3   OH252797   3.702   0.082   4.912  0.2042 -0.1915  0.1350
10461TIP3    H152798   3.705   0.127   4.997 -0.0398  1.1132 -0.5336
10461TIP3    H252799   3.693   0.152   4.848 -2.3175 -1.3015 -0.8201
10462TIP3   OH252800   6.514   3.499   4.239  0.6104 -0.0968  0.4875
10462TIP3    H152801   6.420   3.478   4.237  0.9218 -1.5033 -0.4866
10462TIP3    H252802   6.547   3.457   4.318  0.1764  1.7017  1.6928
10463TIP3   OH252803   5.433   0.345  11.170 -0.4780  0.5155  0.3968
10463TIP3    H152804   5.368   0.278  11.148  0.2150 -0.0184 -0.0917
10463TIP3    H252805   5.381   0.419  11.201 -1.2328 -0.4313  1.4687
10464TIP3   OH252806   2.499   4.888  17.069  0.5052  0.4084  0.5505
10464TIP3    H152807   2.591   4.905  17.049  0.1736  1.3854 -0.2519
10464TIP3    H252808   2.500   4.808  17.120  1.6467 -0.6683 -1.0534
10465TIP3   OH252809   1.464   3.794   5.615  0.9102  0.3200 -0.2578
10465TIP3    H152810   1.370   3.780   5.606  1.1029 -1.4748  0.1726
10465TIP3    H252811   1.473   3.849   5.694  0.1646  2.1292 -1.3701
10466TIP3   OH252812   6.639   3.596  14.557 -0.5531 -0.3745  0.5619
10466TIP3    H152813   6.592   3.515  14.538 -0.3082  0.0893 -2.4196
10466TIP3    H252814   6.578   3.666  14.531  0.4839  0.2973 -0.1342
10467TIP3   OH252815   2.920   0.745  11.963 -0.3416 -0.2833  0.1738
10467TIP3    H152816   2.892   0.804  12.033  1.1936 -1.2918  1.7360
10467TIP3    H252817   3.001   0.784  11.929 -0.0293 -0.7898  0.3167
10468TIP3   OH252818   4.478   4.469   3.230 -0.0114  0.3160  0.4623
10468TIP3    H152819   4.574   4.471   3.224  0.0948  1.9333  1.9033
10468TIP3    H252820   4.459   4.387   3.276  0.4755 -1.1830 -1.8600
10469TIP3   OH252821   3.700   6.097  14.997  0.0530 -0.7229 -0.4584
10469TIP3    H152822   3.627   6.074  15.055 -1.1458  2.0920 -0.6617
10469TIP3    H252823   3.666   6.081  14.909  0.5429 -1.5933 -0.4903
10470TIP3   OH252824   0.329   0.310   1.757 -0.3079 -0.2481 -0.5428
10470TIP3    H152825   0.277   0.367   1.700 -0.4970 -2.1731 -2.4253
10470TIP3    H252826   0.419   0.339   1.743 -0.5972  1.4805  0.8292
10471TIP3   OH252827   5.103   4.760  13.723 -0.0867 -0.2144  0.5139
10471TIP3    H152828   5.196   4.758  13.701 -0.4611 -0.1490 -1.2033
10471TIP3    H252829   5.064   4.694  13.666 -1.0420 -0.6187  1.5956
10472TIP3   OH252830   4.637   5.464   5.388  0.2419 -0.4821  0.1330
10472TIP3    H152831   4.544   5.476   5.371  0.0451  0.2023  1.5651
10472TIP3    H252832   4.679   5.536   5.342 -0.1185  0.2890  0.9775
10473TIP3   OH252833   6.579   0.893   3.821 -0.3600 -0.3452 -0.0903
10473TIP3    H152834   6.528   0.850   3.890 -0.3459 -0.6243 -0.2518
10473TIP3    H252835   6.652   0.934   3.868 -1.1816  0.7659  0.2402
10474TIP3   OH252836   5.353   3.207   6.382  0.0661 -0.0791 -0.2627
10474TIP3    H152837   5.332   3.148   6.455 -0.6232 -0.8677 -1.0801
10474TIP3    H252838   5.269   3.243   6.355  0.5414  1.8277  0.6375
10475TIP3   OH252839   5.731   3.479  16.369  0.1734 -0.4317  0.1885
10475TIP3    H152840   5.752   3.521  16.453  1.7817  0.9623 -0.8447
10475TIP3    H252841   5.778   3.396  16.372  0.9329 -0.0102  0.3526
10476TIP3   OH252842   5.750   5.949   3.616  0.0879 -0.4982 -0.1356
10476TIP3    H152843   5.668   5.999   3.617 -0.0229 -0.5686 -2.1567
10476TIP3    H252844   5.779   5.951   3.707 -2.0195 -0.2708  0.5989
10477TIP3   OH252845   5.824   0.605  13.995 -0.1702  0.5420 -0.1702
10477TIP3    H152846   5.789   0.521  14.024  0.6357  0.4170  0.4648
10477TIP3    H252847   5.898   0.622  14.053  0.0503  1.4021 -0.6832
10478TIP3   OH252848   3.477   2.352  15.743 -0.4085 -0.6731 -0.2457
10478TIP3    H152849   3.555   2.336  15.690 -1.6924 -2.1781 -1.7982
10478TIP3    H252850   3.432   2.424  15.698  0.2853  0.5122  0.9119
10479TIP3   OH252851   3.444   5.640   3.092 -0.0293  0.3513  0.1136
10479TIP3    H152852   3.400   5.666   3.011 -0.2605  0.1551  0.1781
10479TIP3    H252853   3.533   5.618   3.064 -0.3558 -0.5793 -0.2334
10480TIP3   OH252854   6.200   3.113  16.621  0.7167 -0.1165 -0.4413
10480TIP3    H152855   6.125   3.072  16.664  1.7405 -1.4747  0.1642
10480TIP3    H252856   6.177   3.116  16.528 -0.2865 -0.0089 -0.1986
10481TIP3   OH252857   4.058   5.761  12.681  0.8623  0.2207  0.0833
10481TIP3    H152858   4.070   5.705  12.758 -1.6715  1.1246  1.2715
10481TIP3    H252859   4.120   5.833  12.693  3.8591 -1.9314 -1.2460
10482TIP3   OH252860   1.801   3.296  15.538  0.2242  0.5838  0.6785
10482TIP3    H152861   1.777   3.341  15.457  0.6272  0.3281  0.4161
10482TIP3    H252862   1.731   3.318  15.600  0.1261  1.1060  0.3804
10483TIP3   OH252863   4.263   6.763  17.105  0.3235  0.1849 -0.3869
10483TIP3    H152864   4.293   6.702  17.173 -1.3297  0.5624  0.7250
10483TIP3    H252865   4.179   6.727  17.076  1.0192 -0.0121 -2.3352
10484TIP3   OH252866   6.678   0.167  15.385  0.4199  0.4367  0.5229
10484TIP3    H152867   6.657   0.243  15.331 -0.7503  0.1795  0.5936
10484TIP3    H252868   6.770   0.180  15.410  1.0169  0.5242 -1.5575
10485TIP3   OH252869   6.347   6.024   4.227 -0.1972  0.0546 -0.2920
10485TIP3    H152870   6.376   6.064   4.309 -0.2262  1.1957 -0.8253
10485TIP3    H252871   6.257   6.054   4.216 -0.0605  0.2281 -0.9502
10486TIP3   OH252872   1.713   6.291  12.446 -0.5387  0.5174  0.0703
10486TIP3    H152873   1.758   6.330  12.521  1.5752  0.0598 -0.8939
10486TIP3    H252874   1.694   6.364  12.388 -3.2539  1.0625  1.4525
10487TIP3   OH252875   6.650   0.158   3.002  0.1398 -0.7834  0.1637
10487TIP3    H152876   6.711   0.168   2.929  2.7322 -4.1818  1.5376
10487TIP3    H252877   6.583   0.098   2.970 -0.8158  0.5884 -0.4545
10488TIP3   OH252878   6.671   0.666   5.918  0.0496  0.3007  0.2450
10488TIP3    H152879   6.685   0.573   5.933  1.4475  0.2925 -0.8989
10488TIP3    H252880   6.578   0.674   5.900  0.1879 -1.1227 -1.2629
10489TIP3   OH252881   2.138   5.708  12.177  0.4809  0.2944  0.1357
10489TIP3    H152882   2.107   5.641  12.237  1.0963  1.4215  1.7768
10489TIP3    H252883   2.222   5.676  12.146 -0.3453 -0.8121 -1.0401
10490TIP3   OH252884   6.234   3.449   4.225  0.5231  0.2448  0.3666
10490TIP3    H152885   6.167   3.502   4.269  0.7113  0.0803  0.8542
10490TIP3    H252886   6.196   3.429   4.139 -0.2343 -0.1975  0.7936
10491TIP3   OH252887   2.560   3.784  11.967 -0.0607 -0.1388  0.0436
10491TIP3    H152888   2.466   3.786  11.983 -0.2289 -1.4074 -0.6730
10491TIP3    H252889   2.571   3.818  11.878  0.1141 -0.4816 -0.0665
10492TIP3   OH252890   1.852   0.995   5.729 -0.3639 -0.2341 -0.5297
10492TIP3    H152891   1.921   0.937   5.762  0.5726  2.3005  2.4584
10492TIP3    H252892   1.897   1.053   5.668 -0.1416  0.4713  0.2877
10493TIP3   OH252893   2.039   3.255   1.498 -0.2824  0.1767 -0.0888
10493TIP3    H152894   2.134   3.260   1.509 -0.3944  0.7430  0.7265
10493TIP3    H252895   2.026   3.252   1.403  0.5671 -0.4972 -0.1967
10494TIP3   OH252896   3.857   5.000  15.319  0.1300 -0.1411 -0.3879
10494TIP3    H152897   3.925   5.067  15.325 -1.6058  1.7737 -0.8332
10494TIP3    H252898   3.865   4.951  15.401  2.7974 -0.8106 -0.9650
10495TIP3   OH252899   1.976   3.224  11.976  0.4479  0.2359 -0.0615
10495TIP3    H152900   1.919   3.169  12.030  0.4732  0.9735  0.7333
10495TIP3    H252901   2.049   3.167  11.953  0.4149 -0.1103  0.6445
10496TIP3   OH252902   3.961   1.188   3.405  0.4191  0.3654 -0.5247
10496TIP3    H152903   3.964   1.115   3.344 -0.6049  0.9329 -1.2815
10496TIP3    H252904   4.037   1.242   3.381  0.2212  0.4062 -1.0823
10497TIP3   OH252905   5.647   0.497   0.911 -0.0640  0.2057 -0.0935
10497TIP3    H152906   5.583   0.507   0.982 -0.6803  1.9801 -0.8322
10497TIP3    H252907   5.731   0.494   0.956 -0.6197 -2.8734  0.9480
10498TIP3   OH252908   5.187   6.178  17.035 -0.4612 -0.2523 -0.0953
10498TIP3    H152909   5.119   6.113  17.052 -0.5576 -0.5081 -1.3349
10498TIP3    H252910   5.269   6.132  17.048 -0.4686  0.2278  2.0503
10499TIP3   OH252911   3.036   4.208   2.346  0.3323  0.6935 -0.0875
10499TIP3    H152912   2.979   4.284   2.353 -0.0680  0.5082 -1.1326
10499TIP3    H252913   2.999   4.144   2.408 -0.0929  0.8802 -0.1449
10500TIP3   OH252914   2.222   4.430  14.170 -0.4017  0.6845 -0.2503
10500TIP3    H152915   2.306   4.460  14.204 -1.2456 -0.0822  2.7595
10500TIP3    H252916   2.159   4.498  14.195 -1.5994 -1.3722  2.9121
10501TIP3   OH252917   5.862   6.246   1.660 -0.4436  0.2644  0.0906
10501TIP3    H152918   5.794   6.279   1.602 -0.5721  2.0392  1.1702
10501TIP3    H252919   5.912   6.324   1.685  2.3933 -1.0299 -1.1224
10502TIP3   OH252920   4.904   1.248   2.053  0.0293  0.0659  0.3336
10502TIP3    H152921   4.923   1.178   2.115 -1.0730 -2.1807 -1.6920
10502TIP3    H252922   4.971   1.314   2.069  2.3946 -2.3551  0.9961
10503TIP3   OH252923   6.653   0.511   2.780  0.1865 -0.4967 -0.5538
10503TIP3    H152924   6.639   0.562   2.860  1.4861  1.4686 -1.4963
10503TIP3    H252925   6.568   0.513   2.736 -0.6101 -1.8015  0.8254
10504TIP3   OH252926   3.782   6.315   2.762  0.2507 -0.3832  0.7036
10504TIP3    H152927   3.702   6.263   2.754 -0.2947  0.2872  1.5353
10504TIP3    H252928   3.774   6.383   2.695  0.4734 -0.7586  0.2979
10505TIP3   OH252929   4.250   5.344  15.840 -0.4438 -0.3656 -0.3440
10505TIP3    H152930   4.176   5.338  15.900  0.1568  1.4773  0.6658
10505TIP3    H252931   4.301   5.265  15.856 -1.4131 -0.9376  0.0034
10506TIP3   OH252932   0.537   4.493  15.786  0.1355  0.2761  0.2956
10506TIP3    H152933   0.475   4.421  15.772 -1.6550  1.4353  1.8019
10506TIP3    H252934   0.605   4.455  15.842  1.8447 -1.4781 -2.6940
10507TIP3   OH252935   6.083   3.728  12.288 -0.2432 -0.0415 -0.5029
10507TIP3    H152936   6.103   3.743  12.381 -0.7637 -1.9863 -0.0389
10507TIP3    H252937   6.169   3.728  12.245  0.2606 -1.6982  0.4151
10508TIP3   OH252938   6.239   6.509   5.489  0.2758  0.3199 -0.1191
10508TIP3    H152939   6.162   6.524   5.433  0.2920  0.3602 -0.1306
10508TIP3    H252940   6.295   6.452   5.436 -0.1162 -0.3912  0.2181
10509TIP3   OH252941   2.360   1.370  13.075  0.0141  0.0216  0.3613
10509TIP3    H152942   2.276   1.325  13.063  0.6567 -1.4373  1.0858
10509TIP3    H252943   2.423   1.317  13.026  0.4987  1.2488 -0.3922
10510TIP3   OH252944   2.411   1.817   1.274 -0.1952  0.5903  0.2495
10510TIP3    H152945   2.491   1.775   1.239 -0.6425  0.5623 -0.7834
10510TIP3    H252946   2.442   1.899   1.312  0.7422 -0.7177  2.5149
10511TIP3   OH252947   3.845   1.784   0.102  0.4189 -0.4301  0.3137
10511TIP3    H152948   3.803   1.777   0.016  1.4989 -1.1569 -0.1690
10511TIP3    H252949   3.927   1.736   0.093  1.6247  1.3711  1.0720
10512TIP3   OH252950   2.447   6.225  15.976  0.2307  0.0378  0.1846
10512TIP3    H152951   2.454   6.318  15.954 -1.4618  0.0487 -0.5052
10512TIP3    H252952   2.437   6.181  15.892  2.8134 -1.0245  0.3669
10513TIP3   OH252953   2.798   6.412  15.456 -0.7758  0.7287 -0.2115
10513TIP3    H152954   2.702   6.418  15.456 -0.7318  1.7797 -0.9576
10513TIP3    H252955   2.822   6.420  15.363  0.1427  2.8821  0.1573
10514TIP3   OH252956   3.839   2.562   6.498 -0.0490 -0.5069  0.5092
10514TIP3    H152957   3.760   2.603   6.464  0.3560 -0.2796 -0.1822
10514TIP3    H252958   3.911   2.617   6.466  0.3985 -0.7908  1.0036
10515TIP3   OH252959   0.786   5.948  16.003  0.0404 -0.3815  0.3420
10515TIP3    H152960   0.795   5.939  16.098 -0.3103 -0.3616  0.3806
10515TIP3    H252961   0.696   5.921  15.985 -0.9948  2.6388  0.4202
10516TIP3   OH252962   3.152   0.754  10.311 -0.5106 -0.2906 -0.0415
10516TIP3    H152963   3.125   0.832  10.262 -0.7604 -1.3810 -1.7220
10516TIP3    H252964   3.129   0.773  10.402 -2.0920  0.9246 -0.6579
10517TIP3   OH252965   0.638   5.239  14.816  0.3487 -0.2750 -0.4612
10517TIP3    H152966   0.574   5.283  14.871  0.2964 -0.0478 -0.7013
10517TIP3    H252967   0.720   5.243  14.866  0.1643 -0.6229 -0.1272
10518TIP3   OH252968   6.396   0.562  16.874 -0.0106 -0.7486  0.0488
10518TIP3    H152969   6.415   0.539  16.965  0.5742 -1.0678 -0.1457
10518TIP3    H252970   6.334   0.495  16.844  0.3795 -1.0910 -0.0077
10519TIP3   OH252971   6.542   3.058  12.887 -0.2409 -0.0571 -0.1528
10519TIP3    H152972   6.608   2.989  12.878 -0.4341 -0.2652  0.0349
10519TIP3    H252973   6.567   3.104  12.967 -0.4141 -0.2321  0.0008
10520TIP3   OH252974   2.312   3.816   5.362  0.4849  0.0294  0.1412
10520TIP3    H152975   2.348   3.755   5.426  0.8074 -1.5252 -1.4273
10520TIP3    H252976   2.222   3.833   5.392  1.2860  1.0997  2.1375
10521TIP3   OH252977   1.922   3.937  14.700  0.0119 -0.1679  0.3794
10521TIP3    H152978   1.831   3.915  14.722 -0.3077  0.1576 -0.5846
10521TIP3    H252979   1.966   3.943  14.785 -1.2156  1.1862  0.9548
10522TIP3   OH252980   0.166   5.900  13.992  0.1208  0.0329  0.6262
10522TIP3    H152981   0.184   5.993  13.977  1.1432 -0.4406 -1.5100
10522TIP3    H252982   0.168   5.861  13.905 -1.7241 -1.7848  1.3158
10523TIP3   OH252983   3.910   2.030   4.437  0.2410  0.4728  0.5692
10523TIP3    H152984   3.840   2.004   4.378  1.8168 -1.7729 -0.4366
10523TIP3    H252985   3.881   2.000   4.523 -0.7724  1.1623  0.4869
10524TIP3   OH252986   2.496   6.366   2.012  0.0575 -0.4405  0.1140
10524TIP3    H152987   2.441   6.409   2.077 -0.3141  0.1338 -0.5587
10524TIP3    H252988   2.571   6.333   2.061 -0.6689 -0.8515  0.9834
10525TIP3   OH252989   0.159   4.119   1.112 -0.8730  0.1156 -0.1478
10525TIP3    H152990   0.242   4.165   1.095  0.1396 -1.4667  0.2774
10525TIP3    H252991   0.145   4.128   1.206  0.1296 -1.6197  0.2186
10526TIP3   OH252992   2.312   2.279  11.274  0.3660 -0.1473 -0.3199
10526TIP3    H152993   2.234   2.331  11.294  1.1210  0.8640  0.1082
10526TIP3    H252994   2.323   2.222  11.350  0.1606 -0.1496 -0.2910
10527TIP3   OH252995   5.430   5.930   3.010 -0.2191  0.2803 -0.0254
10527TIP3    H152996   5.509   5.982   2.999 -0.6311  1.4124  1.9808
10527TIP3    H252997   5.392   5.925   2.922  1.2473  1.0606 -0.7304
10528TIP3   OH252998   5.345   0.327   0.182 -0.5820  0.0803 -0.1053
10528TIP3    H152999   5.365   0.234   0.179 -0.7560  0.0521 -0.5010
10528TIP3    H253000   5.372   0.355   0.270 -0.1289 -0.2473 -0.1370
10529TIP3   OH253001   1.800   2.361  12.621 -0.0296 -0.1769  0.0232
10529TIP3    H153002   1.760   2.352  12.534 -0.5830  2.8188 -0.1361
10529TIP3    H253003   1.746   2.306  12.678 -0.8375 -0.6824 -1.1956
10530TIP3   OH253004   5.556   5.921  13.715  0.2070  0.4214 -0.0641
10530TIP3    H153005   5.508   5.866  13.778  1.6358  0.7007  1.3318
10530TIP3    H253006   5.611   5.977  13.769  1.0801  1.0828 -1.5740
10531TIP3   OH253007   0.581   0.335  11.791  0.5373  0.3238  0.0308
10531TIP3    H153008   0.590   0.306  11.882  1.2761  1.0571  0.1978
10531TIP3    H253009   0.669   0.327  11.754 -0.1755 -2.1796 -1.3225
10532TIP3   OH253010   2.595   2.037   6.005 -0.3164 -0.2370 -0.1215
10532TIP3    H153011   2.674   2.043   6.058 -1.1569  1.3871  1.0523
10532TIP3    H253012   2.624   2.054   5.916  0.9130 -1.5770 -0.0180
10533TIP3   OH253013   3.725   6.215  17.008  0.2767 -0.3088 -0.5861
10533TIP3    H153014   3.798   6.256  16.962 -1.0524  1.4463 -1.2416
10533TIP3    H253015   3.731   6.249  17.098  0.8488 -0.9832 -0.3626
10534TIP3   OH253016   3.896   2.639   5.721 -0.4966 -0.0979  0.0574
10534TIP3    H153017   3.922   2.623   5.812 -1.9136 -1.3281  0.2886
10534TIP3    H253018   3.875   2.732   5.718  0.6448  0.2004  0.6884
10535TIP3   OH253019   2.354   1.178   0.487 -0.5946  0.4343  0.1715
10535TIP3    H153020   2.265   1.204   0.512 -1.1326  1.4203 -2.4037
10535TIP3    H253021   2.355   1.083   0.499 -2.6098  0.1548 -1.2577
10536TIP3   OH253022   5.155   6.595   2.587 -0.1563  0.4961 -0.2564
10536TIP3    H153023   5.089   6.535   2.623 -1.0185  1.4898 -0.1404
10536TIP3    H253024   5.189   6.549   2.510  0.6552 -1.0062  0.9337
10537TIP3   OH253025   1.203   6.417   4.095  0.1247  0.1139 -0.5630
10537TIP3    H153026   1.111   6.437   4.082  0.3550  1.2493 -0.5453
10537TIP3    H253027   1.210   6.399   4.189  0.1950  1.7416 -0.2152
10538TIP3   OH253028   2.250   4.919   0.804 -0.4221 -0.4946 -0.1592
10538TIP3    H153029   2.197   4.879   0.873  0.9813 -0.1710  1.1541
10538TIP3    H253030   2.268   5.008   0.835  0.1230 -0.2889 -1.0097
10539TIP3   OH253031   3.093   4.130   5.516  0.2822  0.1871 -0.5932
10539TIP3    H153032   3.179   4.155   5.484  1.0467 -0.5555  0.7754
10539TIP3    H253033   3.095   4.152   5.609 -0.9155 -0.0731 -0.4922
10540TIP3   OH253034   6.469   4.303  13.099 -0.6715  0.1899  0.4999
10540TIP3    H153035   6.424   4.387  13.107  0.5801  0.9758 -0.4561
10540TIP3    H253036   6.490   4.279  13.190 -3.3084 -0.4356  1.0446
10541TIP3   OH253037   4.290   0.105  14.578  0.5195  0.0375  0.3129
10541TIP3    H153038   4.212   0.161  14.581 -0.0301 -0.5734 -1.1699
10541TIP3    H253039   4.283   0.060  14.494  0.7344 -2.5546  1.5988
10542TIP3   OH253040   1.957   6.147   1.523  0.4529 -0.0091  0.4253
10542TIP3    H153041   1.956   6.109   1.611 -1.1111 -0.7098  0.1311
10542TIP3    H253042   1.893   6.217   1.526  2.0366  1.5114  0.4480
10543TIP3   OH253043   4.809   1.605   0.167 -0.4815  0.1511 -0.1907
10543TIP3    H153044   4.751   1.530   0.154  0.0170 -0.3374  0.3389
10543TIP3    H253045   4.751   1.678   0.187 -1.0866  0.2597 -2.1148
10544TIP3   OH253046   4.745   2.279  16.244  0.3756  0.4982  0.5289
10544TIP3    H153047   4.764   2.365  16.208 -0.1718  0.7931  0.9347
10544TIP3    H253048   4.651   2.281  16.265 -0.0025 -0.7235 -0.8763
10545TIP3   OH253049   1.924   1.816  14.212  0.0715  0.2369  0.4437
10545TIP3    H153050   1.952   1.893  14.162 -1.1136  1.4559  1.5551
10545TIP3    H253051   1.996   1.754  14.204  0.6113  1.0320 -1.3802
10546TIP3   OH253052   6.204   4.830  13.231  0.0832  0.1644 -0.0110
10546TIP3    H153053   6.154   4.766  13.281 -1.9326  1.9183  0.3686
10546TIP3    H253054   6.274   4.857  13.290 -0.2772 -0.1984  0.5994
10547TIP3   OH253055   4.283   1.430  10.646 -0.1649 -0.0172  0.0917
10547TIP3    H153056   4.263   1.485  10.722  1.1338  3.1189 -1.6341
10547TIP3    H253057   4.378   1.421  10.646 -0.1047  0.2923 -1.2655
10548TIP3   OH253058   1.957   5.644  10.770 -0.2872  0.9777  0.3670
10548TIP3    H153059   1.942   5.580  10.839  0.5219  1.0291  0.6098
10548TIP3    H253060   1.904   5.613  10.696 -1.1271  0.9011  0.9873
10549TIP3   OH253061   2.517   0.459  15.029  0.4835  0.3378  0.3778
10549TIP3    H153062   2.473   0.491  14.950 -0.6856  0.1466  0.9372
10549TIP3    H253063   2.464   0.492  15.101  0.3850 -1.1764  1.0266
10550TIP3   OH253064   3.734   0.105  16.939 -0.3757 -0.1768 -0.4419
10550TIP3    H153065   3.820   0.146  16.944  0.0097 -0.3463 -3.4284
10550TIP3    H253066   3.751   0.018  16.902 -1.6435 -1.2000  1.2041
10551TIP3   OH253067   0.049   1.465  14.194  0.2590 -0.3447 -0.7265
10551TIP3    H153068  -0.025   1.465  14.254  0.1337  2.1283 -0.7627
10551TIP3    H253069   0.012   1.437  14.110 -1.0217  1.9801 -1.0355
10552TIP3   OH253070   4.810   6.086  13.353  0.2462 -0.1080 -0.6681
10552TIP3    H153071   4.848   6.166  13.389 -1.8380  0.8101 -0.4004
10552TIP3    H253072   4.861   6.068  13.274  0.8380  1.3970 -0.6458
10553TIP3   OH253073   2.028   2.791  14.257  0.1391  0.0395  0.2385
10553TIP3    H153074   2.093   2.728  14.287  0.9638  0.3442 -0.8180
10553TIP3    H253075   2.050   2.872  14.302 -1.9438 -0.7569  2.8894
10554TIP3   OH253076   0.535   1.616   1.625  0.2454  0.3622 -0.1797
10554TIP3    H153077   0.589   1.584   1.697  1.3422  1.7266 -0.3520
10554TIP3    H253078   0.534   1.711   1.636  0.3521  0.5980 -1.8774
10555TIP3   OH253079   4.277   5.320   2.661 -0.1413 -0.0131  0.6008
10555TIP3    H153080   4.215   5.299   2.732  1.3627 -0.0501  1.9700
10555TIP3    H253081   4.224   5.365   2.596 -1.6295 -0.1102  1.6805
10556TIP3   OH253082   5.080   3.475   3.117 -0.0375  0.2897 -0.2501
10556TIP3    H153083   5.125   3.407   3.068 -1.6756 -0.3953 -0.8648
10556TIP3    H253084   5.142   3.500   3.186  1.0880 -0.9013 -0.7866
10557TIP3   OH253085   3.374   4.579   2.391  0.5195 -0.3511  0.1405
10557TIP3    H153086   3.406   4.610   2.307 -1.0005 -1.1125 -0.7704
10557TIP3    H253087   3.376   4.483   2.383  0.1139 -0.4274  0.8602
10558TIP3   OH253088   2.706   4.897   4.226 -0.2701  0.3546  0.2027
10558TIP3    H153089   2.738   4.983   4.197  2.3590 -0.5213  0.2795
10558TIP3    H253090   2.614   4.912   4.248 -1.1790  2.1769 -3.8837
10559TIP3   OH253091   5.943   2.596  12.225 -0.1937 -0.4623 -0.3201
10559TIP3    H153092   5.942   2.565  12.134 -0.6919 -1.1784 -0.0785
10559TIP3    H253093   5.865   2.557  12.264  0.0337 -0.1790  0.4253
10560TIP3   OH253094   0.322   0.959  12.307  0.0503  0.0238 -0.2219
10560TIP3    H153095   0.300   0.923  12.393  0.6564 -1.4465 -0.6353
10560TIP3    H253096   0.254   0.925  12.249 -2.4945  3.8679  0.1390
10561TIP3   OH253097   2.531   2.037   1.397 -1.0027  0.4763  0.2566
10561TIP3    H153098   2.591   1.984   1.450 -1.1522 -1.1841 -1.1315
10561TIP3    H253099   2.490   2.096   1.460  0.1412 -0.1521  1.6799
10562TIP3   OH253100   4.601   5.721   9.938 -0.1177 -0.0459 -0.2966
10562TIP3    H153101   4.643   5.803   9.912  2.8789 -1.1366  0.6634
10562TIP3    H253102   4.655   5.689  10.010 -2.5096 -1.8002  0.8227
10563TIP3   OH253103   4.263   6.164   1.395 -0.0970  0.2200  0.1603
10563TIP3    H153104   4.227   6.178   1.307  1.6282  1.7101 -0.3836
10563TIP3    H253105   4.290   6.251   1.423  1.8791 -0.6098  1.0100
10564TIP3   OH253106   5.141   0.280   2.322  0.0958  0.3487  0.1539
10564TIP3    H153107   5.123   0.321   2.406 -0.6376  0.9506 -0.2867
10564TIP3    H253108   5.187   0.199   2.344 -0.4795  0.2811  1.1551
10565TIP3   OH253109   5.328   2.015   1.092  0.5164 -0.6672 -0.8091
10565TIP3    H153110   5.381   1.935   1.094  2.6432  0.6515 -1.5575
10565TIP3    H253111   5.387   2.082   1.057 -1.3644  1.1259 -0.7033
10566TIP3   OH253112   2.830   0.564  16.916  0.4503  0.0270  0.4108
10566TIP3    H153113   2.840   0.627  16.845  1.0610 -1.2177 -0.6529
10566TIP3    H253114   2.912   0.570  16.965  1.2958 -1.1484 -0.7571
10567TIP3   OH253115   4.710   1.085  12.151  0.1275 -0.1769 -0.1931
10567TIP3    H153116   4.701   1.168  12.198 -0.0421  0.3195 -1.0661
10567TIP3    H253117   4.754   1.109  12.069 -0.0831 -0.9208 -0.5346
10568TIP3   OH253118   3.270   4.334   3.886 -0.4109 -0.3261  0.0648
10568TIP3    H153119   3.263   4.428   3.873 -1.0181 -0.5971 -1.9982
10568TIP3    H253120   3.352   4.321   3.933 -0.0303  1.1830 -0.1527
10569TIP3   OH253121   4.460   6.729  16.925  0.1534 -0.5507  0.2579
10569TIP3    H153122   4.403   6.788  16.975  0.9197 -0.1725  0.7066
10569TIP3    H253123   4.472   6.773  16.841  2.8916  1.3864  1.4876
10570TIP3   OH253124   1.033   4.832   5.621 -0.1723 -0.1406 -0.7233
10570TIP3    H153125   1.113   4.795   5.583  0.9827  2.6035 -1.2480
10570TIP3    H253126   0.969   4.831   5.550  0.7498  1.3587 -1.6369
10571TIP3   OH253127   4.120   1.487  16.257  0.5911 -0.4508 -0.4403
10571TIP3    H153128   4.147   1.548  16.326  0.1954  1.5721 -1.9719
10571TIP3    H253129   4.200   1.442  16.232  1.7917  2.2029 -1.8233
10572TIP3   OH253130   1.761   6.081  13.631 -0.0136  0.2872 -0.4011
10572TIP3    H153131   1.671   6.061  13.656 -0.3427  0.0308 -1.6784
10572TIP3    H253132   1.803   6.110  13.711 -0.7988 -1.1035  0.5628
10573TIP3   OH253133   1.365   2.571  14.937  0.1598 -0.1023 -0.1297
10573TIP3    H153134   1.426   2.525  14.879  0.3180 -0.6907  0.4938
10573TIP3    H253135   1.368   2.522  15.019 -0.4064  0.4531  0.2318
10574TIP3   OH253136   1.330   5.240  15.825 -0.3829 -0.3216  0.7577
10574TIP3    H153137   1.404   5.229  15.764 -1.4141  0.4956 -0.7099
10574TIP3    H253138   1.327   5.334  15.842  0.6834 -0.6612  3.1866
10575TIP3   OH253139   5.465   3.772   1.098  0.6095  0.9051 -0.3346
10575TIP3    H153140   5.502   3.716   1.166  1.3160 -0.1971 -1.5855
10575TIP3    H253141   5.491   3.861   1.124  0.0273  0.6218  1.3224
10576TIP3   OH253142   3.231   0.416  15.106  0.1239  0.1498 -0.2962
10576TIP3    H153143   3.206   0.469  15.182  0.5317 -1.1119  0.7543
10576TIP3    H253144   3.153   0.364  15.087  0.2358 -0.0104 -0.3172
10577TIP3   OH253145   1.065   2.992   5.285 -0.0886  0.1228 -0.1425
10577TIP3    H153146   1.036   3.079   5.257  1.7075  2.0967  3.4722
10577TIP3    H253147   0.983   2.942   5.294 -1.1699  1.3391 -2.3637
10578TIP3   OH253148   3.093   0.501  15.782 -0.2569  0.5163  0.9147
10578TIP3    H153149   3.043   0.508  15.864  0.0709  1.2726  1.0587
10578TIP3    H253150   3.038   0.544  15.717 -0.6852 -0.4083  0.6449
10579TIP3   OH253151   6.091   5.423  16.839 -0.6980  0.3566  0.4985
10579TIP3    H153152   6.098   5.472  16.921  0.9962  0.0145  0.5876
10579TIP3    H253153   6.179   5.388  16.824 -1.4814 -1.3460 -0.3842
10580TIP3   OH253154   6.110   6.749  11.678 -0.2768 -0.5310 -0.0753
10580TIP3    H153155   6.152   6.717  11.599 -1.7041 -0.7504 -0.7848
10580TIP3    H253156   6.124   6.680  11.743 -2.4493 -2.2746 -1.2984
10581TIP3   OH253157   3.915   6.005   1.643 -0.3068  0.1586 -0.1385
10581TIP3    H153158   3.854   6.025   1.572 -1.4004 -1.3017  0.3269
10581TIP3    H253159   3.974   5.940   1.607 -0.2878  0.0956  0.0060
10582TIP3   OH253160   6.540   0.226   1.354  0.2816  0.4545 -0.6441
10582TIP3    H153161   6.590   0.283   1.411  0.4761  0.2036 -0.5596
10582TIP3    H253162   6.562   0.254   1.265  0.5983  0.3285 -0.6087
10583TIP3   OH253163   2.120   4.045  12.298  0.0772 -0.2869  0.1216
10583TIP3    H153164   2.130   4.139  12.281 -0.4907 -0.3702 -0.7179
10583TIP3    H253165   2.057   4.041  12.370  0.5330 -0.0152  0.5465
10584TIP3   OH253166   1.706   2.292   0.264  0.0705 -0.2047 -0.2328
10584TIP3    H153167   1.779   2.230   0.253  0.8476  0.3861  1.3149
10584TIP3    H253168   1.741   2.360   0.322 -1.7367  0.0724  0.5977
10585TIP3   OH253169   5.820   3.258  13.080 -0.3502 -0.3751 -0.7139
10585TIP3    H153170   5.800   3.231  13.169 -0.3528  0.3803 -0.4805
10585TIP3    H253171   5.904   3.215  13.060  1.1846  1.7440  0.7363
10586TIP3   OH253172   3.912   6.018  12.563  0.5495 -0.1819 -0.2721
10586TIP3    H153173   3.953   6.098  12.532  0.2717  0.0662 -0.0121
10586TIP3    H253174   3.985   5.956  12.575  0.5809 -0.5900 -2.2401
10587TIP3   OH253175   1.236   0.412   1.988  0.3552  0.2465  0.3238
10587TIP3    H153176   1.170   0.372   1.931  1.4747  3.4003 -3.5911
10587TIP3    H253177   1.212   0.504   1.992  2.7595  0.9014  1.4393
10588TIP3   OH253178   3.632   1.862   0.464 -0.1156  0.3195  0.5474
10588TIP3    H153179   3.693   1.791   0.484 -0.8180 -0.1479  1.0550
10588TIP3    H253180   3.558   1.847   0.522 -0.0852  1.7260  0.9708
10589TIP3   OH253181   0.063   0.397   4.637 -0.3454 -0.4214  0.4048
10589TIP3    H153182   0.017   0.349   4.568  0.4973  0.8731 -1.1310
10589TIP3    H253183   0.140   0.343   4.657 -0.8689 -1.0582  0.7203
10590TIP3   OH253184   6.133   2.643   0.750  0.5576  0.2913 -0.5119
10590TIP3    H153185   6.163   2.611   0.835 -0.5511 -0.2711 -0.3036
10590TIP3    H253186   6.166   2.579   0.687  1.2969  0.6539 -0.4994
10591TIP3   OH253187   1.477   6.776   4.753  0.2540 -0.0747  0.0904
10591TIP3    H153188   1.537   6.846   4.728  0.4802 -0.7470 -1.4125
10591TIP3    H253189   1.534   6.702   4.772 -0.0010 -1.2497 -3.0198
10592TIP3   OH253190   6.655   3.066   2.312 -0.0503 -0.2425 -0.2617
10592TIP3    H153191   6.613   3.028   2.388 -1.3579  0.3704 -0.6422
10592TIP3    H253192   6.737   3.018   2.302  0.5849  0.2548  2.0428
10593TIP3   OH253193   5.384   3.089  11.537  0.4133 -0.5595 -0.1708
10593TIP3    H153194   5.324   3.114  11.466  0.7789  1.1114  0.0641
10593TIP3    H253195   5.333   3.103  11.617  1.4742  2.3138  0.1249
10594TIP3   OH253196   5.218   2.001  10.856  0.4839 -0.0471 -0.1334
10594TIP3    H153197   5.124   1.987  10.865  0.3951  0.9424  0.7047
10594TIP3    H253198   5.227   2.094  10.837  1.0153 -0.9550 -6.0166
10595TIP3   OH253199   2.268   6.285  14.049 -0.4775  0.4089  0.4871
10595TIP3    H153200   2.352   6.331  14.057 -0.1005 -0.2688  0.4655
10595TIP3    H253201   2.284   6.217  13.984 -0.6376 -0.6191  1.5008
10596TIP3   OH253202   0.466   3.798  12.086  0.0768  0.3347  0.5143
10596TIP3    H153203   0.415   3.825  12.010 -1.4687 -1.4545  0.8395
10596TIP3    H253204   0.476   3.878  12.138  0.7202  1.4702 -1.2764
10597TIP3   OH253205   1.053   1.969  10.793 -0.0557  0.2251 -0.0946
10597TIP3    H153206   0.976   2.018  10.765 -0.1507 -0.6356 -1.4544
10597TIP3    H253207   1.043   1.960  10.888 -1.9533 -0.4064 -0.3196
10598TIP3   OH253208   4.109   5.289  13.076 -0.1843 -0.3820 -0.3628
10598TIP3    H153209   4.109   5.364  13.017 -0.6054  0.1016  0.2460
10598TIP3    H253210   4.034   5.303  13.133 -0.5828 -1.5339 -0.5694
10599TIP3   OH253211   3.884   6.713   4.727  0.0550  0.6320 -0.3546
10599TIP3    H153212   3.979   6.707   4.733 -0.0030  0.8101  0.8916
10599TIP3    H253213   3.860   6.782   4.790 -1.0179 -0.4004  0.4095
10600TIP3   OH253214   5.904   1.696   0.993  0.1851 -0.4470  0.4433
10600TIP3    H153215   5.966   1.763   0.964 -1.1540  0.8308  0.4070
10600TIP3    H253216   5.892   1.713   1.087 -0.1725 -0.6013  0.4290
10601TIP3   OH253217   5.001   0.775   4.012 -0.5135 -0.3019  0.2316
10601TIP3    H153218   4.943   0.713   4.057  0.4511 -0.2945  1.5459
10601TIP3    H253219   4.985   0.759   3.919 -1.8692 -0.9974  0.5545
10602TIP3   OH253220   6.135   5.695  15.802  0.0573 -0.7320 -0.0705
10602TIP3    H153221   6.047   5.733  15.803 -0.7697 -2.3673 -2.4228
10602TIP3    H253222   6.187   5.755  15.854 -2.1211  1.1476  0.1067
10603TIP3   OH253223   5.935   5.566  12.985 -0.6123 -0.0012  0.4929
10603TIP3    H153224   5.986   5.553  12.905  0.6077  0.4176  1.1606
10603TIP3    H253225   5.902   5.480  13.007 -0.6913 -0.1784 -0.2877
10604TIP3   OH253226   2.064   5.342  15.551  0.1439 -0.7386  0.1251
10604TIP3    H153227   2.118   5.389  15.614 -0.9253 -2.7850  2.7701
10604TIP3    H253228   2.101   5.254  15.548 -1.3076 -1.3694 -0.2236
10605TIP3   OH253229   5.492   3.891  15.432 -0.3162 -0.2719 -0.0226
10605TIP3    H153230   5.529   3.805  15.408 -0.8753 -0.7015  0.6273
10605TIP3    H253231   5.422   3.905  15.368  0.6815  0.3745 -1.0260
10606TIP3   OH253232   4.442   5.782   2.989 -0.2707  0.3253 -0.3177
10606TIP3    H153233   4.463   5.742   3.073  1.2031  0.4309 -0.6060
10606TIP3    H253234   4.501   5.857   2.983  2.2936 -1.6791 -2.9592
10607TIP3   OH253235   3.936   4.243  13.815 -0.2587  0.0595 -0.3901
10607TIP3    H153236   3.919   4.258  13.722 -0.9229  2.5418  0.0557
10607TIP3    H253237   4.015   4.294  13.833  0.2575 -0.9427  0.3003
10608TIP3   OH253238   4.917   6.402   2.649 -0.2981 -0.3159 -0.3434
10608TIP3    H153239   4.832   6.397   2.605 -0.3829  2.0194 -0.6247
10608TIP3    H253240   4.899   6.378   2.740 -0.9203 -1.3631 -0.7237
10609TIP3   OH253241   2.946   1.436  15.619 -0.0371 -0.5087  0.0695
10609TIP3    H153242   3.035   1.424  15.585 -0.5567 -3.0828 -0.6021
10609TIP3    H253243   2.898   1.474  15.545  0.7514  2.5158  0.9465
10610TIP3   OH253244   6.168   4.870  10.416  0.1323  0.1531  0.1518
10610TIP3    H153245   6.208   4.935  10.475 -2.5052  1.2564  0.8758
10610TIP3    H253246   6.242   4.830  10.371  2.0717  1.4711  1.9624
10611TIP3   OH253247   1.700   3.148   1.187 -0.1502  0.7908  0.1738
10611TIP3    H153248   1.675   3.114   1.273  0.8055  0.4093  0.3092
10611TIP3    H253249   1.693   3.073   1.128 -1.3349  1.1721 -0.2184
10612TIP3   OH253250   6.418   0.510   2.589  0.0887 -0.2485 -0.3997
10612TIP3    H153251   6.365   0.499   2.510 -0.2950 -0.9016 -0.0594
10612TIP3    H253252   6.390   0.594   2.625 -0.2775 -0.3030 -0.5538
10613TIP3   OH253253   3.791   6.076   2.563 -0.2425 -0.3119 -0.3795
10613TIP3    H153254   3.816   6.032   2.482 -0.8347 -0.6197 -0.3980
10613TIP3    H253255   3.805   6.169   2.546 -2.7325 -0.1125 -1.7242
10614TIP3   OH253256   6.570   5.722   4.216 -0.2058 -0.3536 -0.5207
10614TIP3    H153257   6.495   5.731   4.158 -0.3602 -3.0210 -0.8923
10614TIP3    H253258   6.630   5.664   4.168  1.0192 -0.1855  0.7431
10615TIP3   OH253259   3.255   5.164   0.756  0.8594 -0.3582  0.0954
10615TIP3    H153260   3.164   5.142   0.772  0.2246  2.5089  1.1782
10615TIP3    H253261   3.303   5.122   0.828  0.3910 -1.6743 -0.3369
10616TIP3   OH253262   0.065   0.752   2.129 -0.1853  0.2043  0.7435
10616TIP3    H153263   0.046   0.819   2.064 -0.3213 -1.3389 -0.9096
10616TIP3    H253264   0.149   0.777   2.166  0.5116  0.5378 -0.9393
10617TIP3   OH253265   6.180   4.314   0.344  0.1261  0.8991  0.1806
10617TIP3    H153266   6.169   4.320   0.249  0.0655  1.0680  0.1991
10617TIP3    H253267   6.274   4.318   0.358  0.4405 -2.5218 -0.1349
10618TIP3   OH253268   0.950   3.178   3.923 -0.1136  0.0769  0.1333
10618TIP3    H153269   0.984   3.258   3.962 -0.1272  0.8180 -1.2928
10618TIP3    H253270   1.028   3.126   3.901 -0.1241 -1.3622  2.9993
10619TIP3   OH253271   1.503   3.801  13.114 -0.1387 -0.4311 -0.6472
10619TIP3    H153272   1.475   3.892  13.101  0.4857 -0.4591 -2.5074
10619TIP3    H253273   1.586   3.808  13.162 -0.3087 -0.0497 -0.4028
10620TIP3   OH253274   4.455   4.785   0.320 -0.0323 -0.4345 -0.2981
10620TIP3    H153275   4.385   4.785   0.254 -0.4538 -0.4820  0.1425
10620TIP3    H253276   4.409   4.771   0.403  0.0818  2.7882  0.4367
10621TIP3   OH253277   0.249   6.639   5.483  0.3895  0.3545  0.1150
10621TIP3    H153278   0.322   6.635   5.546  2.0256  1.8269 -1.5507
10621TIP3    H253279   0.290   6.621   5.398 -1.7828 -1.7795 -0.6025
10622TIP3   OH253280   4.172   2.970  13.489 -0.0461  0.6878 -0.0687
10622TIP3    H153281   4.131   3.055  13.509 -0.2135  0.1061  2.4894
10622TIP3    H253282   4.266   2.987  13.495  0.0059  1.1033 -1.6683
10623TIP3   OH253283   0.127   1.054  16.606 -0.2241 -0.0636  0.0173
10623TIP3    H153284   0.141   1.131  16.551 -1.8128 -1.7133 -2.9895
10623TIP3    H253285   0.214   1.035  16.643  0.9085  1.3548 -1.7442
10624TIP3   OH253286   3.619   1.669  11.614  0.2103 -0.5088 -0.5804
10624TIP3    H153287   3.639   1.697  11.525 -0.0100 -2.5110 -1.2913
10624TIP3    H253288   3.525   1.653  11.614 -0.1952  1.4547  0.6344
10625TIP3   OH253289   3.210   1.916  14.036  0.1083 -0.6085 -0.0440
10625TIP3    H153290   3.259   1.941  13.958  0.5606 -0.3156  0.3246
10625TIP3    H253291   3.208   1.821  14.034  0.5340 -0.6178 -0.1639
10626TIP3   OH253292   6.197   6.121   5.370  0.3600  0.3730  0.6117
10626TIP3    H153293   6.276   6.147   5.324  0.2272 -0.5694 -0.1817
10626TIP3    H253294   6.135   6.097   5.300 -1.3393  2.9238  1.0912
10627TIP3   OH253295   4.364   1.411  14.599 -0.4544 -0.0811 -0.6067
10627TIP3    H153296   4.348   1.317  14.604 -0.7202 -0.0282 -0.4221
10627TIP3    H253297   4.446   1.420  14.550  0.3676 -0.4767  0.6426
10628TIP3   OH253298   4.209   5.983  12.739  0.3928 -0.1941 -0.2919
10628TIP3    H153299   4.255   5.968  12.822 -3.8083  0.0818  2.4511
10628TIP3    H253300   4.229   6.074  12.717 -0.4605  0.6597  2.0804
10629TIP3   OH253301   4.240   3.619   4.774 -0.3931  0.1804 -0.2852
10629TIP3    H153302   4.237   3.624   4.678 -0.8333 -0.0554 -0.2869
10629TIP3    H253303   4.331   3.639   4.796 -0.1106 -0.5043 -0.8001
10630TIP3   OH253304   5.884   1.613   1.441  0.2177 -0.3010 -0.7380
10630TIP3    H153305   5.898   1.539   1.500  2.0811  0.8025  0.3255
10630TIP3    H253306   5.966   1.621   1.393  0.6181  1.8676  0.1748
10631TIP3   OH253307   1.456   4.774  14.201 -0.2745 -0.6576  0.7062
10631TIP3    H153308   1.539   4.732  14.226 -0.0737 -0.0914  1.0019
10631TIP3    H253309   1.454   4.766  14.106 -1.2038 -3.1277  0.8511
10632TIP3   OH253310   0.244   0.418   3.311 -0.1665  0.1934 -0.2011
10632TIP3    H153311   0.150   0.415   3.290  0.0825  1.0288 -1.6047
10632TIP3    H253312   0.280   0.479   3.246  1.3599 -0.1620  0.2848
10633TIP3   OH253313   1.730   6.268  14.038 -0.2807 -0.0251  0.1295
10633TIP3    H153314   1.755   6.330  14.106  0.3103 -0.7952  0.6398
10633TIP3    H253315   1.807   6.211  14.029  0.6577  1.5431 -2.9434
10634TIP3   OH253316   6.342   4.972  15.413 -0.0166  0.4342  1.0101
10634TIP3    H153317   6.358   4.912  15.341 -3.4288  1.5281 -0.8738
10634TIP3    H253318   6.264   4.937  15.457 -0.4735  2.0235  1.5342
10635TIP3   OH253319   1.046   1.565  12.867  0.0764 -0.3903 -0.5968
10635TIP3    H153320   1.052   1.520  12.951 -2.4297 -0.4547 -0.3729
10635TIP3    H253321   0.979   1.516  12.819 -2.7498  2.9003 -0.3971
10636TIP3   OH253322   3.058   6.477   1.412 -0.2161 -0.3863 -1.2969
10636TIP3    H153323   3.002   6.551   1.391  0.0577  0.9175  2.0239
10636TIP3    H253324   3.027   6.407   1.354 -2.0129  1.6127 -2.9418
10637TIP3   OH253325   2.324   5.187  14.066  0.3853 -0.0456 -0.3209
10637TIP3    H153326   2.245   5.237  14.088  0.6644  0.5232 -0.5850
10637TIP3    H253327   2.316   5.168  13.973  0.2322 -0.5948 -0.2008
10638TIP3   OH253328   5.960   2.386  14.196  0.3637 -0.1626  0.6880
10638TIP3    H153329   6.051   2.414  14.187  0.3544 -0.1925  0.4754
10638TIP3    H253330   5.945   2.331  14.119 -0.2107  0.8537  0.0590
10639TIP3   OH253331   2.963   2.591  16.477  0.3458  0.5312 -0.0915
10639TIP3    H153332   2.907   2.534  16.425  0.3430 -1.0595  1.5570
10639TIP3    H253333   3.040   2.606  16.423  0.0641 -0.5300 -0.8070
10640TIP3   OH253334   2.219   4.621   0.564 -0.1567 -0.3617  0.1291
10640TIP3    H153335   2.195   4.529   0.576  0.5149 -0.2909  2.8678
10640TIP3    H253336   2.263   4.644   0.646  0.2763  2.2345 -0.7523
10641TIP3   OH253337   6.045   0.005   0.520  0.5976  0.0044  0.6574
10641TIP3    H153338   5.975   0.023   0.583 -0.3780  1.5844 -0.8005
10641TIP3    H253339   6.116   0.063   0.546 -0.8809  2.9171 -1.3307
10642TIP3   OH253340   2.094   6.524  16.419 -0.0944  0.5451  0.2629
10642TIP3    H153341   2.084   6.499  16.511 -0.5047  1.2302  0.4126
10642TIP3    H253342   2.083   6.442  16.371  0.8916  0.0421  0.8595
10643TIP3   OH253343   4.529   3.789   0.025 -0.1174 -0.4992  0.4076
10643TIP3    H153344   4.539   3.711  -0.030  1.1136  0.3195 -0.5775
10643TIP3    H253345   4.464   3.843  -0.021  0.9110  0.1843 -0.2755
10644TIP3   OH253346   4.692   4.731  15.982 -0.2140  0.0265 -0.4866
10644TIP3    H153347   4.711   4.772  15.897 -0.7306  1.9732  0.2798
10644TIP3    H253348   4.662   4.803  16.037 -1.1510 -1.4221  0.9875
10645TIP3   OH253349   5.044   1.329   4.303 -0.3514 -0.0449 -0.2841
10645TIP3    H153350   5.105   1.256   4.292 -1.4789 -1.1059  0.2834
10645TIP3    H253351   5.078   1.379   4.378 -0.2219 -0.6621  0.0699
10646TIP3   OH253352   6.191   2.468   4.888 -0.7832 -0.2593 -0.2398
10646TIP3    H153353   6.250   2.412   4.937 -0.8593 -0.1218  0.0103
10646TIP3    H253354   6.177   2.422   4.805  1.0743  0.5512 -1.0545
10647TIP3   OH253355   5.859   3.434   5.024 -0.2030 -0.4701  0.0817
10647TIP3    H153356   5.840   3.370   5.093 -0.1493  0.8770  1.4021
10647TIP3    H253357   5.910   3.502   5.068 -1.4433  1.1895 -0.9345
10648TIP3   OH253358   4.670   2.507   0.915  0.5059 -0.6883  0.1328
10648TIP3    H153359   4.681   2.561   0.993  0.7577 -0.9304  0.2718
10648TIP3    H253360   4.745   2.447   0.917  1.8693  0.8328 -1.5455
10649TIP3   OH253361   0.491   1.967  14.103  0.0902 -0.1739  0.0741
10649TIP3    H153362   0.502   1.968  14.198 -1.3921  1.8382  0.2862
10649TIP3    H253363   0.547   2.039  14.072  1.2890 -1.3969 -0.7109
10650TIP3   OH253364   6.666   6.771   5.292  0.5605 -0.5825 -0.0681
10650TIP3    H153365   6.695   6.689   5.331  0.4016 -0.9382 -0.6883
10650TIP3    H253366   6.745   6.823   5.282  0.7237 -0.8314 -0.0730
10651TIP3   OH253367   3.310   2.957   0.538  0.4189  0.8340  0.3211
10651TIP3    H153368   3.269   2.910   0.465  0.5555  0.6856  0.3403
10651TIP3    H253369   3.280   3.048   0.528 -0.5985  0.5729  0.8148
10652TIP3   OH253370   6.016   0.992   5.332  0.2134 -0.0789  0.0296
10652TIP3    H153371   5.952   0.988   5.261  0.5448  1.3347 -0.3682
10652TIP3    H253372   6.026   1.085   5.350  3.1254 -0.1536 -0.7804
10653TIP3   OH253373   3.953   3.263  16.715 -0.2431  0.9021 -0.1778
10653TIP3    H153374   3.923   3.195  16.655 -1.0417  1.7483 -0.7774
10653TIP3    H253375   3.928   3.231  16.802 -0.9376  0.5835 -0.4811
10654TIP3   OH253376   5.171   5.067   5.047 -0.1849  0.0919 -0.2025
10654TIP3    H153377   5.179   5.082   5.141 -0.6618 -0.4057 -0.0783
10654TIP3    H253378   5.078   5.049   5.033 -0.0810 -0.0472 -0.7367
10655TIP3   OH253379   4.910   6.200  10.199  0.4446 -0.0789  0.1074
10655TIP3    H153380   4.983   6.154  10.157 -0.5239 -0.2306 -1.5023
10655TIP3    H253381   4.918   6.290  10.169  0.4867  0.1017  0.6597
10656TIP3   OH253382   5.452   3.511   6.714 -0.1300  0.1497 -0.1062
10656TIP3    H153383   5.467   3.475   6.801  5.0874 -2.8018 -1.7260
10656TIP3    H253384   5.511   3.586   6.709  0.7921 -0.6107 -1.3961
10657TIP3   OH253385   6.768   6.596   5.478  0.1311  0.4131 -0.1040
10657TIP3    H153386   6.861   6.578   5.489  0.2363  1.2739  0.5280
10657TIP3    H253387   6.728   6.510   5.465  1.1639  0.1317 -1.6284
10658TIP3   OH253388   3.586   1.154   5.600  0.0381 -0.3105  0.3628
10658TIP3    H153389   3.608   1.112   5.683 -2.9899 -0.4530  1.2288
10658TIP3    H253390   3.657   1.130   5.541  2.0251 -0.6435  2.7510
10659TIP3   OH253391   5.132   3.154   4.971 -0.2240  0.7616 -0.5223
10659TIP3    H153392   5.227   3.157   4.966 -0.2411  0.2845 -1.2066
10659TIP3    H253393   5.114   3.114   5.056  0.2004  0.0508 -0.7600
10660TIP3   OH253394   0.819   2.234   4.624  0.4538 -0.0192  0.0646
10660TIP3    H153395   0.750   2.194   4.572 -0.5636  1.0949  0.5030
10660TIP3    H253396   0.864   2.293   4.564  3.1162 -2.9457 -1.0804
10661TIP3   OH253397   4.106   4.266  15.873  0.0823 -0.2326 -0.2855
10661TIP3    H153398   4.048   4.341  15.888  1.0462  0.1131  2.1350
10661TIP3    H253399   4.153   4.287  15.793  0.1589  1.6614  0.2152
10662TIP3   OH253400   1.100   5.387   5.879  0.6644 -0.5640  0.5063
10662TIP3    H153401   1.075   5.330   5.952  0.1910  1.1368  1.7232
10662TIP3    H253402   1.191   5.363   5.860  1.7329  0.7144  3.4655
10663TIP3   OH253403   1.103   3.787  15.887  0.2930 -0.0139 -0.0062
10663TIP3    H153404   1.131   3.695  15.894  0.2869 -0.0115  0.0530
10663TIP3    H253405   1.111   3.821  15.976  0.8547  0.2091 -0.1367
10664TIP3   OH253406   5.377   0.808  14.262 -0.4631 -0.3683  0.2271
10664TIP3    H153407   5.393   0.719  14.232 -0.8116 -0.3468 -0.0239
10664TIP3    H253408   5.365   0.859  14.182 -3.9822 -0.7834  0.3279
10665TIP3   OH253409   3.630   6.593   4.696  0.4481  0.0335 -0.1051
10665TIP3    H153410   3.706   6.651   4.701  0.0741  0.7262 -1.8157
10665TIP3    H253411   3.637   6.538   4.775  3.8703 -1.3724 -1.1867
10666TIP3   OH253412   4.553   3.558  14.872 -0.3185 -0.0025  0.8426
10666TIP3    H153413   4.520   3.549  14.783 -0.6440  2.0349  0.7118
10666TIP3    H253414   4.647   3.537  14.865 -0.1047  1.1770 -0.2174
10667TIP3   OH253415   0.355   4.267   0.658  0.1848 -0.1943  0.3899
10667TIP3    H153416   0.308   4.197   0.614  0.9823 -0.9183  0.6597
10667TIP3    H253417   0.388   4.323   0.587  1.8924 -1.6219 -0.0230
10668TIP3   OH253418   0.719   1.703  16.897  0.3549  0.3796 -0.6019
10668TIP3    H153419   0.657   1.702  16.970 -0.8575 -1.1179 -1.6046
10668TIP3    H253420   0.712   1.616  16.858  2.5644  0.4210 -1.2235
10669TIP3   OH253421   1.694   1.201  14.800  0.0292  0.0452 -0.3178
10669TIP3    H153422   1.640   1.217  14.878 -0.4209 -1.4006 -0.3110
10669TIP3    H253423   1.646   1.135  14.751  1.2992 -0.5223 -0.8273
10670TIP3   OH253424   2.248   0.839   1.957  1.0838  0.4106 -0.2337
10670TIP3    H153425   2.171   0.889   1.984  1.9364  0.9674  1.3110
10670TIP3    H253426   2.215   0.775   1.893 -0.5730  0.8653  0.1338
10671TIP3   OH253427   4.412   0.585  12.979  0.0127 -0.1136  0.0882
10671TIP3    H153428   4.432   0.651  13.045  1.1497 -0.3539  0.0027
10671TIP3    H253429   4.336   0.621  12.932 -1.1254 -0.1719  1.8089
10672TIP3   OH253430   5.750   3.716  11.776 -0.1527 -0.1655 -0.6771
10672TIP3    H153431   5.705   3.746  11.854  1.0137  2.6571 -0.9926
10672TIP3    H253432   5.765   3.622  11.791 -1.1061  0.0303  1.8528
10673TIP3   OH253433   5.898   3.026   0.783  0.2196 -0.4894 -0.2910
10673TIP3    H153434   5.950   3.106   0.788  1.9386 -1.5960  0.7724
10673TIP3    H253435   5.807   3.056   0.773  0.7664  1.5906  0.5292
10674TIP3   OH253436   5.906   1.774  14.441 -0.0557 -0.2736  0.5354
10674TIP3    H153437   5.887   1.680  14.431  0.5194 -0.2085 -1.6182
10674TIP3    H253438   5.950   1.780  14.525  1.3484 -2.2091  0.0204
10675TIP3   OH253439   0.631   0.921   0.786  0.0212  0.0487 -0.1276
10675TIP3    H153440   0.609   0.873   0.866 -0.3179  0.1789 -0.1446
10675TIP3    H253441   0.599   0.865   0.715  0.7013 -0.2708 -0.1927
10676TIP3   OH253442   1.547   4.243  13.699 -0.3578  0.7208  0.2028
10676TIP3    H153443   1.619   4.244  13.761  1.3007  0.9641 -1.6256
10676TIP3    H253444   1.487   4.177  13.732  0.0769  1.3537  2.4242
10677TIP3   OH253445   0.217   3.917   5.123 -0.2324  0.0713 -0.4356
10677TIP3    H153446   0.216   3.912   5.027 -1.2965  0.8811 -0.4869
10677TIP3    H253447   0.125   3.911   5.148  0.1640 -2.2417  0.6934
10678TIP3   OH253448   0.122   0.641  12.245  0.6346 -0.3050 -0.2887
10678TIP3    H153449   0.106   0.727  12.206  1.3973 -0.4591 -0.9776
10678TIP3    H253450   0.218   0.632  12.244  0.8313  0.2159  2.7987
10679TIP3   OH253451   1.120   5.408  15.614 -0.2276 -0.4510  0.2129
10679TIP3    H153452   1.203   5.373  15.582 -0.2203  0.4624 -0.8253
10679TIP3    H253453   1.138   5.433  15.705  0.3811 -1.0822  0.2709
10680TIP3   OH253454   3.707   5.811   0.123  0.2126  0.1274 -0.1287
10680TIP3    H153455   3.758   5.853   0.193 -0.4482  0.4914  0.1373
10680TIP3    H253456   3.773   5.777   0.063  0.8325 -1.0788  1.1742
10681TIP3   OH253457   2.033   6.278  13.504 -0.5992  0.2425  0.7475
10681TIP3    H153458   1.945   6.272  13.467  0.0452 -0.2641 -0.8140
10681TIP3    H253459   2.064   6.365  13.478 -1.1473  1.0289  2.5779
10682TIP3   OH253460   1.990   3.271   3.899 -0.0806  0.0064 -0.2311
10682TIP3    H153461   2.079   3.236   3.908 -1.2379 -2.6802  1.9932
10682TIP3    H253462   1.952   3.220   3.828 -0.5849 -0.6363  0.4845
10683TIP3   OH253463   3.111   1.183  16.740 -0.1575 -0.3775 -0.6481
10683TIP3    H153464   3.146   1.116  16.799 -1.0285  0.8559  1.3717
10683TIP3    H253465   3.018   1.161  16.732 -0.2115 -0.0568 -0.8956
10684TIP3   OH253466   4.851   5.797  14.074 -0.1299  0.5609 -0.2165
10684TIP3    H153467   4.840   5.850  13.995 -0.6115 -0.6640 -0.9976
10684TIP3    H253468   4.863   5.861  14.144 -0.6900  1.6970 -1.1214
10685TIP3   OH253469   4.131   2.498  14.670 -0.4138 -0.0475 -0.5547
10685TIP3    H153470   4.060   2.514  14.732  0.9764  1.0668  0.8361
10685TIP3    H253471   4.150   2.583  14.632 -0.1477 -0.4191 -1.2781
10686TIP3   OH253472   4.654   3.455   1.503  0.5560  0.0177  0.1115
10686TIP3    H153473   4.748   3.474   1.504  0.5083  0.3908 -1.1243
10686TIP3    H253474   4.642   3.390   1.573  1.1039  2.6881  2.8927
10687TIP3   OH253475   5.592   5.697   3.071 -0.7708 -0.1778 -0.3043
10687TIP3    H153476   5.542   5.779   3.072 -1.5751 -0.6133  1.8151
10687TIP3    H253477   5.578   5.660   3.159  1.3640 -1.5092 -0.4615
10688TIP3   OH253478   1.096   3.208   3.505 -0.6729 -0.1758  0.5062
10688TIP3    H153479   1.147   3.179   3.580 -0.4593  0.7161  0.7186
10688TIP3    H253480   1.023   3.146   3.500 -0.4987 -0.4501  1.2293
10689TIP3   OH253481   1.757   0.478  11.440  0.0978 -0.1321 -0.6948
10689TIP3    H153482   1.748   0.480  11.345 -1.0876 -0.0264 -0.5981
10689TIP3    H253483   1.668   0.463  11.472 -0.3134  3.7892  0.5210
10690TIP3   OH253484   3.036   0.494   3.479  0.4178  0.2046 -0.5331
10690TIP3    H153485   2.979   0.496   3.401 -0.1194  0.1062 -0.1486
10690TIP3    H253486   3.083   0.578   3.476 -1.9965  1.7182  0.7757
10691TIP3   OH253487   3.117   5.474   0.883  0.3700  0.1614 -0.1469
10691TIP3    H153488   3.136   5.528   0.806 -1.5922  1.9894  0.5308
10691TIP3    H253489   3.196   5.423   0.897  1.6086  1.4242 -2.0411
10692TIP3   OH253490   3.799   0.158   3.946 -0.5998 -0.1975  0.1923
10692TIP3    H153491   3.886   0.124   3.967 -1.4488 -0.9003  3.0091
10692TIP3    H253492   3.744   0.129   4.018 -3.0829  0.7358 -1.1955
10693TIP3   OH253493   2.029   5.292   4.183 -0.1604 -0.5914  0.3508
10693TIP3    H153494   2.118   5.260   4.200  0.6251  1.8509  1.3161
10693TIP3    H253495   1.974   5.245   4.246  0.4746 -1.8854 -0.0229
10694TIP3   OH253496   5.359   5.243   0.555  0.1329  0.6877 -0.2940
10694TIP3    H153497   5.316   5.229   0.639  2.1630  1.5582  0.9568
10694TIP3    H253498   5.352   5.158   0.511 -0.8642  0.1760  0.7666
10695TIP3   OH253499   2.722   6.203   2.779  0.0810 -0.0432  0.4824
10695TIP3    H153500   2.746   6.161   2.862  0.0145 -0.0647  0.4908
10695TIP3    H253501   2.780   6.162   2.714  1.3118  1.1582  0.7706
10696TIP3   OH253502   3.757   4.380   2.097 -0.0050  0.2689 -0.5995
10696TIP3    H153503   3.810   4.395   2.019  1.4513 -0.6418  0.1675
10696TIP3    H253504   3.671   4.356   2.063  0.7916 -0.8221 -1.9745
10697TIP3   OH253505   0.315   3.325  16.554  0.2641 -0.2402 -0.0827
10697TIP3    H153506   0.342   3.340  16.644  0.2384 -1.0785  0.0663
10697TIP3    H253507   0.222   3.306  16.559  0.4081 -0.9893 -0.2091
10698TIP3   OH253508   1.130   0.623  11.593 -0.2514 -0.0512 -0.2556
10698TIP3    H153509   1.039   0.650  11.605 -0.4270 -1.0257  0.6569
10698TIP3    H253510   1.159   0.595  11.679  1.1857  1.0007 -0.3531
10699TIP3   OH253511   0.851   1.528  15.701  0.1994  0.1704  0.0290
10699TIP3    H153512   0.909   1.598  15.671  0.2818 -0.6035 -1.7423
10699TIP3    H253513   0.769   1.543  15.654 -0.3075 -0.0131  0.8399
10700TIP3   OH253514   5.225   4.551  16.248 -0.8040 -0.4623  0.5145
10700TIP3    H153515   5.276   4.477  16.217 -1.8383 -0.2604 -1.8204
10700TIP3    H253516   5.151   4.511  16.294 -1.3927 -0.9209 -0.7861
10701TIP3   OH253517   1.559   0.846   2.245  0.3347  0.4129  0.2149
10701TIP3    H153518   1.605   0.841   2.329  0.3028 -3.0773  0.1589
10701TIP3    H253519   1.471   0.875   2.268  0.5663  0.3309  1.2440
10702TIP3   OH253520   2.023   5.787  16.583 -0.1223  0.2730  0.3760
10702TIP3    H153521   2.071   5.804  16.664 -0.6823 -0.8171  0.9627
10702TIP3    H253522   2.075   5.721  16.537 -0.0761  0.5061  0.0883
10703TIP3   OH253523   3.926   4.724  13.510 -0.8997 -0.4404 -0.0189
10703TIP3    H153524   3.839   4.733  13.472 -1.3228 -0.5431  0.9199
10703TIP3    H253525   3.940   4.804  13.560 -0.8100 -0.7968  0.5377
10704TIP3   OH253526   3.848   4.367  12.417 -0.1546 -0.7624 -0.0887
10704TIP3    H153527   3.861   4.403  12.505  0.5247  0.7431 -0.7621
10704TIP3    H253528   3.930   4.321  12.398 -0.7578 -2.1302  0.5006
10705TIP3   OH253529   6.156   3.544   5.070 -0.2562  0.1489 -0.0315
10705TIP3    H153530   6.167   3.629   5.028  0.9420  0.4533  0.8532
10705TIP3    H253531   6.227   3.490   5.034  0.4461  0.2523  1.1678
10706TIP3   OH253532   3.333   1.157   0.303 -0.0114 -0.0851 -0.2326
10706TIP3    H153533   3.277   1.123   0.373  1.1602 -0.8268  0.3710
10706TIP3    H253534   3.422   1.134   0.330  0.4701 -0.3914 -1.9732
10707TIP3   OH253535   2.100   2.871  15.301  0.5566  0.6891 -0.1359
10707TIP3    H153536   2.085   2.777  15.287  0.7740  0.7952 -1.1332
10707TIP3    H253537   2.179   2.890  15.252  0.1502  1.5304 -0.4772
10708TIP3   OH253538   5.551   3.596  16.202 -0.2492  0.2926  0.3537
10708TIP3    H153539   5.600   3.541  16.263 -0.9761  1.3753  1.9795
10708TIP3    H253540   5.617   3.656  16.166  0.5683 -1.5522 -1.4898
10709TIP3   OH253541   4.116   4.279   5.461 -0.4591 -1.0570 -0.5053
10709TIP3    H153542   4.070   4.195   5.471 -1.9651 -0.6178 -2.8147
10709TIP3    H253543   4.066   4.341   5.513 -0.1838 -1.3022  0.0611
10710TIP3   OH253544   0.247   5.614   5.297 -0.9104 -0.1618 -0.1255
10710TIP3    H153545   0.338   5.608   5.326 -0.8759  0.4927 -0.0719
10710TIP3    H253546   0.252   5.635   5.204 -0.9533  1.7631  0.2449
10711TIP3   OH253547   4.840   3.074  16.420 -0.1953  0.2457  0.6963
10711TIP3    H153548   4.795   3.156  16.399  0.8539  0.6992  0.1541
10711TIP3    H253549   4.884   3.092  16.504  0.9165  0.6186  0.0527
10712TIP3   OH253550   2.985   0.353  13.223 -0.2867 -0.6024  0.4824
10712TIP3    H153551   2.963   0.397  13.141 -0.1810  1.7262  1.6332
10712TIP3    H253552   3.080   0.353  13.226 -0.2925 -0.4598  0.7157
10713TIP3   OH253553   6.756   4.280   6.697 -0.1332  0.1438  0.0465
10713TIP3    H153554   6.812   4.206   6.673 -1.1928 -0.5892 -0.2262
10713TIP3    H253555   6.814   4.339   6.746  1.1361 -0.0872 -1.1130
10714TIP3   OH253556   5.243   3.230  16.719  0.7350 -0.2141  0.1417
10714TIP3    H153557   5.255   3.253  16.811 -2.2811  1.5722  0.2272
10714TIP3    H253558   5.265   3.310  16.671  1.8144 -0.9850 -0.6991
10715TIP3   OH253559   1.221   2.433   2.653  0.2055  0.0996 -0.0938
10715TIP3    H153560   1.168   2.385   2.590 -0.1556  2.7379 -1.9482
10715TIP3    H253561   1.285   2.480   2.600  0.2427  2.0103  1.5215
10716TIP3   OH253562   2.183   6.009   6.064  0.2794  0.0991  0.4879
10716TIP3    H153563   2.171   5.914   6.065  1.6868 -0.0999  1.0154
10716TIP3    H253564   2.203   6.032   6.155  1.4020  0.6792  0.1134
10717TIP3   OH253565   3.050   4.405   6.746 -0.0482  0.5263 -0.3753
10717TIP3    H153566   3.015   4.335   6.801  0.3341  1.7551  1.5079
10717TIP3    H253567   2.976   4.464   6.732  0.1749  0.8919 -0.0449
10718TIP3   OH253568   5.010   6.569  12.507  0.5310  0.2492 -0.0499
10718TIP3    H153569   5.096   6.541  12.476  0.8985  1.2225  0.0591
10718TIP3    H253570   4.983   6.637  12.445 -0.7340 -0.8970 -0.8202
10719TIP3   OH253571   1.184   3.239   0.059 -0.3825 -0.0826 -0.2001
10719TIP3    H153572   1.113   3.304   0.066  0.2024  0.5258  0.2417
10719TIP3    H253573   1.241   3.274  -0.009  1.0817  1.0368  1.4990
10720TIP3   OH253574   2.847   1.873   5.843 -0.9272 -0.1356  0.0035
10720TIP3    H153575   2.901   1.920   5.906 -0.3375  0.6706 -1.0694
10720TIP3    H253576   2.813   1.798   5.892  1.1691 -0.6756  0.7401
10721TIP3   OH253577   6.409   5.083   2.190 -0.0131 -0.3485 -0.3065
10721TIP3    H153578   6.356   5.118   2.263 -0.1658 -2.8515  0.8775
10721TIP3    H253579   6.345   5.054   2.125  0.0350 -0.3018 -0.3749
10722TIP3   OH253580   5.832   2.414   4.415 -0.0532 -0.1530  0.5148
10722TIP3    H153581   5.912   2.466   4.424  0.1558 -0.2749 -0.5383
10722TIP3    H253582   5.832   2.357   4.492  1.2462 -0.6456  0.1764
10723TIP3   OH253583   4.259   1.532   5.951 -0.1181  0.0246 -0.4115
10723TIP3    H153584   4.297   1.444   5.953 -0.5834 -0.2928 -2.6124
10723TIP3    H253585   4.277   1.564   5.862 -2.9312  0.7468 -0.8231
10724TIP3   OH253586   6.240   5.595  14.721  0.0228  0.0771 -0.1440
10724TIP3    H153587   6.323   5.547  14.726 -1.2684 -2.2352  1.4258
10724TIP3    H253588   6.238   5.631  14.633  0.8450 -3.4714 -1.8249
10725TIP3   OH253589   3.781   4.024   0.863 -0.0166  0.4029 -0.5902
10725TIP3    H153590   3.762   4.047   0.953  1.7462  1.8535 -0.5149
10725TIP3    H253591   3.781   4.108   0.816  3.0256  0.2698 -1.0633
10726TIP3   OH253592   3.984   1.821  16.409 -0.0950 -0.3097  0.1653
10726TIP3    H153593   4.068   1.780  16.427  0.3086  1.1315  1.8481
10726TIP3    H253594   3.968   1.878  16.484 -2.9689 -1.1234  0.3214
10727TIP3   OH253595   4.947   1.883  12.540 -0.1162 -0.2968 -0.0453
10727TIP3    H153596   4.945   1.834  12.622 -0.2333 -0.0232  0.1199
10727TIP3    H253597   4.890   1.959  12.556 -0.5656 -0.5194 -0.5601
10728TIP3   OH253598   4.965   1.447   0.442  0.0739  0.5864  0.8034
10728TIP3    H153599   5.008   1.481   0.520  0.0287  0.0728  1.0576
10728TIP3    H253600   5.037   1.423   0.383  0.1769 -0.7243  1.4206
10729TIP3   OH253601   2.948   0.807  16.798 -0.0943 -0.3140  0.5879
10729TIP3    H153602   3.019   0.839  16.742 -0.5668 -0.3458 -0.0442
10729TIP3    H253603   2.968   0.842  16.884 -0.0016  0.7483  0.1490
10730TIP3   OH253604   3.786   1.466   0.816 -0.4073  0.2446 -0.0604
10730TIP3    H153605   3.875   1.454   0.848 -0.3077 -0.8721 -0.7005
10730TIP3    H253606   3.783   1.557   0.786  0.0849  0.7095  1.2245
10731TIP3   OH253607   6.590   1.588  16.352  0.5982 -0.5147  0.0838
10731TIP3    H153608   6.582   1.672  16.396  3.7757  1.0843 -2.0205
10731TIP3    H253609   6.502   1.568  16.321 -0.4579  1.4111  1.6449
10732TIP3   OH253610   0.137   1.752  16.936 -0.2129 -0.3700  0.5428
10732TIP3    H153611   0.227   1.748  16.969 -0.3855  0.5821  1.1584
10732TIP3    H253612   0.142   1.712  16.849  0.6069 -1.2579  0.9783
10733TIP3   OH253613   6.608   5.835   1.524 -0.6624 -0.3471 -0.6093
10733TIP3    H153614   6.523   5.800   1.496 -0.5102 -0.6355 -0.7049
10733TIP3    H253615   6.672   5.792   1.467 -0.4963  0.2488 -0.8867
10734TIP3   OH253616   3.804   2.695  14.009 -0.1544 -0.7944  0.4428
10734TIP3    H153617   3.807   2.668  14.101 -1.7612  0.1146  0.7873
10734TIP3    H253618   3.896   2.705  13.985  0.2943 -0.0128  2.2740
10735TIP3   OH253619   4.978   0.231  15.730 -0.5241  0.3515  0.1753
10735TIP3    H153620   4.959   0.318  15.766  2.1015  0.5170  1.3534
10735TIP3    H253621   4.957   0.171  15.802 -1.3464  0.0639 -0.2868
10736TIP3   OH253622   4.197   3.942   3.613  0.5095 -0.1864  0.5310
10736TIP3    H153623   4.279   3.898   3.637  0.7783 -0.2243 -0.4139
10736TIP3    H253624   4.131   3.905   3.673  1.1608 -0.2013  1.2524
10737TIP3   OH253625   3.619   6.215  11.246  0.0548 -0.1495 -0.5360
10737TIP3    H153626   3.534   6.194  11.207 -1.1198 -0.3763  1.9260
10737TIP3    H253627   3.653   6.130  11.275  0.4126  0.1076 -0.1962
10738TIP3   OH253628   5.401   3.940   5.947  0.1448 -0.0629  0.2240
10738TIP3    H153629   5.411   3.854   5.987 -0.2064 -0.1946  0.0319
10738TIP3    H253630   5.309   3.944   5.921 -0.0014  0.6325  0.8194
10739TIP3   OH253631   3.636   0.983  12.353 -0.3356  0.5335 -0.5784
10739TIP3    H153632   3.720   0.944  12.377 -0.7682 -0.7060 -1.0009
10739TIP3    H253633   3.598   0.921  12.291 -2.4990 -0.0577  1.1877
10740TIP3   OH253634   3.726   6.769  10.766 -0.1163  0.4144  0.7869
10740TIP3    H153635   3.677   6.736  10.841 -2.0044 -3.2726 -1.7772
10740TIP3    H253636   3.662   6.774  10.695  2.3740 -0.6714 -1.7141
10741TIP3   OH253637   4.527   0.656   3.173  0.6811  0.0962 -0.2403
10741TIP3    H153638   4.484   0.572   3.186  1.6774 -0.6511 -1.5159
10741TIP3    H253639   4.614   0.645   3.213 -0.2938  1.6744  2.5621
10742TIP3   OH253640   1.900   1.102  11.437 -0.1574  0.1392 -0.3176
10742TIP3    H153641   1.841   1.125  11.365  1.8170 -1.0636 -2.4380
10742TIP3    H253642   1.981   1.076  11.394  0.6951 -1.9259  2.2902
10743TIP3   OH253643   0.561   0.037   1.660  0.0163  0.8185 -0.6651
10743TIP3    H153644   0.581   0.076   1.745 -1.5017  0.5522 -0.1448
10743TIP3    H253645   0.548  -0.056   1.679  0.3460  0.6312 -1.3205
10744TIP3   OH253646   3.914   1.130  17.160 -0.2747 -0.2152 -0.0170
10744TIP3    H153647   3.903   1.090  17.246 -2.3804  1.2050  0.4608
10744TIP3    H253648   3.989   1.188  17.169  1.0995 -1.9056  0.0564
10745TIP3   OH253649   0.237   3.103   3.468  0.4017 -0.4501  0.0935
10745TIP3    H153650   0.194   3.018   3.473 -0.7699  0.1131 -0.1332
10745TIP3    H253651   0.200   3.145   3.390  0.3759  0.5847  0.6456
10746TIP3   OH253652   4.729   4.919   6.275 -0.9700 -0.4995  0.1878
10746TIP3    H153653   4.641   4.949   6.296 -0.2524  0.9063  1.3531
10746TIP3    H253654   4.772   4.995   6.237 -0.1543 -1.0772 -0.0759
10747TIP3   OH253655   5.941   1.211   4.142 -0.0481 -0.0526  0.2743
10747TIP3    H153656   6.026   1.252   4.123 -0.1038  0.2323  0.6262
10747TIP3    H253657   5.886   1.235   4.068  0.0311  0.1910  0.2922
10748TIP3   OH253658   1.233   3.096   4.041 -0.0226 -0.9286  0.0406
10748TIP3    H153659   1.219   3.082   4.135 -1.9496 -1.1770 -0.2331
10748TIP3    H253660   1.328   3.098   4.031  0.2362  0.3936  2.1696
10749TIP3   OH253661   2.314   6.299  16.453 -0.1997  0.1561 -0.0941
10749TIP3    H153662   2.234   6.266  16.493  0.2180 -1.3086 -0.4093
10749TIP3    H253663   2.309   6.272  16.362  0.3799  0.5600 -0.2559
10750TIP3   OH253664   3.797   6.032   3.574  0.4516 -0.6341  0.1000
10750TIP3    H153665   3.752   5.953   3.543  2.6871 -3.0453  2.4163
10750TIP3    H253666   3.889   6.006   3.580  1.3772  2.3506  0.5192
10751TIP3   OH253667   6.035   0.500   0.854 -0.2979 -0.4357 -0.1382
10751TIP3    H153668   6.005   0.475   0.766  0.2578 -1.2122 -0.1195
10751TIP3    H253669   6.064   0.418   0.893 -1.2384 -0.2158  1.0599
10752TIP3   OH253670   6.495   5.433  14.413 -0.0287 -0.1884 -0.1192
10752TIP3    H153671   6.447   5.399  14.337 -1.3270 -3.2172  1.8791
10752TIP3    H253672   6.451   5.515  14.434 -0.3129  0.1927 -1.9809
10753TIP3   OH253673   1.667   4.811  16.790 -0.3269  0.3870  0.0543
10753TIP3    H153674   1.670   4.834  16.882 -1.6992  1.0143 -0.0193
10753TIP3    H253675   1.595   4.748  16.784  0.8178 -0.9213 -0.3533
10754TIP3   OH253676   0.491   1.136   5.662 -0.3372  0.4251 -0.6000
10754TIP3    H153677   0.404   1.101   5.643 -0.7471 -0.6704  2.7498
10754TIP3    H253678   0.535   1.067   5.710  2.5739  0.8557 -2.4419
10755TIP3   OH253679   4.191   3.578   0.826  0.0978 -0.4827  0.0023
10755TIP3    H153680   4.173   3.526   0.747 -2.1210 -2.1844  1.4929
10755TIP3    H253681   4.124   3.646   0.825 -0.4098 -0.9622  0.7598
10756TIP3   OH253682   2.489   2.775   5.498  0.9113  0.0522 -0.0136
10756TIP3    H153683   2.514   2.793   5.407  0.3391  1.3175  0.0646
10756TIP3    H253684   2.560   2.814   5.550  1.0939 -0.4201  0.0943
10757TIP3   OH253685   4.010   4.183   2.727 -0.2365 -0.9684  0.5137
10757TIP3    H153686   4.041   4.269   2.701 -1.0676 -0.5834  0.7489
10757TIP3    H253687   4.059   4.121   2.673 -0.1862 -0.3068 -0.2000
10758TIP3   OH253688   5.516   1.983   5.299  0.5916 -0.0922 -0.1922
10758TIP3    H153689   5.532   1.903   5.350  2.0617  0.6001  0.5015
10758TIP3    H253690   5.586   1.984   5.234  1.0788  1.0165  0.3225
10759TIP3   OH253691   0.711   1.640  16.025 -0.1253  0.4635 -0.3088
10759TIP3    H153692   0.656   1.573  15.984  0.0938 -0.4943  0.8786
10759TIP3    H253693   0.666   1.722  16.008 -1.7829 -0.2620  0.3647
10760TIP3   OH253694   2.249   2.173  13.315  0.5937  0.1138 -0.1988
10760TIP3    H153695   2.345   2.170  13.310  0.5778  0.5294 -0.9888
10760TIP3    H253696   2.224   2.232  13.244 -0.3987 -2.5645 -2.2799
10761TIP3   OH253697   2.722   5.085  10.841  0.2326  0.1092  0.2988
10761TIP3    H153698   2.720   5.008  10.898  1.1782 -0.5642 -0.5355
10761TIP3    H253699   2.795   5.138  10.873 -0.8727  1.0649  1.3368
10762TIP3   OH253700   4.716   5.830  10.549  0.0293 -0.2646 -0.3083
10762TIP3    H153701   4.795   5.868  10.511 -0.5217  0.9907 -0.2345
10762TIP3    H253702   4.645   5.859  10.491 -0.4328 -1.0336 -0.1401
10763TIP3   OH253703   0.364   3.213  11.906 -0.5468  0.6627 -0.2502
10763TIP3    H153704   0.431   3.144  11.912 -0.9140  0.1760 -1.4830
10763TIP3    H253705   0.282   3.166  11.898 -0.8276  1.2513 -0.8985
10764TIP3   OH253706   0.734   2.708  13.468 -0.2120  0.0319  0.5435
10764TIP3    H153707   0.778   2.785  13.503 -1.5701 -0.2422  3.0427
10764TIP3    H253708   0.643   2.735  13.456 -0.0174 -0.1873 -2.0318
10765TIP3   OH253709   1.294   3.411  16.117  0.0943  0.3299 -0.1357
10765TIP3    H153710   1.256   3.323  16.113 -1.1877  0.7922  1.0821
10765TIP3    H253711   1.226   3.465  16.156  0.9692  1.8231 -0.5958
10766TIP3   OH253712   6.081   3.973   4.908  0.7543 -0.1151  0.2209
10766TIP3    H153713   6.029   4.043   4.947  0.3308 -1.0603  1.4259
10766TIP3    H253714   6.136   4.017   4.843 -0.7635  1.0625 -0.3255
10767TIP3   OH253715   3.288   5.671  12.372 -0.1968 -0.4774  0.4301
10767TIP3    H153716   3.238   5.752  12.380 -0.0292 -0.1388 -1.6039
10767TIP3    H253717   3.227   5.608  12.334 -0.0409 -1.0550  1.1041
10768TIP3   OH253718   2.012   2.401   1.571 -0.2116 -0.0552 -0.2985
10768TIP3    H153719   2.106   2.390   1.580  0.0298  1.8577  0.1132
10768TIP3    H253720   1.974   2.325   1.614  1.1376 -0.9640 -0.6575
10769TIP3   OH253721   1.408   0.258   4.919 -0.1054 -0.0397  0.0795
10769TIP3    H153722   1.500   0.230   4.918  0.4932  1.6666 -2.7320
10769TIP3    H253723   1.406   0.331   4.981  1.2667  2.0030 -2.1023
10770TIP3   OH253724   2.292   3.861  13.033 -0.3491  0.4321 -0.3228
10770TIP3    H153725   2.385   3.859  13.011 -0.3143 -0.4766 -0.1466
10770TIP3    H253726   2.248   3.828  12.954 -0.3880 -0.6961  0.1508
10771TIP3   OH253727   6.421   2.419   6.611 -0.0367 -0.3477  0.5341
10771TIP3    H153728   6.348   2.447   6.557 -0.9698  0.0213  1.9277
10771TIP3    H253729   6.397   2.332   6.642  0.6817 -0.7348  0.0280
10772TIP3   OH253730   6.464   2.463   5.574  0.5189  0.4267  0.3079
10772TIP3    H153731   6.458   2.533   5.509 -1.0685 -1.0878 -1.2934
10772TIP3    H253732   6.448   2.506   5.657 -1.5976  1.8323 -0.7384
10773TIP3   OH253733   1.699   6.735  14.989  0.0979 -0.1481  0.1537
10773TIP3    H153734   1.647   6.800  15.034 -0.1471  0.2957 -0.7525
10773TIP3    H253735   1.779   6.727  15.042  0.4208  1.3567 -0.0573
10774TIP3   OH253736   3.269   2.147   4.305  0.1680 -0.4914  0.2260
10774TIP3    H153737   3.309   2.212   4.247  0.9499 -0.5809  0.6538
10774TIP3    H253738   3.194   2.192   4.343 -0.8945 -0.7198 -1.5274
10775TIP3   OH253739   4.324   0.437   5.375  0.0074 -0.2080 -0.5405
10775TIP3    H153740   4.316   0.517   5.427 -0.8175  0.5801 -1.7909
10775TIP3    H253741   4.245   0.387   5.397  0.6692 -0.8372  0.4620
10776TIP3   OH253742   3.462   6.430   3.687  0.2182 -0.0512 -0.2495
10776TIP3    H153743   3.429   6.350   3.728  0.1092  0.2119  0.1862
10776TIP3    H253744   3.388   6.465   3.638  0.7577 -1.1404 -1.8938
10777TIP3   OH253745   3.123   0.722   2.800 -0.2715 -0.3306 -0.1941
10777TIP3    H153746   3.135   0.787   2.869  1.5446 -1.1980  0.3752
10777TIP3    H253747   3.147   0.639   2.841 -0.2207 -1.0220 -1.5539
10778TIP3   OH253748   1.447   2.582   0.386 -0.1155  0.5539 -0.0694
10778TIP3    H153749   1.468   2.493   0.358  2.0249  0.4965  1.5428
10778TIP3    H253750   1.465   2.583   0.480 -3.0693  1.8778  0.5959
10779TIP3   OH253751   2.035   4.676   3.750 -0.3611 -0.6221 -0.6794
10779TIP3    H153752   1.975   4.725   3.806  0.1454 -1.6475  0.8044
10779TIP3    H253753   1.992   4.591   3.738  0.9313 -1.5244  0.7524
10780TIP3   OH253754   4.489   1.992  12.572  0.3754  0.3189  0.0668
10780TIP3    H153755   4.560   2.033  12.521 -0.8705  0.0083 -2.0093
10780TIP3    H253756   4.415   1.987  12.512 -0.9301 -0.8862  1.6638
10781TIP3   OH253757   2.564   1.157  16.003  0.2976  0.8711 -0.1039
10781TIP3    H153758   2.506   1.083  15.987  1.1668 -0.4392  2.4457
10781TIP3    H253759   2.617   1.163  15.923 -0.7931 -0.2655 -0.9579
10782TIP3   OH253760   2.892   1.770  11.846 -0.2477 -0.5728 -0.2451
10782TIP3    H153761   2.829   1.838  11.823 -0.1384 -0.7205 -1.0119
10782TIP3    H253762   2.937   1.750  11.764  0.8800 -0.3980  0.3047
10783TIP3   OH253763   1.459   0.228  13.118  0.1711 -0.0912 -0.0450
10783TIP3    H153764   1.422   0.220  13.206 -2.2957  0.1071 -0.9830
10783TIP3    H253765   1.458   0.138  13.084 -1.3602  0.1322 -0.7244
10784TIP3   OH253766   4.338   3.961  11.342 -0.2112  0.1959 -0.2282
10784TIP3    H153767   4.343   3.897  11.272  0.1345 -0.1832  0.1414
10784TIP3    H253768   4.346   4.046  11.298  1.8821 -0.0880 -0.4576
10785TIP3   OH253769   3.498   1.192  13.615  0.0216 -1.0589 -0.0950
10785TIP3    H153770   3.409   1.163  13.635  0.0220 -0.7908  0.3334
10785TIP3    H253771   3.554   1.133  13.665  0.0475 -0.7158  0.2854
10786TIP3   OH253772   0.341   0.033  17.060  0.1549 -0.0518  0.1869
10786TIP3    H153773   0.278  -0.026  17.018  0.0563  0.6839 -0.7343
10786TIP3    H253774   0.308   0.121  17.040  0.7977  0.3311  0.7630
10787TIP3   OH253775   6.173   4.448  13.974  0.3632 -0.0106  0.8086
10787TIP3    H153776   6.236   4.379  13.952 -1.5042 -1.7816  0.7285
10787TIP3    H253777   6.114   4.451  13.899  0.0033  1.2180  1.1258
10788TIP3   OH253778   0.737   5.969  16.280  0.2159  0.4539  0.3464
10788TIP3    H153779   0.752   6.007  16.367  1.8280 -0.9223  0.7259
10788TIP3    H253780   0.782   5.884  16.283 -0.6554 -0.1124 -1.4699
10789TIP3   OH253781   5.133   3.909   5.954  0.8844  0.2143  0.0814
10789TIP3    H153782   5.161   3.925   6.044  1.6266  1.2896 -0.3117
10789TIP3    H253783   5.152   3.816   5.939  2.3058  0.4050  0.5318
10790TIP3   OH253784   2.574   2.979  12.349 -0.1412  0.4934  0.1295
10790TIP3    H153785   2.549   3.069  12.328  0.5983  0.7600  0.3662
10790TIP3    H253786   2.598   2.941  12.265 -3.4261 -0.4972 -0.5269
10791TIP3   OH253787   4.420   2.218  17.092  0.1228 -0.0059 -0.5313
10791TIP3    H153788   4.341   2.176  17.057 -0.0733  0.6741 -0.9137
10791TIP3    H253789   4.481   2.219  17.018  0.6428 -0.8674 -0.1392
10792TIP3   OH253790   0.230   4.357  15.118 -0.7867  0.0633  0.1098
10792TIP3    H153791   0.237   4.262  15.118 -0.6850  0.0404  1.9632
10792TIP3    H253792   0.318   4.388  15.096 -0.7156 -0.2713 -0.0753
10793TIP3   OH253793   3.520   5.226  13.907 -0.1025 -0.5142  0.0435
10793TIP3    H153794   3.531   5.195  13.997 -0.7029  0.1087  0.3406
10793TIP3    H253795   3.436   5.271  13.908 -0.3486 -0.9329 -0.9582
10794TIP3   OH253796   5.397   2.897   0.997 -0.3141 -0.3506 -0.5170
10794TIP3    H153797   5.456   2.836   0.953 -0.0341  0.7816 -1.7797
10794TIP3    H253798   5.455   2.953   1.049 -0.6480 -1.7441  1.4867
10795TIP3   OH253799   3.392   6.732   1.587  0.0786  0.2481 -0.1781
10795TIP3    H153800   3.330   6.672   1.628 -0.2402  0.7404  0.0607
10795TIP3    H253801   3.454   6.754   1.657 -1.1722  2.0595  0.4160
10796TIP3   OH253802   2.976   2.729   1.791 -0.4230  0.0031  0.2359
10796TIP3    H153803   2.943   2.688   1.871 -1.4654  0.4469  0.0566
10796TIP3    H253804   2.941   2.675   1.720 -2.8035  1.7821 -0.0541
10797TIP3   OH253805   6.718   1.531   2.029  0.7616  0.5580 -0.7835
10797TIP3    H153806   6.809   1.531   2.000  1.8146 -1.1370  2.0661
10797TIP3    H253807   6.705   1.616   2.070  1.4089  0.4536 -0.3461
10798TIP3   OH253808   3.463   2.208  11.430 -0.3690 -0.3062 -0.3798
10798TIP3    H153809   3.373   2.209  11.399 -0.4016 -0.1039 -0.2801
10798TIP3    H253810   3.460   2.156  11.510 -0.7879  1.3904  0.7778
10799TIP3   OH253811   4.607   4.262   0.174  0.1395 -0.3557  0.6610
10799TIP3    H153812   4.655   4.289   0.252 -1.8432  1.4236  1.3733
10799TIP3    H253813   4.543   4.332   0.161  1.9993  0.8460 -4.0867
10800TIP3   OH253814   2.218   5.082   3.705 -0.8491 -0.6665 -0.1702
10800TIP3    H153815   2.204   5.112   3.795  1.9457  1.3892 -0.2756
10800TIP3    H253816   2.223   4.986   3.712 -0.6475 -0.5434  1.8795
10801TIP3   OH253817   4.717   5.392   5.648  0.0088 -0.2984 -0.3901
10801TIP3    H153818   4.720   5.384   5.553  1.4659  0.3506 -0.4120
10801TIP3    H253819   4.623   5.390   5.669 -0.3520  0.0459 -1.8719
10802TIP3   OH253820   2.819   6.174  11.877  0.0386 -0.7840 -0.1815
10802TIP3    H153821   2.739   6.133  11.845  0.2821 -0.9615 -0.5715
10802TIP3    H253822   2.866   6.104  11.922  0.3627 -0.8905 -0.6776
10803TIP3   OH253823   0.566   2.182  12.622 -0.4479 -0.2309  0.0636
10803TIP3    H153824   0.643   2.126  12.634  0.7063  1.0090 -1.1957
10803TIP3    H253825   0.495   2.135  12.666  0.5124 -2.5329 -0.7151
10804TIP3   OH253826   5.751   2.177  11.279  0.3299 -0.0286  0.0688
10804TIP3    H153827   5.800   2.133  11.349  1.1455  1.5332  0.5089
10804TIP3    H253828   5.661   2.177  11.310  0.2392 -1.6036 -0.0727
10805TIP3   OH253829   6.127   1.133   0.667 -0.2235  0.3069  0.4267
10805TIP3    H153830   6.143   1.057   0.611  2.4049 -0.5103  2.0792
10805TIP3    H253831   6.213   1.173   0.677 -1.1065  1.9838  1.6953
10806TIP3   OH253832   0.067   2.026   0.848 -0.2764 -0.3670 -0.3609
10806TIP3    H153833   0.133   2.057   0.786 -1.2138 -1.5422 -2.0478
10806TIP3    H253834   0.000   2.095   0.848  0.7431  0.6765  1.1113
10807TIP3   OH253835   3.129   3.721   1.709 -0.4388  0.0590 -0.3796
10807TIP3    H153836   3.178   3.769   1.642 -3.2466  0.9639 -1.9812
10807TIP3    H253837   3.148   3.629   1.692  0.1594  0.3500 -1.4024
10808TIP3   OH253838   2.479   2.166   2.152  0.1971  0.1264  0.5266
10808TIP3    H153839   2.404   2.222   2.135  0.3442  0.3554  0.6151
10808TIP3    H253840   2.468   2.138   2.243 -1.1446 -1.9529 -0.2181
10809TIP3   OH253841   1.465   4.370   5.580  0.3710  1.1574 -0.1482
10809TIP3    H153842   1.421   4.286   5.597  0.9450  0.7889 -0.4574
10809TIP3    H253843   1.550   4.361   5.623  0.4286  1.5956 -0.1677
10810TIP3   OH253844   4.851   3.536   4.919  0.3817 -0.1679 -0.4450
10810TIP3    H153845   4.764   3.554   4.883  0.2143 -0.2598 -0.0862
10810TIP3    H253846   4.871   3.447   4.891 -0.8109 -1.2010  1.7497
10811TIP3   OH253847   2.186   0.032  16.005  0.3988  0.1240  0.2834
10811TIP3    H153848   2.231  -0.025  16.067  0.0430 -1.7028 -1.0528
10811TIP3    H253849   2.151   0.103  16.059  1.4309 -0.5538  1.9199
10812TIP3   OH253850   3.995   4.462  10.878  0.1292 -0.4582 -0.2710
10812TIP3    H153851   3.996   4.550  10.915  0.6706  0.1449 -1.6707
10812TIP3    H253852   4.067   4.461  10.816  1.6062 -2.6363  1.3416
10813TIP3   OH253853   3.373   2.212  16.877  0.4871 -0.2004  0.8791
10813TIP3    H153854   3.352   2.293  16.830 -0.7472 -0.5025  0.8883
10813TIP3    H253855   3.455   2.182  16.837  1.0029  1.0822  0.9263
10814TIP3   OH253856   2.113   5.692   4.484  0.3639  0.5187 -0.0584
10814TIP3    H153857   2.194   5.642   4.477  0.8004  1.3766 -1.3788
10814TIP3    H253858   2.043   5.627   4.476  0.8811 -0.3336  1.8369
10815TIP3   OH253859   4.102   6.634   0.187  0.0377  0.1223 -0.3861
10815TIP3    H153860   4.115   6.727   0.202  0.2270 -0.1722  1.4076
10815TIP3    H253861   4.177   6.608   0.133  1.3214  0.5357  1.1299
10816TIP3   OH253862   1.271   0.990   5.184 -0.7256  0.6675  0.0068
10816TIP3    H153863   1.274   0.968   5.091 -0.0673 -1.7364  0.5303
10816TIP3    H253864   1.356   1.030   5.202 -0.3628  0.0222 -0.2107
10817TIP3   OH253865   3.337   1.658   1.598 -0.1234 -0.0283  0.2587
10817TIP3    H153866   3.428   1.644   1.623 -0.2721 -0.4078  0.6087
10817TIP3    H253867   3.299   1.570   1.597 -0.7303  0.2025  1.0954
10818TIP3   OH253868   1.228   1.319   4.352 -0.5014  0.3322 -0.0493
10818TIP3    H153869   1.268   1.406   4.357  0.5228  0.0068 -1.6852
10818TIP3    H253870   1.148   1.326   4.404 -0.2097  2.1136  0.2177
10819TIP3   OH253871   4.734   0.352   5.391  0.1979  0.2577 -0.4099
10819TIP3    H153872   4.683   0.310   5.461 -0.3714 -0.7504 -1.3864
10819TIP3    H253873   4.678   0.422   5.358  0.1865  0.3070 -0.2825
10820TIP3   OH253874   6.329   2.432   2.143  0.9653 -0.0594  0.4450
10820TIP3    H153875   6.289   2.460   2.060 -0.1006 -1.4509  0.4433
10820TIP3    H253876   6.408   2.484   2.151  0.3928  1.0526 -0.7942
10821TIP3   OH253877   4.792   6.005   3.132 -0.3677  0.2851  0.0804
10821TIP3    H153878   4.872   6.043   3.168 -0.9634  1.0528  0.6340
10821TIP3    H253879   4.763   6.068   3.066 -0.2185 -0.2691 -0.5222
10822TIP3   OH253880   3.545   3.090   3.770 -0.3811 -0.1569 -0.1260
10822TIP3    H153881   3.591   3.016   3.730 -0.9500 -0.2313 -0.6643
10822TIP3    H253882   3.598   3.167   3.748  0.4920 -0.4449  0.8764
10823TIP3   OH253883   1.692   6.456  12.673 -0.5112 -0.7017 -0.2047
10823TIP3    H153884   1.632   6.515  12.718 -0.0220  0.2530 -0.7914
10823TIP3    H253885   1.722   6.396  12.742 -0.3109  0.2995  0.6029
10824TIP3   OH253886   1.244   2.493  14.654 -0.6765 -0.0935  0.0748
10824TIP3    H153887   1.329   2.452  14.667 -1.5977 -1.9959  0.3582
10824TIP3    H253888   1.196   2.431  14.599 -1.5443  1.4325 -0.9571
10825TIP3   OH253889   3.336   1.428  12.914  0.1047 -0.2541  0.2771
10825TIP3    H153890   3.291   1.510  12.895 -1.6080 -1.1934  0.0771
10825TIP3    H253891   3.349   1.387  12.828 -3.3328 -2.2875  0.5132
10826TIP3   OH253892   6.249   5.756  12.208  0.7001 -0.2457  0.3823
10826TIP3    H153893   6.221   5.844  12.181  0.5502 -0.4235 -0.0592
10826TIP3    H253894   6.260   5.708  12.125  3.8292  0.2523  0.3866
10827TIP3   OH253895   4.294   5.154  14.864 -0.5313  0.3850 -0.7695
10827TIP3    H153896   4.305   5.249  14.862  0.2595  0.3716  1.0540
10827TIP3    H253897   4.204   5.141  14.894 -0.9903  0.5398 -2.0427
10828TIP3   OH253898   2.472   0.705   5.559  0.0814 -0.0845  0.5863
10828TIP3    H153899   2.520   0.717   5.640  0.0981  1.3171  0.3798
10828TIP3    H253900   2.382   0.732   5.579  0.2281  0.8951 -0.0198
10829TIP3   OH253901   3.594   5.046   1.967  0.5845  0.3620 -0.0907
10829TIP3    H153902   3.548   5.067   2.049 -0.4545 -2.4935  0.1746
10829TIP3    H253903   3.669   4.994   1.995  0.2979 -0.5261 -0.8858
10830TIP3   OH253904   4.263   3.706  11.711  0.1087 -0.2092  0.1999
10830TIP3    H153905   4.332   3.686  11.774 -0.2334  0.7401  0.8987
10830TIP3    H253906   4.303   3.768  11.650  0.1328 -0.3250  0.0981
10831TIP3   OH253907   3.815   3.705   5.620 -0.1484  0.0152 -0.5072
10831TIP3    H153908   3.751   3.769   5.590 -0.5138 -1.0653 -2.1737
10831TIP3    H253909   3.897   3.733   5.579 -0.0112  0.1565 -0.1444
10832TIP3   OH253910   1.400   5.418   3.485 -0.4116 -0.2363  0.0645
10832TIP3    H153911   1.462   5.428   3.557 -0.4711 -1.0262  0.2371
10832TIP3    H253912   1.426   5.336   3.443 -0.0783  0.4512 -1.1153
10833TIP3   OH253913   3.937   1.966   2.915 -0.2524 -0.2883 -0.0534
10833TIP3    H153914   3.879   1.988   2.842 -1.2862 -2.8960 -0.1255
10833TIP3    H253915   3.898   2.010   2.991 -0.1593  1.0137 -0.7303
10834TIP3   OH253916   4.177   3.022   1.697  0.1354  0.3144 -0.2930
10834TIP3    H153917   4.132   3.038   1.780  1.9478  0.6493  0.6799
10834TIP3    H253918   4.210   2.933   1.705  0.4869  0.4210 -0.5757
10835TIP3   OH253919   6.253   5.733  14.971 -0.0920 -0.1656 -0.1922
10835TIP3    H153920   6.248   5.676  14.893  5.2688  0.1721 -1.1662
10835TIP3    H253921   6.328   5.700  15.020  1.1266  3.9047  1.0530
10836TIP3   OH253922   0.520   0.984   5.133  0.4859  0.0517 -0.1287
10836TIP3    H153923   0.518   1.050   5.203  0.7900 -0.4897  0.3984
10836TIP3    H253924   0.478   1.027   5.059  1.3978  1.1386 -0.0516
10837TIP3   OH253925   5.455   2.897   6.332  1.2870 -0.0190 -0.2645
10837TIP3    H153926   5.370   2.917   6.372  1.1170 -0.2982 -0.4783
10837TIP3    H253927   5.454   2.802   6.322  0.7019  0.1469 -2.2961
10838TIP3   OH253928   1.747   1.595   0.724  0.0610  0.1700  0.2115
10838TIP3    H153929   1.778   1.635   0.643  1.2565  1.0545  1.0679
10838TIP3    H253930   1.715   1.509   0.698  2.0162 -0.2713 -0.9733
10839TIP3   OH253931   1.144   6.310   2.789 -0.0065  0.1078  0.1934
10839TIP3    H153932   1.107   6.282   2.873  0.5936  0.8395  0.7185
10839TIP3    H253933   1.224   6.259   2.780  1.0093  1.4651  1.0796
10840TIP3   OH253934   1.082   2.546  16.758  0.4226  0.1893 -0.1535
10840TIP3    H153935   1.042   2.625  16.723 -0.2801 -0.0781  0.0208
10840TIP3    H253936   1.082   2.559  16.853 -0.2320 -0.2579 -0.0849
10841TIP3   OH253937   5.434   4.656   4.886  0.1785  0.2716  0.4763
10841TIP3    H153938   5.393   4.638   4.971  0.4894 -0.4461  0.4827
10841TIP3    H253939   5.446   4.750   4.885 -0.5361  0.3778  0.9069
10842TIP3   OH253940   2.396   2.845  15.164  1.2705 -0.2950  0.4375
10842TIP3    H153941   2.398   2.825  15.071 -1.0393 -0.8916  0.4601
10842TIP3    H253942   2.400   2.941  15.168  1.0067 -0.2505 -0.2911
10843TIP3   OH253943   5.988   5.017   1.692  0.0192 -0.7430 -0.3050
10843TIP3    H153944   5.897   5.023   1.665 -0.2151 -2.1717  0.0698
10843TIP3    H253945   6.031   5.091   1.650 -1.5546  0.7359  0.5474
10844TIP3   OH253946   1.027   3.967   0.329 -0.2480 -0.8843  0.2919
10844TIP3    H153947   0.995   3.900   0.270  0.9406 -0.7261 -0.5767
10844TIP3    H253948   1.122   3.962   0.322 -0.1180  0.4637  0.6813
10845TIP3   OH253949   2.120   2.196   1.342 -0.2440  0.5515  0.0922
10845TIP3    H153950   2.210   2.225   1.326 -0.0176 -0.3926 -0.4167
10845TIP3    H253951   2.070   2.227   1.267  0.1158 -0.8307 -0.7531
10846TIP3   OH253952   4.633   5.152   4.020  0.7711  0.2642 -0.1149
10846TIP3    H153953   4.715   5.111   4.047  0.6054 -1.0745 -1.5330
10846TIP3    H253954   4.572   5.132   4.091  1.3280  0.2074  0.3610
10847TIP3   OH253955   2.469   3.801  13.315  0.0728  0.0012 -0.0391
10847TIP3    H153956   2.386   3.848  13.320 -1.2233 -1.9101 -1.7093
10847TIP3    H253957   2.457   3.724  13.369  0.9857 -0.0252  0.1484
10848TIP3   OH253958   4.957   2.137  13.386  0.2415  0.6290 -0.7461
10848TIP3    H153959   4.917   2.050  13.380 -0.8952  0.8088  2.2254
10848TIP3    H253960   4.885   2.194  13.413  1.0381  2.4845 -2.3246
10849TIP3   OH253961   2.259   5.824   2.241 -0.0735  0.2628 -0.6191
10849TIP3    H153962   2.263   5.910   2.282 -1.1244 -0.1878  0.4699
10849TIP3    H253963   2.203   5.836   2.164 -1.9634  0.1438  0.6816
10850TIP3   OH253964   3.508   4.273  16.190 -0.5054  0.5084  0.7420
10850TIP3    H153965   3.443   4.314  16.246 -0.2331 -0.2699  1.6488
10850TIP3    H253966   3.541   4.199  16.241 -0.1901 -0.1708 -0.4070
10851TIP3   OH253967   4.722   4.716  10.772  0.1060 -0.8852 -0.3580
10851TIP3    H153968   4.795   4.778  10.770  0.1591 -0.9216 -2.7572
10851TIP3    H253969   4.764   4.630  10.774  0.1128 -0.8855 -0.4862
10852TIP3   OH253970   6.422   6.463  15.386  0.3643 -0.5112 -0.6044
10852TIP3    H153971   6.429   6.554  15.416 -0.4288 -0.8838  0.8208
10852TIP3    H253972   6.345   6.463  15.329  0.5458 -0.2376 -0.8542
10853TIP3   OH253973   6.055   1.509  17.035  0.3824  0.4498 -0.3148
10853TIP3    H153974   6.049   1.514  17.131 -0.0742  0.1163 -0.3239
10853TIP3    H253975   6.005   1.431  17.012 -2.0144  2.0722 -1.0378
10854TIP3   OH253976   1.021   1.469   3.024  0.3118  0.0192  0.1992
10854TIP3    H153977   0.927   1.468   3.008  0.1811  0.5821  0.8538
10854TIP3    H253978   1.030   1.516   3.108  1.1418 -0.3744  0.3385
10855TIP3   OH253979   5.309   3.264  15.075 -0.2023 -0.3313  0.0170
10855TIP3    H153980   5.393   3.290  15.112  0.6299 -1.2349 -1.1502
10855TIP3    H253981   5.316   3.286  14.982 -1.0164 -0.9792 -0.2092
10856TIP3   OH253982   2.053   2.376   6.388  0.1767  0.2526  0.4629
10856TIP3    H153983   2.032   2.296   6.436 -0.7713  1.4717  2.1717
10856TIP3    H253984   2.064   2.443   6.455  0.8031  1.6074 -0.9286
10857TIP3   OH253985   3.348   4.433   5.771 -0.3069  0.3229 -0.0837
10857TIP3    H153986   3.433   4.445   5.728 -0.6054 -0.4922 -0.9140
10857TIP3    H253987   3.369   4.390   5.854  0.1324  0.6052 -0.0432
10858TIP3   OH253988   0.618   2.841   4.352 -1.0694 -0.3623  0.0858
10858TIP3    H153989   0.581   2.927   4.337  2.9666  1.8719  1.4154
10858TIP3    H253990   0.676   2.826   4.277  0.1722 -0.6740  1.0593
10859TIP3   OH253991   5.096   6.214  12.079  0.4910 -0.4542  0.2616
10859TIP3    H153992   5.115   6.216  12.173  0.3480 -1.0858  0.3099
10859TIP3    H253993   5.020   6.156  12.072  0.0704  0.1297 -0.1754
10860TIP3   OH253994   2.130   3.225   4.375  0.6828  0.2799 -0.4797
10860TIP3    H153995   2.168   3.138   4.381 -0.3261 -0.0571  2.1617
10860TIP3    H253996   2.206   3.284   4.379  1.1915 -0.4312  2.4095
10861TIP3   OH253997   5.642   3.070  10.904  0.3393 -0.1855 -0.6840
10861TIP3    H153998   5.693   2.997  10.940  1.7977  1.2872  0.3483
10861TIP3    H253999   5.666   3.145  10.958 -2.3514  0.7593 -0.6881
10862TIP3   OH254000   5.693   2.947   6.223  0.2041  0.2179 -0.7474
10862TIP3    H154001   5.629   2.889   6.263 -0.0669  0.3452 -0.9984
10862TIP3    H254002   5.772   2.893   6.215 -0.1082 -0.1835 -1.1692
10863TIP3   OH254003   3.061   3.756  11.276 -0.1312 -0.0358 -0.0713
10863TIP3    H154004   3.005   3.695  11.229 -1.8541  0.8079  0.7948
10863TIP3    H254005   3.045   3.737  11.368 -0.8509  1.7858  0.2237
10864TIP3   OH254006   5.047   3.120  13.113 -0.1433  0.4362  0.0673
10864TIP3    H154007   5.062   3.195  13.055 -2.2494  0.9710  0.1206
10864TIP3    H254008   5.028   3.047  13.053 -1.7155  0.8443  0.0382
10865TIP3   OH254009   6.750   5.685  16.487  0.1482  0.3630 -0.2333
10865TIP3    H154010   6.732   5.768  16.444  1.5315  2.0680  2.2407
10865TIP3    H254011   6.827   5.651  16.440  1.1651  1.8029  0.3016
10866TIP3   OH254012   6.429   1.424   6.389 -0.3949 -0.5119  0.2651
10866TIP3    H154013   6.519   1.455   6.385 -0.0730 -1.4590 -0.2358
10866TIP3    H254014   6.434   1.333   6.360 -1.4258 -0.7634  0.8359
10867TIP3   OH254015   4.085   5.953   2.165 -0.3662  0.3201  0.2001
10867TIP3    H154016   4.116   6.040   2.192 -2.1448  0.6892  1.2140
10867TIP3    H254017   4.136   5.933   2.086 -1.1085  3.0750 -1.1089
10868TIP3   OH254018   5.797   4.011   3.826  0.1926 -0.6868  0.0429
10868TIP3    H154019   5.878   4.057   3.801 -0.6128 -0.3768 -2.1880
10868TIP3    H254020   5.775   4.048   3.912  1.9241 -0.1403  0.3060
10869TIP3   OH254021   4.470   4.396   1.115 -0.1617  0.1102  0.2248
10869TIP3    H154022   4.483   4.367   1.025  3.0848  1.7132  0.0126
10869TIP3    H254023   4.527   4.339   1.167 -0.0660  0.8182  0.9136
10870TIP3   OH254024   0.044   6.055   2.669 -0.3763 -0.3722 -0.0126
10870TIP3    H154025   0.104   6.027   2.599 -2.1941 -1.2160 -1.3074
10870TIP3    H254026   0.049   6.151   2.667  0.8411 -0.4128 -0.1280
10871TIP3   OH254027   2.151   4.974  11.973  0.1514 -0.2960 -0.1778
10871TIP3    H154028   2.185   4.942  12.057 -0.5119 -0.6629 -0.0466
10871TIP3    H254029   2.144   4.895  11.919 -0.8042 -0.2790 -0.0936
10872TIP3   OH254030   2.449   3.532   5.403 -0.9629  0.2083 -0.0837
10872TIP3    H154031   2.367   3.541   5.451 -0.1437  0.0850  1.3808
10872TIP3    H254032   2.516   3.529   5.470  0.3220  0.9731 -1.2908
10873TIP3   OH254033   0.041   0.074  13.110 -0.2048 -0.9567  0.2427
10873TIP3    H154034   0.074  -0.013  13.132  1.6820 -0.4562 -0.3660
10873TIP3    H254035   0.095   0.102  13.036 -0.5796  0.8177  0.5929
10874TIP3   OH254036   2.504   1.146  13.657 -0.3492  0.0911 -0.1045
10874TIP3    H154037   2.483   1.193  13.577 -1.8169 -0.1612  0.1112
10874TIP3    H254038   2.420   1.135  13.701 -0.3072 -3.7327 -0.6734
10875TIP3   OH254039   5.580   4.434   5.271 -0.2732  0.5553  0.4559
10875TIP3    H154040   5.588   4.529   5.266  0.3122  0.4765 -0.2584
10875TIP3    H254041   5.507   4.413   5.213  0.4838  0.4640 -0.4965
10876TIP3   OH254042   1.677   5.514   1.674  0.1856  0.0730  0.0936
10876TIP3    H154043   1.648   5.592   1.722 -0.7238  0.8031 -1.5559
10876TIP3    H254044   1.694   5.449   1.742  0.7823  1.6378  1.5048
10877TIP3   OH254045   2.653   2.456  13.137  0.1329  0.1232  0.3895
10877TIP3    H154046   2.590   2.527  13.131 -0.3707 -0.3911 -0.5475
10877TIP3    H254047   2.738   2.498  13.120 -0.0074  0.7086  1.0703
10878TIP3   OH254048   6.619   3.552  13.789  0.6487  0.1569  0.2354
10878TIP3    H154049   6.615   3.636  13.836  1.4932  1.5482 -2.0093
10878TIP3    H254050   6.709   3.522  13.802  1.4708  1.4953 -1.8965
10879TIP3   OH254051   6.312   6.133  13.990  0.8988 -0.7626 -0.3749
10879TIP3    H154052   6.222   6.102  13.995  1.2172 -1.6642 -0.0271
10879TIP3    H254053   6.338   6.149  14.081  1.3033 -1.1815 -0.4080
10880TIP3   OH254054   5.466   6.019  14.241 -0.0642  0.1256 -0.6053
10880TIP3    H154055   5.378   6.007  14.204  0.4223 -0.4176 -1.5973
10880TIP3    H254056   5.458   5.983  14.330 -0.7833 -0.1395 -0.7650
10881TIP3   OH254057   2.130   3.109   3.187 -0.2955 -0.2634  0.7974
10881TIP3    H154058   2.123   3.197   3.149  0.5223 -0.9981 -1.1981
10881TIP3    H254059   2.184   3.121   3.265 -0.8988  1.1177  1.0287
10882TIP3   OH254060   6.595   3.038   4.379 -0.2387  0.3806  0.2032
10882TIP3    H154061   6.554   2.992   4.306  0.4257  0.9447 -0.5431
10882TIP3    H254062   6.643   2.970   4.427  0.5237  0.2366 -0.7387
10883TIP3   OH254063   2.466   1.607  12.193  0.0174 -0.4854  0.3745
10883TIP3    H154064   2.375   1.628  12.171 -0.8788 -2.0819  2.2576
10883TIP3    H254065   2.512   1.611  12.109 -1.9975 -0.5969 -0.8099
10884TIP3   OH254066   3.396   4.772   4.293 -0.0981 -0.1992 -0.9587
10884TIP3    H154067   3.482   4.809   4.274  0.1706 -1.5626 -2.6310
10884TIP3    H254068   3.398   4.755   4.387  0.8488  1.2362 -0.6817
10885TIP3   OH254069   0.079   4.468  15.496  0.0345 -0.3758 -0.2205
10885TIP3    H154070  -0.003   4.489  15.453 -1.1375 -0.6806  1.7204
10885TIP3    H254071   0.147   4.505  15.440 -1.4913  0.9635 -1.2481
10886TIP3   OH254072   1.262   0.276  13.658 -0.1210 -0.0019 -0.3128
10886TIP3    H154073   1.316   0.322  13.723  1.6754 -1.8547 -0.3466
10886TIP3    H254074   1.197   0.229  13.710  0.6186 -0.5991  0.1073
10887TIP3   OH254075   1.501   6.660   2.699 -1.0570  0.2688 -0.1722
10887TIP3    H154076   1.475   6.570   2.719 -0.9569  0.1550 -0.5420
10887TIP3    H254077   1.516   6.700   2.785 -2.7100  0.4321  0.0778
10888TIP3   OH254078   1.131   2.969  12.440  0.1619 -0.1024  0.0763
10888TIP3    H154079   1.101   3.059  12.443 -0.8962 -0.4350 -0.0014
10888TIP3    H254080   1.066   2.924  12.384 -0.3699 -1.2850  1.5767
10889TIP3   OH254081   0.168   2.887   0.737  0.1805 -0.2606  0.3430
10889TIP3    H154082   0.215   2.945   0.677 -0.8733 -0.0577 -0.3171
10889TIP3    H254083   0.089   2.863   0.689 -0.9479  0.3126  1.8494
10890TIP3   OH254084   1.225   1.172  11.718 -0.1360  0.1363  0.4091
10890TIP3    H154085   1.250   1.102  11.658  1.0768  1.3431 -0.5524
10890TIP3    H254086   1.223   1.251  11.664  0.2055  1.1271  1.7886
10891TIP3   OH254087   0.453   0.316  16.293  0.4605  0.1937 -0.5161
10891TIP3    H154088   0.413   0.264  16.363 -0.2870  1.1414 -0.2128
10891TIP3    H254089   0.493   0.252  16.235  1.5145 -0.5979  1.0343
10892TIP3   OH254090   4.349   5.790  12.424 -0.2561 -0.1668  0.2306
10892TIP3    H154091   4.423   5.738  12.455 -1.5324 -1.8604  0.5847
10892TIP3    H254092   4.381   5.881  12.425  1.3364 -0.6970  1.7141
10893TIP3   OH254093   0.072   3.169  15.173  0.0135  0.6427 -0.2837
10893TIP3    H154094   0.042   3.161  15.264 -0.2709  1.4102 -0.3072
10893TIP3    H254095   0.136   3.240  15.175  0.5029  0.2157 -0.5670
10894TIP3   OH254096   3.630   2.208  17.170 -0.1537  0.2957  0.0850
10894TIP3    H154097   3.666   2.296  17.173  0.4759  0.0447  0.1095
10894TIP3    H254098   3.703   2.151  17.195 -0.7812 -0.1666  0.8970
10895TIP3   OH254099   6.306   6.506  14.627  0.0061  0.4474  0.1670
10895TIP3    H154100   6.386   6.532  14.674  0.6425  0.7681 -1.0683
10895TIP3    H254101   6.236   6.556  14.670  0.0616 -1.4812  2.7613
10896TIP3   OH254102   6.740   1.056   0.167  0.3833 -0.4063 -0.8810
10896TIP3    H154103   6.744   1.141   0.209 -0.7747  0.1143 -1.7666
10896TIP3    H254104   6.655   1.055   0.123  0.8305 -1.6001 -1.7679
10897TIP3   OH254105   4.567   1.950  10.906 -0.6949 -0.3191 -0.0976
10897TIP3    H154106   4.613   1.983  10.828 -1.8081 -1.0813 -1.1097
10897TIP3    H254107   4.561   1.855  10.892  1.0663 -0.8381  2.0117
10898TIP3   OH254108   4.217   0.858  12.328 -0.2763  0.2859  0.0612
10898TIP3    H154109   4.265   0.926  12.281  0.3507 -0.1069  0.1205
10898TIP3    H254110   4.260   0.853  12.413  0.5865 -1.1196 -0.4175
10899TIP3   OH254111   6.368   4.819  16.126 -1.0695  0.5347 -0.2134
10899TIP3    H154112   6.301   4.843  16.190  0.1659  0.2237  1.2536
10899TIP3    H254113   6.410   4.741  16.164  0.1631  0.7699 -1.0476
10900TIP3   OH254114   0.649   4.198   2.839 -0.5542 -0.2525  0.1454
10900TIP3    H154115   0.638   4.280   2.790 -2.5021 -0.3010  0.3985
10900TIP3    H254116   0.733   4.207   2.883  1.5441 -0.3779 -3.4963
10901TIP3   OH254117   3.546   3.608   1.494  0.0705 -0.0885  0.1984
10901TIP3    H154118   3.465   3.625   1.447 -1.4863 -2.7559  1.6594
10901TIP3    H254119   3.596   3.551   1.436  0.6199  0.9807 -0.4041
10902TIP3   OH254120   6.069   3.381  16.783  0.0056  0.0161  0.1267
10902TIP3    H154121   6.069   3.287  16.765  1.2868 -0.0908  0.5977
10902TIP3    H254122   6.099   3.388  16.874 -1.6310  0.8084  0.6473
10903TIP3   OH254123   1.089   0.050   5.394  0.1375  0.0640  0.0297
10903TIP3    H154124   1.087   0.102   5.314  0.8860 -0.2383 -0.1935
10903TIP3    H254125   0.998   0.049   5.425 -0.7144 -2.0190 -2.2463
10904TIP3   OH254126   6.473   4.969  13.079  0.4619 -0.1943 -0.0892
10904TIP3    H154127   6.495   5.052  13.037  1.0145 -0.0100  0.5451
10904TIP3    H254128   6.388   4.984  13.119 -0.2930 -0.5194 -1.5129
10905TIP3   OH254129   2.630   4.220  15.758  0.7175  0.2043 -0.0743
10905TIP3    H154130   2.559   4.169  15.797  1.2045  0.3304  1.0312
10905TIP3    H254131   2.591   4.305  15.738  0.7501  0.5744  1.3496
10906TIP3   OH254132   1.800   5.947  13.275  0.2959 -0.1951 -0.6279
10906TIP3    H154133   1.750   6.027  13.293  0.7026  0.2333 -1.3328
10906TIP3    H254134   1.848   5.967  13.194 -1.3176 -1.9182 -2.1201
10907TIP3   OH254135   0.419   0.667   5.087 -0.4268 -0.6979 -0.0763
10907TIP3    H154136   0.441   0.745   5.036  1.0580 -1.2506 -0.3084
10907TIP3    H254137   0.430   0.594   5.026 -0.8695 -1.1846  0.4079
10908TIP3   OH254138   1.318   3.305  11.061 -0.2967  0.0666 -0.0045
10908TIP3    H154139   1.399   3.352  11.081 -0.6706  0.6592  0.1434
10908TIP3    H254140   1.273   3.361  10.997  0.5651 -1.4476 -2.0789
10909TIP3   OH254141   2.071   1.320  10.456  0.2742  0.4680  0.0406
10909TIP3    H154142   2.102   1.408  10.477 -1.1100  1.1619 -0.6500
10909TIP3    H254143   2.146   1.278  10.414  0.8730  1.4214  0.1176
10910TIP3   OH254144   6.395   4.626   4.292 -0.3544 -0.6345 -0.2657
10910TIP3    H154145   6.362   4.585   4.372  0.6041 -1.6491 -0.3715
10910TIP3    H254146   6.389   4.558   4.225 -0.6339  0.0337 -0.9359
10911TIP3   OH254147   2.943   6.037   0.288 -0.7770  0.1503  0.1079
10911TIP3    H154148   2.945   6.112   0.347  1.5121 -1.3827  2.1587
10911TIP3    H254149   2.968   6.073   0.203  1.9401  1.5409  1.3776
10912TIP3   OH254150   2.062   6.307   5.868  0.1082 -0.1915 -0.2324
10912TIP3    H154151   2.003   6.380   5.849  1.1362  0.8524  0.4312
10912TIP3    H254152   2.005   6.232   5.878 -0.8726  0.2103 -2.3282
10913TIP3   OH254153   6.233   6.575   1.814 -0.1634  0.0976 -0.1654
10913TIP3    H154154   6.295   6.555   1.744 -0.7613  1.1572 -1.0245
10913TIP3    H254155   6.282   6.630   1.875  0.3080 -0.6877  0.1795
10914TIP3   OH254156   1.524   4.308   4.981 -0.3962  0.0530  0.0551
10914TIP3    H154157   1.570   4.240   4.931 -0.5739  0.4394 -0.6551
10914TIP3    H254158   1.529   4.278   5.072  0.0736 -0.5915 -0.1688
10915TIP3   OH254159   5.508   3.505   3.279  0.4099 -0.2404  0.2188
10915TIP3    H154160   5.537   3.428   3.328 -0.5284 -1.4929 -1.1356
10915TIP3    H254161   5.531   3.485   3.188 -0.3460  0.8488 -0.2241
10916TIP3   OH254162   6.686   4.674   4.157 -0.0852 -0.3500 -0.0637
10916TIP3    H154163   6.718   4.704   4.071  0.9842  1.1813  0.8247
10916TIP3    H254164   6.606   4.725   4.172  0.8551  0.9293  0.7363
10917TIP3   OH254165   4.547   6.742  15.556  0.5900  0.1222  0.0333
10917TIP3    H154166   4.513   6.697  15.633  0.0488  0.9556  0.2992
10917TIP3    H254167   4.563   6.673  15.492  0.0770 -0.4673  0.5339
10918TIP3   OH254168   1.475   0.525  13.780 -0.2115 -0.2567 -0.0640
10918TIP3    H154169   1.427   0.604  13.804 -0.6855 -0.7024  0.4669
10918TIP3    H254170   1.480   0.474  13.861  1.7468  0.0763  0.0790
10919TIP3   OH254171   6.705   2.374   6.512  0.5334 -0.1785 -0.4133
10919TIP3    H154172   6.727   2.466   6.523 -0.1361  0.1825 -1.9312
10919TIP3    H254173   6.625   2.362   6.563  0.2529  0.2398 -0.7570
10920TIP3   OH254174   6.501   0.600   3.426 -0.7890  0.7125  0.1848
10920TIP3    H154175   6.462   0.609   3.340  1.4910  1.8690 -0.8071
10920TIP3    H254176   6.440   0.644   3.485 -1.9128  0.7437 -0.9605
10921TIP3   OH254177   1.807   1.530   2.481 -0.3316 -0.0733 -0.4198
10921TIP3    H154178   1.720   1.490   2.489 -0.7253  0.6643 -0.9174
10921TIP3    H254179   1.867   1.456   2.484 -0.9310 -0.5375  0.6113
10922TIP3   OH254180   3.052   5.444   1.513  0.3568  0.3495  0.3665
10922TIP3    H154181   3.097   5.528   1.508 -0.3441  0.7236  0.2004
10922TIP3    H254182   2.965   5.465   1.546  0.3676 -0.3896  0.9045
10923TIP3   OH254183   6.744   2.652   6.577 -0.4771  0.3837 -0.1610
10923TIP3    H154184   6.778   2.739   6.555 -0.7580  0.4495 -0.3377
10923TIP3    H254185   6.657   2.668   6.613 -1.2807  0.0524 -1.8790
10924TIP3   OH254186   5.737   3.830  16.492 -0.5820 -0.4576 -0.6083
10924TIP3    H154187   5.709   3.881  16.416 -0.6753 -0.9904 -0.9372
10924TIP3    H254188   5.804   3.770  16.458 -0.1317 -0.2349 -0.1319
10925TIP3   OH254189   4.233   4.196  14.128  0.2349 -0.0254  0.3464
10925TIP3    H154190   4.171   4.129  14.098 -0.1186  0.6600 -0.5206
10925TIP3    H254191   4.182   4.250  14.188 -1.0838  2.3838 -2.6241
10926TIP3   OH254192   3.007   3.711   6.068 -0.0064 -0.3416 -0.0217
10926TIP3    H154193   3.027   3.699   6.161  2.3530 -0.1522 -0.4337
10926TIP3    H254194   3.012   3.806   6.055 -0.9628 -0.3170 -0.2240
10927TIP3   OH254195   2.443   6.746   4.125 -0.2094  0.0145 -0.0127
10927TIP3    H154196   2.447   6.652   4.142  2.0087  0.2128  0.9800
10927TIP3    H254197   2.468   6.755   4.033 -1.3056 -0.4139 -0.3558
10928TIP3   OH254198   1.331   0.691  15.441  0.5104  0.1202 -0.0862
10928TIP3    H154199   1.390   0.623  15.407 -0.3828 -0.5842 -0.2708
10928TIP3    H254200   1.280   0.718  15.365  0.2012  0.3186  0.1911
10929TIP3   OH254201   4.328   1.155  12.997 -0.5710  0.2172 -0.0497
10929TIP3    H154202   4.380   1.185  13.072  0.3108 -1.8045  0.2095
10929TIP3    H254203   4.387   1.159  12.923 -1.3687  1.9638 -0.6440
10930TIP3   OH254204   0.822   4.671  11.516 -0.3372  0.2274 -0.0076
10930TIP3    H154205   0.751   4.725  11.482 -0.6849  0.9400  1.7312
10930TIP3    H254206   0.874   4.731  11.570  0.8504 -0.5752 -0.2315
10931TIP3   OH254207   0.021   3.351  17.032 -0.5573 -0.6394 -0.7883
10931TIP3    H154208   0.053   3.349  17.122  0.4800 -0.3399 -1.1290
10931TIP3    H254209   0.075   3.286  16.986  0.0982  0.4096 -1.5447
10932TIP3   OH254210   3.546   0.277  16.234  0.3497  0.4757 -0.0286
10932TIP3    H154211   3.463   0.237  16.209  1.0703 -1.0963 -0.0322
10932TIP3    H254212   3.556   0.350  16.173 -1.3607  1.1696  0.4619
10933TIP3   OH254213   6.618   3.695   0.911  0.4806 -0.3079 -0.3115
10933TIP3    H154214   6.579   3.611   0.936  0.1768 -0.5631 -1.5789
10933TIP3    H254215   6.632   3.741   0.994  1.5231 -1.9847  0.5110
10934TIP3   OH254216   6.198   4.222   2.450 -0.0516 -0.0229  0.2886
10934TIP3    H154217   6.283   4.259   2.474  1.6600 -1.9747 -2.2629
10934TIP3    H254218   6.153   4.210   2.534  3.3004 -1.4294  2.0985
10935TIP3   OH254219   4.108   3.469  17.014  0.5697 -0.2084  0.4527
10935TIP3    H154220   4.133   3.429  17.098  0.9078 -0.5716  0.1835
10935TIP3    H254221   4.155   3.417  16.948 -1.6720 -1.5853 -0.1718
10936TIP3   OH254222   6.455   6.301  16.690  0.1701 -0.0922 -0.1446
10936TIP3    H154223   6.482   6.295  16.781 -0.5687  0.8282  0.1420
10936TIP3    H254224   6.518   6.361  16.650  1.1987 -1.3810 -0.5390
10937TIP3   OH254225   4.804   2.331   5.700 -0.1808  0.0291  0.3756
10937TIP3    H154226   4.898   2.345   5.693 -0.1983  0.7140  1.3676
10937TIP3    H254227   4.769   2.415   5.730 -0.9280 -0.6301  1.4076
10938TIP3   OH254228   0.836   0.003  15.054  0.3453  0.2183 -0.5402
10938TIP3    H154229   0.881  -0.080  15.070 -2.0195 -0.7556  2.0282
10938TIP3    H254230   0.764  -0.020  14.995 -2.0811 -0.3990  2.4064
10939TIP3   OH254231   4.524   3.268  13.061 -0.0011  0.0659 -0.1890
10939TIP3    H154232   4.458   3.317  13.011  0.0170 -1.1296 -1.4347
10939TIP3    H254233   4.553   3.329  13.129 -2.8218  0.4399  0.8085
10940TIP3   OH254234   0.421   2.022   1.417 -0.3724 -0.5010  0.1455
10940TIP3    H154235   0.467   2.026   1.501  0.2980  1.9542 -0.2635
10940TIP3    H254236   0.469   1.957   1.366  0.6520 -0.3257  0.8617
10941TIP3   OH254237   2.760   2.840  13.388 -0.2694 -0.5520 -0.2141
10941TIP3    H154238   2.803   2.875  13.466  1.0340  0.9211 -1.5214
10941TIP3    H254239   2.785   2.748  13.387 -1.1380 -0.8409  1.6202
10942TIP3   OH254240   5.144   6.448  16.551 -0.0642 -0.4130 -0.1922
10942TIP3    H154241   5.178   6.411  16.632 -0.1000 -0.1844 -0.0729
10942TIP3    H254242   5.060   6.402  16.537  1.5256 -3.0761 -1.9812
10943TIP3   OH254243   1.661   4.924   4.943 -0.3903 -0.4424  0.1106
10943TIP3    H154244   1.672   5.003   4.891  0.0448 -0.4594  0.1763
10943TIP3    H254245   1.588   4.944   5.002 -0.9007 -0.4328 -0.5161
10944TIP3   OH254246   5.335   4.890   3.909 -0.2368  0.7960  0.3466
10944TIP3    H154247   5.343   4.961   3.973 -0.0982  1.3792 -0.2949
10944TIP3    H254248   5.404   4.908   3.845 -0.9421  0.7446 -0.4517
10945TIP3   OH254249   3.392   4.356   3.617  0.5380  0.3646  0.1300
10945TIP3    H154250   3.336   4.373   3.693 -0.3485  0.3699 -0.5041
10945TIP3    H254251   3.332   4.320   3.551  1.6305 -1.5191  0.0970
10946TIP3   OH254252   0.781   2.929  15.057  0.3699 -0.2106  0.1252
10946TIP3    H154253   0.752   2.839  15.066 -2.8851  0.6428 -0.5813
10946TIP3    H254254   0.827   2.932  14.974 -1.2109 -0.8992 -0.8221
10947TIP3   OH254255   4.668   6.491  16.114 -0.4235  0.2365  0.1754
10947TIP3    H154256   4.656   6.483  16.209  2.3908 -1.1663  0.5094
10947TIP3    H254257   4.715   6.574  16.103  0.0859 -0.0589  0.1121
10948TIP3   OH254258   2.409   6.312   4.518 -0.6856  0.1912 -0.0752
10948TIP3    H154259   2.369   6.272   4.441 -2.3840 -1.4171  1.5106
10948TIP3    H254260   2.377   6.402   4.519 -1.1865  0.0265 -0.8830
10949TIP3   OH254261   0.429   2.329   4.367 -0.9876 -0.5119  0.1288
10949TIP3    H154262   0.439   2.234   4.372  0.9295 -0.3617 -0.0318
10949TIP3    H254263   0.460   2.361   4.452  2.3706  0.1498 -1.1745
10950TIP3   OH254264   5.315   1.607   1.458  0.3027  0.0539  0.0306
10950TIP3    H154265   5.272   1.592   1.374 -0.3565 -0.1302  0.3894
10950TIP3    H254266   5.339   1.520   1.489 -0.7277 -0.0324  0.6715
10951TIP3   OH254267   4.415   2.298  13.287  0.4722  0.4047  0.0202
10951TIP3    H154268   4.346   2.361  13.309 -0.1086  0.1285 -0.9901
10951TIP3    H254269   4.416   2.295  13.192  0.5218 -1.0911  0.0531
10952TIP3   OH254270   1.129   0.376  16.646 -0.0964  0.2516 -0.2176
10952TIP3    H154271   1.065   0.342  16.709  0.5250 -1.0601 -0.2651
10952TIP3    H254272   1.122   0.471  16.654 -2.5589  0.1706 -0.7599
10953TIP3   OH254273   2.227   2.158  13.928  0.1382 -0.3651 -0.1913
10953TIP3    H154274   2.230   2.169  13.833  0.3972 -0.0229 -0.1445
10953TIP3    H254275   2.298   2.096  13.947  1.9437  1.6961  0.0692
10954TIP3   OH254276   5.021   3.892   4.474 -0.1426  0.0354 -0.2231
10954TIP3    H154277   5.081   3.899   4.400  1.2901 -0.9772  0.7875
10954TIP3    H254278   5.020   3.798   4.494 -1.6057  0.1199  0.1709
10955TIP3   OH254279   6.173   3.207   1.499 -0.6006 -0.0769  0.2820
10955TIP3    H154280   6.234   3.277   1.522  1.4896 -1.6565 -0.1209
10955TIP3    H254281   6.165   3.155   1.579 -0.0334 -0.8354 -0.1413
10956TIP3   OH254282   1.768   2.924   3.387 -0.3752 -0.3432  0.1976
10956TIP3    H154283   1.802   2.995   3.332 -0.0210 -1.2159 -0.7440
10956TIP3    H254284   1.777   2.845   3.333 -1.7239 -0.9651  0.8151
10957TIP3   OH254285   4.447   1.334   5.888 -0.1289 -0.2544  0.1088
10957TIP3    H154286   4.452   1.323   5.793  0.7198 -0.5484  0.1852
10957TIP3    H254287   4.537   1.351   5.916 -0.6473  2.0204  0.6080
10958TIP3   OH254288   6.301   0.761  15.014  0.4472 -0.0881 -0.1701
10958TIP3    H154289   6.328   0.673  15.038 -0.8167 -1.2891 -2.8235
10958TIP3    H254290   6.309   0.811  15.096  0.4379 -2.7999  1.6167
10959TIP3   OH254291   2.151   6.727   4.513 -0.0936 -0.2648  0.3306
10959TIP3    H154292   2.221   6.793   4.512 -0.4707  0.3194  3.2556
10959TIP3    H254293   2.070   6.777   4.506 -0.3202 -0.8478 -1.8451
10960TIP3   OH254294   2.395   2.272  17.180  0.7410  0.2067  0.7855
10960TIP3    H154295   2.471   2.257  17.236  0.6058 -1.7786  0.5000
10960TIP3    H254296   2.432   2.298  17.096  1.0676  0.1155  0.9002
10961TIP3   OH254297   6.400   3.300   0.424 -0.2672 -0.0341  0.2087
10961TIP3    H154298   6.420   3.347   0.505  1.3266 -0.7037  0.2388
10961TIP3    H254299   6.475   3.242   0.410 -1.3237 -1.2300 -0.8109
10962TIP3   OH254300   1.350   3.740   4.425 -0.0752  0.4274  0.1682
10962TIP3    H154301   1.399   3.755   4.506  0.4924 -0.1907 -0.0516
10962TIP3    H254302   1.346   3.645   4.416  0.8284  0.4714 -1.0847
10963TIP3   OH254303   0.854   2.106   5.124  0.3001  1.4017  0.6583
10963TIP3    H154304   0.841   2.181   5.065 -1.6534  0.7449  0.1844
10963TIP3    H254305   0.804   2.129   5.203 -1.8370 -0.1047 -0.1804
10964TIP3   OH254306   0.732   3.633   2.002 -0.7694  0.0337 -0.5792
10964TIP3    H154307   0.754   3.695   2.071 -1.2828  0.1882 -0.5574
10964TIP3    H254308   0.722   3.686   1.923  1.1959 -0.2757 -1.1060
10965TIP3   OH254309   6.141   3.570  12.591 -0.5081 -0.4719 -0.1499
10965TIP3    H154310   6.064   3.602  12.639 -0.5597 -0.1543 -0.4408
10965TIP3    H254311   6.180   3.649  12.553  0.1013 -0.5993  0.1965
10966TIP3   OH254312   0.497   1.481  15.924 -1.1404  0.1316 -0.0879
10966TIP3    H154313   0.415   1.499  15.971 -0.5349 -1.2280  1.6050
10966TIP3    H254314   0.473   1.489  15.832 -2.1743  3.8095  0.3275
10967TIP3   OH254315   4.047   2.446  14.352 -0.6062 -0.2813 -0.0807
10967TIP3    H154316   4.098   2.433  14.431  1.4860  0.5885 -1.2059
10967TIP3    H254317   4.048   2.360  14.308  2.0628  0.2509 -1.2438
10968TIP3   OH254318   2.588   4.147   1.433  0.4956 -0.3426  0.3187
10968TIP3    H154319   2.512   4.198   1.461  0.8050  0.3703 -0.1162
10968TIP3    H254320   2.653   4.213   1.407  0.8592 -0.9571 -0.3624
10969TIP3   OH254321   5.372   4.300  17.064 -0.3695  0.3188 -0.2626
10969TIP3    H154322   5.305   4.284  16.997  0.1115  0.8547 -0.8895
10969TIP3    H254323   5.446   4.334  17.015  0.0153  0.6691  0.5501
10970TIP3   OH254324   6.688   2.122  14.200  0.1578  0.7660  0.1882
10970TIP3    H154325   6.633   2.168  14.137 -0.8802 -0.8904 -0.1457
10970TIP3    H254326   6.777   2.151  14.179 -0.0659 -0.2081 -2.5109
10971TIP3   OH254327   4.723   0.151  12.568 -0.0543  0.0131  0.0707
10971TIP3    H154328   4.754   0.078  12.622 -0.0965  1.4853  2.2007
10971TIP3    H254329   4.804   0.194  12.538 -0.0346 -0.2284 -0.2286
10972TIP3   OH254330   2.403   6.103  11.328 -0.3544  0.3571 -0.0700
10972TIP3    H154331   2.365   6.165  11.391 -1.0855 -0.2101  0.0584
10972TIP3    H254332   2.413   6.154  11.248  0.0731  0.9359  0.3449
10973TIP3   OH254333   4.368   4.217  12.555 -0.1007 -0.2000 -0.1521
10973TIP3    H154334   4.296   4.162  12.525  0.1970 -1.4093  1.2275
10973TIP3    H254335   4.326   4.297  12.586 -0.8541 -0.8566  0.5642
10974TIP3   OH254336   5.672   3.066  14.822 -0.5297 -0.2703 -0.6731
10974TIP3    H154337   5.758   3.023  14.826  0.0745  0.7527 -2.0811
10974TIP3    H254338   5.667   3.118  14.902  1.0906  1.3101 -1.5417
10975TIP3   OH254339   0.421   5.341   3.328  0.0781 -0.0230 -0.1907
10975TIP3    H154340   0.419   5.360   3.234  0.6302  2.0702  0.1720
10975TIP3    H254341   0.329   5.328   3.352  0.0240 -1.8680 -1.2150
10976TIP3   OH254342   1.150   1.614   5.837 -0.1389 -0.5930  0.7257
10976TIP3    H154343   1.208   1.538   5.840 -1.2681 -1.4783  1.1700
10976TIP3    H254344   1.201   1.684   5.877  0.8492 -1.1738  0.5285
10977TIP3   OH254345   4.340   0.032   5.844 -0.4206  0.2473 -0.8780
10977TIP3    H154346   4.389   0.091   5.786  0.3023 -1.2054 -1.7935
10977TIP3    H254347   4.340   0.077   5.929  2.3289  0.4510 -0.8924
10978TIP3   OH254348   6.771   2.530  11.745 -0.3274  0.4806  0.2227
10978TIP3    H154349   6.685   2.497  11.772 -0.3382  1.1267  1.0023
10978TIP3    H254350   6.768   2.527  11.649 -0.9523 -0.1711  0.2527
10979TIP3   OH254351   2.271   6.734  15.168 -0.4542 -0.0614  0.2829
10979TIP3    H154352   2.256   6.757  15.076  2.7251  1.0161 -0.0989
10979TIP3    H254353   2.288   6.818  15.211 -1.3365 -0.6113  1.7724
10980TIP3   OH254354   3.541   4.022  13.155 -0.8671  0.0310 -0.0571
10980TIP3    H154355   3.621   4.042  13.203 -0.4089 -1.1961 -0.2825
10980TIP3    H254356   3.518   4.103  13.111  0.2259  0.4018  0.0407
10981TIP3   OH254357   6.311   5.106   2.801  0.3693  0.5188  0.1978
10981TIP3    H154358   6.347   5.022   2.830  1.0824  0.3531 -1.0422
10981TIP3    H254359   6.225   5.112   2.842  0.4745 -0.6359  0.6212
10982TIP3   OH254360   5.968   3.631   0.950 -0.0580 -0.2584  0.6234
10982TIP3    H154361   5.957   3.546   0.907  0.5647  0.3994 -0.9505
10982TIP3    H254362   5.907   3.689   0.903 -0.5097  0.1634  1.7034
10983TIP3   OH254363   3.544   1.972  16.544  0.1046  0.2507 -0.4957
10983TIP3    H154364   3.462   2.014  16.518  0.8234  1.4042 -0.9863
10983TIP3    H254365   3.541   1.885  16.504 -1.8456 -0.6084  1.3456
10984TIP3   OH254366   4.078   6.116   5.093  0.0223 -0.3524 -0.1043
10984TIP3    H154367   4.164   6.076   5.089  0.4400  0.5406 -0.1990
10984TIP3    H254368   4.065   6.154   5.006  0.8109  2.0924  0.7874
10985TIP3   OH254369   1.502   1.653  15.858 -0.1482  0.3493  0.4376
10985TIP3    H154370   1.529   1.742  15.882  1.7270 -0.3156  0.9253
10985TIP3    H254371   1.419   1.641  15.905  0.5335  1.1774  1.9556
10986TIP3   OH254372   2.185   2.320  14.382  0.4729 -0.6032 -0.2929
10986TIP3    H154373   2.195   2.412  14.358 -0.9036 -0.4168 -0.2740
10986TIP3    H254374   2.260   2.276  14.342  1.6712  0.6474  0.4773
10987TIP3   OH254375   6.716   2.875   5.850 -0.1619 -0.3512 -0.4949
10987TIP3    H154376   6.660   2.927   5.792  1.3302  0.2739 -1.4571
10987TIP3    H254377   6.727   2.929   5.928 -0.9359 -0.5018 -0.2813
10988TIP3   OH254378   5.144   5.710  14.750  0.2011  0.2132  0.7660
10988TIP3    H154379   5.148   5.644  14.820  1.0116 -0.4679  0.1075
10988TIP3    H254380   5.066   5.762  14.770  1.4790  1.3322  3.3175
10989TIP3   OH254381   3.531   5.430  13.424 -0.2059  0.3437  0.5412
10989TIP3    H154382   3.592   5.502  13.441  1.2801 -0.4344 -1.2146
10989TIP3    H254383   3.463   5.469  13.370 -1.0762  1.0977  2.1011
10990TIP3   OH254384   2.042   6.511  15.998 -0.8076  0.0958  0.3887
10990TIP3    H154385   2.129   6.549  16.000 -0.4579 -0.6737  1.9844
10990TIP3    H254386   1.988   6.571  16.049 -0.2704 -1.3546  2.8509
10991TIP3   OH254387   6.043   5.993  11.190 -0.1574  0.3865 -0.3943
10991TIP3    H154388   6.009   6.082  11.186 -0.6231  0.3326  1.4478
10991TIP3    H254389   6.027   5.957  11.103  0.0847  2.1059 -1.1840
10992TIP3   OH254390   6.435   2.345  12.987  0.2127  0.2989 -0.0389
10992TIP3    H154391   6.481   2.400  13.050  2.3600 -1.2535 -0.1465
10992TIP3    H254392   6.351   2.326  13.029  0.3964  1.7119  1.0252
10993TIP3   OH254393   5.045   5.643   5.737  0.0399  0.1125 -0.3404
10993TIP3    H154394   5.116   5.585   5.764  0.1036 -0.6673 -2.0234
10993TIP3    H254395   4.994   5.658   5.817  1.1865 -0.6022  0.5597
10994TIP3   OH254396   4.035   5.391   5.076 -0.2868 -0.4065  0.0736
10994TIP3    H154397   4.007   5.482   5.079 -0.4639 -0.3396 -2.2148
10994TIP3    H254398   3.955   5.340   5.088 -0.2762 -0.2836  0.7241
10995TIP3   OH254399   3.037   1.921   1.340 -0.2923 -0.1288 -0.2505
10995TIP3    H154400   2.979   1.886   1.272  0.6619 -0.7377 -0.7735
10995TIP3    H254401   3.043   1.852   1.406  0.5575 -0.4587 -0.6527
10996TIP3   OH254402   4.581   3.084   6.376  0.1401  0.2850 -0.1696
10996TIP3    H154403   4.565   3.033   6.455  3.3650 -0.3754  0.2019
10996TIP3    H254404   4.600   3.173   6.408 -0.4856  0.4987 -0.3819
10997TIP3   OH254405   3.388   2.744   4.952 -0.2267 -0.0289  0.2032
10997TIP3    H154406   3.402   2.717   5.042  0.0598 -0.6887 -0.0290
10997TIP3    H254407   3.472   2.779   4.924 -0.6868  1.4646  0.6063
10998TIP3   OH254408   0.938   4.047  13.298 -0.0152  0.0574  0.2185
10998TIP3    H154409   1.002   4.043  13.370 -0.0915 -0.9309  0.2393
10998TIP3    H254410   0.856   4.071  13.340 -0.2829 -1.4805  0.6371
10999TIP3   OH254411   0.939   1.692   4.775 -0.3286  0.1764 -0.2486
10999TIP3    H154412   0.980   1.746   4.843 -0.6667 -0.3775  0.4038
10999TIP3    H254413   0.860   1.658   4.816 -1.6942  1.5548 -1.6181
11000TIP3   OH254414   6.077   3.319  13.544 -0.1624 -0.6206 -0.4682
11000TIP3    H154415   6.020   3.340  13.618  0.6464  1.2246 -0.3390
11000TIP3    H254416   6.162   3.300  13.583  1.0582  3.0739 -0.9380
11001TIP3   OH254417   2.324   4.871  12.217  0.4497 -0.3120 -0.2562
11001TIP3    H154418   2.404   4.841  12.176 -0.4783 -2.1018 -0.8777
11001TIP3    H254419   2.337   4.855  12.310 -0.0296 -2.9288 -0.5559
11002TIP3   OH254420   3.878   1.818   0.831 -0.2458  0.2837 -0.3014
11002TIP3    H154421   3.956   1.773   0.799 -0.3628  2.0268 -3.3888
11002TIP3    H254422   3.885   1.907   0.796 -2.8686  0.9534  0.6488
11003TIP3   OH254423   2.837   2.403   4.457  0.4029 -0.0563  0.0549
11003TIP3    H154424   2.925   2.408   4.420  0.6246 -2.1820  0.1647
11003TIP3    H254425   2.848   2.427   4.549  1.0110 -1.0476  0.2454
11004TIP3   OH254426   6.398   3.500  12.755 -0.2199 -0.0070  0.0553
11004TIP3    H154427   6.388   3.479  12.848  1.3974 -1.4578 -0.0470
11004TIP3    H254428   6.489   3.478  12.735 -1.2441 -2.5958 -2.5167
11005TIP3   OH254429   0.860   2.616   2.589 -0.1047  0.0460  0.5709
11005TIP3    H154430   0.914   2.628   2.667  1.0477 -0.7944 -0.0803
11005TIP3    H254431   0.857   2.703   2.548  1.9896 -0.1729 -0.1515
11006TIP3   OH254432   0.724   5.934  14.955 -0.0127 -0.9680 -0.0714
11006TIP3    H154433   0.724   5.842  14.981 -1.9001 -1.4218 -1.4592
11006TIP3    H254434   0.724   5.932  14.859  0.1641  0.4918 -0.1199
11007TIP3   OH254435   4.423   4.677  14.628  0.4764  0.2566  0.3797
11007TIP3    H154436   4.459   4.595  14.664  0.3151  0.3033  0.6562
11007TIP3    H254437   4.350   4.648  14.572  1.1208  0.1441 -0.4096
11008TIP3   OH254438   3.980   5.044   2.545 -0.2988 -0.3607  0.8882
11008TIP3    H154439   3.942   5.088   2.620 -1.2324 -2.7266  1.8960
11008TIP3    H254440   3.905   5.020   2.490  0.1112 -1.2769  0.7146
11009TIP3   OH254441   3.004   3.470   1.222  0.0926 -0.2603 -0.7278
11009TIP3    H154442   3.016   3.482   1.316  0.5394 -1.4404 -0.6068
11009TIP3    H254443   3.072   3.407   1.198  0.5625  0.6973 -2.0135
11010TIP3   OH254444   0.034   0.994  14.197 -0.4015 -0.3302 -0.4652
11010TIP3    H154445   0.049   1.053  14.271 -0.7200 -0.7314 -0.0724
11010TIP3    H254446   0.048   1.048  14.120 -0.5862  0.2281 -0.1106
11011TIP3   OH254447   3.410   1.912  10.920 -0.4360  0.1471  0.5590
11011TIP3    H154448   3.434   2.000  10.948 -1.0296  0.6014 -0.3138
11011TIP3    H254449   3.480   1.856  10.952  0.6609  1.1308 -0.0487
11012TIP3   OH254450   4.067   3.709   3.796  0.9437  0.0864  0.1821
11012TIP3    H154451   3.998   3.665   3.748  1.4946 -2.3877  1.4668
11012TIP3    H254452   4.022   3.772   3.852  0.2934  2.9444 -3.2653
11013TIP3   OH254453   3.398   2.597   3.432  0.2432  0.2307 -0.3093
11013TIP3    H154454   3.311   2.616   3.468  0.5827 -0.2798  0.8314
11013TIP3    H254455   3.430   2.524   3.484  1.8353  1.1512  0.0693
11014TIP3   OH254456   2.267   3.861  13.742  0.1767  0.0127  0.2061
11014TIP3    H154457   2.205   3.793  13.718 -0.7357  1.0704 -0.5282
11014TIP3    H254458   2.351   3.816  13.747 -0.3675 -1.1209 -0.4749
11015TIP3   OH254459   6.045   4.533   1.376 -0.1441 -0.1031 -0.3413
11015TIP3    H154460   6.091   4.464   1.329  1.4795  0.4211  0.4074
11015TIP3    H254461   6.059   4.511   1.468  1.5768  1.8999 -0.0572
11016TIP3   OH254462   3.848   2.610  13.357 -0.0840 -0.1482 -0.2181
11016TIP3    H154463   3.937   2.638  13.338 -0.3477  1.7571  1.1152
11016TIP3    H254464   3.804   2.613  13.272  0.4061  1.7623 -0.4487
11017TIP3   OH254465   5.179   5.485   6.101 -0.0924  0.1545  0.0989
11017TIP3    H154466   5.226   5.522   6.025  1.5552  0.0344  1.0060
11017TIP3    H254467   5.155   5.561   6.154 -0.5689  0.1881 -0.1601
11018TIP3   OH254468   4.773   2.510  16.131  0.0456  0.1693  0.9437
11018TIP3    H154469   4.712   2.550  16.068  1.1379  0.7183  0.2053
11018TIP3    H254470   4.842   2.575  16.142 -0.1748  0.1197  2.8192
11019TIP3   OH254471   1.392   5.096  13.150  0.4647 -0.0868  0.1800
11019TIP3    H154472   1.380   5.142  13.233 -1.2594  0.7832 -0.5055
11019TIP3    H254473   1.325   5.027  13.151  2.0421 -1.6983  0.5367
11020TIP3   OH254474   4.496   2.671   5.899 -0.0452  1.1169  0.1638
11020TIP3    H154475   4.456   2.710   5.822  0.2409 -0.0160 -0.5733
11020TIP3    H254476   4.541   2.744   5.942 -0.9374  1.9277 -0.2489
11021TIP3   OH254477   6.144   0.063   6.476 -0.0810 -0.0801  0.1955
11021TIP3    H154478   6.209   0.035   6.413  2.8000  1.1136  2.3759
11021TIP3    H254479   6.126  -0.014   6.530  3.1610  0.4985  2.3772
11022TIP3   OH254480   3.026   3.280   4.389  0.0769  0.2879  0.2727
11022TIP3    H154481   2.934   3.292   4.410 -0.0170 -0.3267  0.2234
11022TIP3    H254482   3.065   3.367   4.398 -0.4672  0.5063  0.4870
11023TIP3   OH254483   6.692   6.033  11.223  0.0993  0.1486 -0.5994
11023TIP3    H154484   6.653   5.955  11.263 -0.0715 -0.4504 -1.8749
11023TIP3    H254485   6.763   5.999  11.169  0.8051  1.0059 -0.2424
11024TIP3   OH254486   2.830   0.334  11.473 -0.6900  0.2820  0.2552
11024TIP3    H154487   2.739   0.361  11.461 -0.5776  0.7633  0.4507
11024TIP3    H254488   2.851   0.359  11.564 -0.1607  0.7839  0.0044
11025TIP3   OH254489   4.689   2.167   2.744  0.1718 -0.2270  0.5676
11025TIP3    H154490   4.728   2.168   2.657  0.6816  1.1057  0.8004
11025TIP3    H254491   4.620   2.100   2.737  0.6356 -0.6228 -0.6490
11026TIP3   OH254492   1.351   6.330  14.285 -0.3480 -0.0169  0.2156
11026TIP3    H154493   1.433   6.377  14.297 -0.9901  1.0751  0.4563
11026TIP3    H254494   1.321   6.311  14.374  0.2214 -1.4950  0.1228
11027TIP3   OH254495   1.243   5.098  16.379 -0.8726  0.1777  0.4000
11027TIP3    H154496   1.154   5.069  16.360 -1.3625  1.4506  0.6923
11027TIP3    H254497   1.239   5.134  16.467  0.4915 -1.9136  1.4176
11028TIP3   OH254498   3.824   0.624   5.178 -0.5038 -0.5601  0.4863
11028TIP3    H154499   3.765   0.564   5.133  0.4398 -0.9022 -0.3423
11028TIP3    H254500   3.857   0.575   5.252  0.7325 -1.3217 -0.5275
11029TIP3   OH254501   2.579   0.291  15.252  0.4875  0.3332 -0.1529
11029TIP3    H154502   2.541   0.332  15.174 -0.8942  0.9805  0.8082
11029TIP3    H254503   2.604   0.204  15.223 -3.4573 -0.8835 -0.5370
11030TIP3   OH254504   2.004   1.090  15.461  0.5473  0.7214 -0.7964
11030TIP3    H154505   2.059   1.168  15.465 -0.8826  1.7316 -0.2875
11030TIP3    H254506   2.021   1.045  15.544  1.3541  0.4804 -1.0816
11031TIP3   OH254507   2.202   0.245   1.225  0.6689 -0.1175 -0.5914
11031TIP3    H154508   2.256   0.324   1.219 -0.1561  0.6549  1.3688
11031TIP3    H254509   2.186   0.234   1.319 -2.3919 -0.4418 -1.0670
11032TIP3   OH254510   6.564   1.264   3.365  0.0503 -0.3027 -0.2957
11032TIP3    H154511   6.540   1.288   3.276  0.8682 -0.1476 -0.4824
11032TIP3    H254512   6.561   1.169   3.366  0.2818 -0.3164 -0.5703
11033TIP3   OH254513   2.619   2.481  15.674 -0.3568  0.2001  0.0885
11033TIP3    H154514   2.658   2.564  15.701 -0.8490  0.2477  0.6889
11033TIP3    H254515   2.658   2.415  15.732  2.0842 -0.4581 -2.1211
11034TIP3   OH254516   5.009   5.030  14.890  0.0205  0.2276  0.5136
11034TIP3    H154517   5.075   5.096  14.913  0.8500 -0.4460  0.1433
11034TIP3    H254518   5.019   5.019  14.795  3.3453 -3.8726  1.0659
11035TIP3   OH254519   0.038   3.940   1.624  0.3113  0.2832  0.6055
11035TIP3    H154520   0.088   4.010   1.581  0.3165  1.0937  1.8833
11035TIP3    H254521  -0.051   3.974   1.628  0.1070 -0.2204  0.3290
11036TIP3   OH254522   5.851   4.230   4.387  0.7850 -0.3595  0.2831
11036TIP3    H154523   5.900   4.216   4.468 -1.9186  1.1756  2.3624
11036TIP3    H254524   5.853   4.325   4.373 -1.1441 -0.2845  0.2193
11037TIP3   OH254525   1.972   1.812  17.150  0.3608 -0.0199  0.1998
11037TIP3    H154526   2.018   1.831  17.068  1.8779  0.2737  1.0681
11037TIP3    H254527   1.893   1.766  17.123  1.3544 -0.9121 -1.3648
11038TIP3   OH254528   6.182   4.474   2.299  0.5168  0.2180 -0.6466
11038TIP3    H154529   6.226   4.405   2.349  1.6729  1.2708 -0.1569
11038TIP3    H254530   6.135   4.526   2.364 -0.2042  0.0138 -0.9922
11039TIP3   OH254531   6.729   0.422   4.252 -0.5240  0.0412 -0.0449
11039TIP3    H154532   6.669   0.350   4.236  0.0700 -0.3125 -0.7666
11039TIP3    H254533   6.689   0.497   4.208 -1.0279  0.1084  0.5133
11040TIP3   OH254534   1.442   0.727   5.797 -0.1984  0.5981 -0.5494
11040TIP3    H154535   1.480   0.803   5.840 -0.1545  1.0373 -1.3536
11040TIP3    H254536   1.388   0.686   5.865 -0.9669  1.8684 -0.3677
11041TIP3   OH254537   1.069   5.506   0.449  0.1752 -0.0370  0.3458
11041TIP3    H154538   0.996   5.557   0.484  0.8735 -0.4537  2.5797
11041TIP3    H254539   1.028   5.428   0.411 -0.6375  0.5485 -0.0133
11042TIP3   OH254540   2.961   5.824  14.639  0.0140  0.0734  0.5000
11042TIP3    H154541   2.955   5.887  14.710  1.2691 -0.6708  1.3008
11042TIP3    H254542   2.884   5.769  14.649  1.0004 -1.0830  2.3824
11043TIP3   OH254543   6.464   6.229   2.669  0.4357 -0.4571  0.1393
11043TIP3    H154544   6.552   6.251   2.700  0.1701 -0.7426  1.1511
11043TIP3    H254545   6.426   6.178   2.741 -0.2122 -1.1623 -0.6857
11044TIP3   OH254546   4.153   0.930  16.420 -0.1095 -0.2237  0.3927
11044TIP3    H154547   4.116   1.003  16.371 -1.3136 -0.1073  1.4097
11044TIP3    H254548   4.151   0.856  16.359 -3.1665 -0.5216  0.6753
11045TIP3   OH254549   3.619   2.992  11.381 -0.1264 -0.0371  0.2063
11045TIP3    H154550   3.580   2.909  11.353 -0.5535 -0.4083  1.8432
11045TIP3    H254551   3.671   3.020  11.305 -0.1539 -1.6696 -0.4650
11046TIP3   OH254552   2.375   4.259  14.694 -0.0472 -0.4962 -0.0227
11046TIP3    H154553   2.365   4.211  14.776  1.4645  0.2770  0.6423
11046TIP3    H254554   2.386   4.190  14.628 -0.9334 -1.1145  0.4523
11047TIP3   OH254555   3.069   1.646  14.909  0.3417  0.1223  0.6452
11047TIP3    H154556   3.013   1.574  14.938 -2.7407  1.3087 -1.7656
11047TIP3    H254557   3.115   1.611  14.833  0.7889  0.0237  0.9499
11048TIP3   OH254558   0.666   1.472   5.826  0.3932  0.1098  0.5465
11048TIP3    H154559   0.724   1.395   5.821  0.9716  0.5295  0.6582
11048TIP3    H254560   0.724   1.543   5.853  0.2540  0.9873 -1.3439
11049TIP3   OH254561   3.723   3.527  16.184  0.2821  0.5935 -0.3578
11049TIP3    H154562   3.640   3.546  16.140 -0.5256  0.7611  1.1619
11049TIP3    H254563   3.720   3.579  16.264  0.8295 -1.1066  0.8412
11050TIP3   OH254564   1.640   6.251   1.806  0.0795 -0.3157  0.2417
11050TIP3    H154565   1.632   6.346   1.816  0.3570 -0.3004  0.3047
11050TIP3    H254566   1.550   6.219   1.816 -0.5723  0.2318 -2.9997
11051TIP3   OH254567   2.055   2.065   6.044 -0.0186 -0.0230  0.1712
11051TIP3    H154568   1.979   2.037   6.095 -0.2932 -2.0175 -1.2226
11051TIP3    H254569   2.077   1.990   5.989  1.3046  1.4151 -1.4223
11052TIP3   OH254570   1.244   4.873  12.312 -0.4779 -0.6914 -0.6560
11052TIP3    H154571   1.166   4.925  12.294  0.2600 -0.1736 -2.6030
11052TIP3    H254572   1.297   4.929  12.369 -1.7339 -1.2968  1.1917
11053TIP3   OH254573   0.057   6.491  15.650  0.6548  0.4619 -0.1104
11053TIP3    H154574   0.038   6.541  15.729 -2.5850  0.3675 -0.6985
11053TIP3    H254575   0.055   6.400  15.679  1.9460  0.4825  0.1029
11054TIP3   OH254576   3.219   3.174  15.230  0.1838  0.0913 -0.1662
11054TIP3    H154577   3.144   3.135  15.186  0.6928  0.4541 -1.3839
11054TIP3    H254578   3.211   3.268  15.213  0.7392  0.1679 -0.0451
11055TIP3   OH254579   6.321   5.878  15.914  0.1401  0.1601 -0.0801
11055TIP3    H154580   6.403   5.916  15.882 -0.0724  0.1148 -0.6944
11055TIP3    H254581   6.346   5.832  15.994  0.3457  1.8744  0.8972
11056TIP3   OH254582   2.915   1.074  13.289  0.0907 -0.1425  0.0947
11056TIP3    H154583   2.960   0.990  13.279  0.3092 -0.2613  1.8162
11056TIP3    H254584   2.930   1.099  13.380 -3.0968 -0.0637  0.7152
11057TIP3   OH254585   0.431   1.250  11.567 -0.3130 -0.1831 -0.5688
11057TIP3    H154586   0.359   1.305  11.599 -0.5498 -0.0111 -1.3946
11057TIP3    H254587   0.507   1.307  11.570 -0.2625 -0.2730  0.0162
11058TIP3   OH254588   0.725   5.487   2.574  0.0130  0.0946 -0.2327
11058TIP3    H154589   0.743   5.549   2.644 -2.6892  1.4121 -0.5480
11058TIP3    H254590   0.718   5.402   2.618 -0.1539  0.6676  0.8759
11059TIP3   OH254591   0.750   5.435   3.721 -0.4498 -0.1356 -0.4068
11059TIP3    H154592   0.772   5.362   3.663 -1.4005 -0.7451 -0.0252
11059TIP3    H254593   0.683   5.484   3.674 -2.2499 -1.4098  0.6751
11060TIP3   OH254594   6.492   4.583  13.434  0.6584 -0.8363 -0.3493
11060TIP3    H154595   6.471   4.503  13.481 -2.0636  0.4570  0.8260
11060TIP3    H254596   6.467   4.565  13.343  0.4875 -1.4566 -0.1821
11061TIP3   OH254597   0.031   3.067   2.020 -0.0140 -0.2605  0.1370
11061TIP3    H154598  -0.038   3.130   2.044 -0.6268 -1.2902  1.2371
11061TIP3    H254599  -0.016   2.998   1.972  0.4221 -0.4961  0.0499
11062TIP3   OH254600   2.784   3.494  14.884 -0.0782 -0.0939 -0.0456
11062TIP3    H154601   2.735   3.508  14.802 -0.6967  1.0565  0.4846
11062TIP3    H254602   2.759   3.569  14.939  1.9050  0.2688  0.4465
11063TIP3   OH254603   3.980   4.024  13.533  0.1418 -0.3790  0.4994
11063TIP3    H154604   3.995   3.990  13.621 -1.8291 -0.7198  0.7488
11063TIP3    H254605   3.911   4.090  13.545  1.0718  0.8157 -0.5570
11064TIP3   OH254606   3.623   1.590   0.112 -0.4563 -0.0678  0.0983
11064TIP3    H154607   3.689   1.659   0.116  0.4922 -0.9704  0.7146
11064TIP3    H254608   3.541   1.633   0.137  0.6076  0.2677  3.5301
11065TIP3   OH254609   5.155   3.532   6.210 -0.1140 -0.4796  0.2023
11065TIP3    H154610   5.176   3.443   6.240 -0.6756 -0.5200  0.4705
11065TIP3    H254611   5.101   3.569   6.279  0.2853  0.1498  0.1813
11066TIP3   OH254612   4.361   1.730  15.132  0.0499 -0.1483  0.1094
11066TIP3    H154613   4.437   1.788  15.145 -0.4780  0.4933  0.4314
11066TIP3    H254614   4.376   1.658  15.193  0.2716  0.1121  0.3733
11067TIP3   OH254615   1.576   0.507   1.811 -0.2545  0.0476  0.3047
11067TIP3    H154616   1.531   0.545   1.887 -0.1268 -0.0138  0.4113
11067TIP3    H254617   1.631   0.577   1.778 -1.0529  0.3973 -0.3383
11068TIP3   OH254618   4.555   5.491   0.264 -0.3107  0.2405  0.2614
11068TIP3    H154619   4.530   5.582   0.279 -0.5688 -0.0431  1.6016
11068TIP3    H254620   4.476   5.440   0.281 -0.1779 -0.2464 -0.5096
11069TIP3   OH254621   4.454   0.037  12.883 -0.2391 -0.2121 -0.6233
11069TIP3    H154622   4.537   0.047  12.929 -0.0206  0.1902 -1.1067
11069TIP3    H254623   4.388   0.059  12.949  0.1191  1.7516 -0.8744
11070TIP3   OH254624   5.613   5.280   3.927 -0.0575  0.5395 -0.1493
11070TIP3    H154625   5.600   5.186   3.940  0.0870  0.3725 -1.1565
11070TIP3    H254626   5.584   5.297   3.838 -1.6824  1.7725  0.5641
11071TIP3   OH254627   1.259   3.154  15.543  0.3456  0.2093 -0.2617
11071TIP3    H154628   1.211   3.195  15.615 -0.3485 -0.7318 -0.1642
11071TIP3    H254629   1.192   3.137  15.476  0.6276 -0.6187 -0.3513
11072TIP3   OH254630   4.037   3.710  17.221 -0.1595  0.0448 -0.1876
11072TIP3    H154631   4.047   3.730  17.128 -0.9472  1.1043 -0.0582
11072TIP3    H254632   4.120   3.736  17.260  0.5668 -1.3589 -0.7270
11073TIP3   OH254633   2.748   2.902   3.067 -0.3935 -0.3348 -0.0571
11073TIP3    H154634   2.735   2.887   3.161  0.8053 -1.0763  0.0087
11073TIP3    H254635   2.767   2.815   3.031 -0.5768 -0.0169 -0.9362
11074TIP3   OH254636   1.181   0.357   0.744 -0.3602 -0.1012  0.2222
11074TIP3    H154637   1.263   0.311   0.757  0.0439  0.6365  0.3745
11074TIP3    H254638   1.118   0.289   0.720  0.6670 -0.5013 -1.5451
11075TIP3   OH254639   3.873   3.616   2.094  0.3593 -0.4644  0.7181
11075TIP3    H154640   3.885   3.677   2.167  0.5103  0.6239 -0.1892
11075TIP3    H254641   3.960   3.609   2.054  0.6832 -2.4090  1.6457
11076TIP3   OH254642   5.358   4.163  11.984 -0.2053 -0.5857  0.1355
11076TIP3    H154643   5.311   4.110  12.048 -1.5615 -0.2807 -0.5696
11076TIP3    H254644   5.443   4.121  11.976 -0.1391 -0.8422  1.8453
11077TIP3   OH254645   2.782   0.145   3.867  0.6672 -0.1418 -0.5590
11077TIP3    H154646   2.829   0.199   3.931  0.1122 -0.4658  0.1391
11077TIP3    H254647   2.689   0.166   3.881  0.5945  0.6197 -2.0364
11078TIP3   OH254648   3.926   3.149  13.989 -0.3424  0.2474  0.1163
11078TIP3    H154649   3.868   3.077  13.966 -0.8168  1.0923 -1.4920
11078TIP3    H254650   4.014   3.115  13.973 -0.5480 -0.0825 -0.3210
11079TIP3   OH254651   6.575   3.700  16.345 -0.4804  0.1167 -0.2885
11079TIP3    H154652   6.500   3.689  16.404 -0.9214  1.0222 -0.6600
11079TIP3    H254653   6.582   3.617  16.298 -1.2126  0.0066 -0.2040
11080TIP3   OH254654   0.903   4.538  16.340  0.3297  0.4338  0.1657
11080TIP3    H154655   0.920   4.546  16.434  2.3071  1.2089 -0.2123
11080TIP3    H254656   0.917   4.445  16.321  0.9601  0.4679  0.4537
11081TIP3   OH254657   3.767   5.272  12.787  0.1112  0.2607  0.4832
11081TIP3    H154658   3.829   5.220  12.736 -0.2296  0.6879 -0.3779
11081TIP3    H254659   3.784   5.247  12.878  2.4903  1.3642  0.4093
11082TIP3   OH254660   2.798   5.161  14.648 -0.3874 -0.4684 -0.7225
11082TIP3    H154661   2.722   5.121  14.691 -1.1110  1.2899 -0.2811
11082TIP3    H254662   2.770   5.176  14.558  0.1527 -1.5794 -1.1031
11083TIP3   OH254663   2.242   2.125   5.467  0.0186 -0.0431  0.4573
11083TIP3    H154664   2.197   2.207   5.489  0.4506  0.2905  0.1130
11083TIP3    H254665   2.323   2.153   5.423 -0.1671 -0.6692 -0.3034
11084TIP3   OH254666   2.896   3.691  15.769 -0.0278 -0.3501 -0.2044
11084TIP3    H154667   2.867   3.615  15.719 -0.0693 -0.9423  0.6999
11084TIP3    H254668   2.943   3.744  15.705 -0.7386 -0.7007 -1.0562
11085TIP3   OH254669   2.303   4.550  12.118 -0.3321  0.4489 -0.3357
11085TIP3    H154670   2.256   4.581  12.040  0.3744 -0.2610 -1.0603
11085TIP3    H254671   2.394   4.579  12.105  0.2478 -1.4099 -0.7912
11086TIP3   OH254672   5.678   0.659  12.268  0.1993  0.1675  0.1388
11086TIP3    H154673   5.767   0.671  12.235  0.5174  2.0537  1.4830
11086TIP3    H254674   5.622   0.695  12.199  0.5550  0.0310 -0.2236
11087TIP3   OH254675   1.640   4.175  12.603 -0.1195 -0.2611 -0.1774
11087TIP3    H154676   1.565   4.118  12.585  1.9183 -3.2465  0.1085
11087TIP3    H254677   1.648   4.174  12.699 -1.2268  2.2489  0.0028
11088TIP3   OH254678   4.908   3.618   1.496  0.0139 -0.2352  0.3470
11088TIP3    H154679   4.951   3.676   1.559  1.8653 -0.6449 -0.4890
11088TIP3    H254680   4.834   3.670   1.464 -0.9050  0.0448  2.6915
11089TIP3   OH254681   2.288   2.390   4.440  0.6538 -0.4395 -0.7394
11089TIP3    H154682   2.361   2.369   4.382 -0.2602 -2.0572 -1.3663
11089TIP3    H254683   2.327   2.393   4.528  1.6062 -0.4318 -1.1519
11090TIP3   OH254684   1.865   5.920  14.599 -0.2967  0.3113 -0.8784
11090TIP3    H154685   1.859   5.942  14.505  0.6346  1.5337 -0.6782
11090TIP3    H254686   1.786   5.870  14.616 -1.1258  1.1447 -2.0535
11091TIP3   OH254687   6.145   0.206  14.836  0.5520 -0.5552  0.0948
11091TIP3    H154688   6.074   0.145  14.856  0.1728  0.4063  1.9687
11091TIP3    H254689   6.115   0.253  14.758  0.4525 -2.0928 -0.8233
11092TIP3   OH254690   5.026   0.005   2.491 -0.2612 -0.2129  0.1300
11092TIP3    H154691   5.065   0.009   2.404  2.3391  2.4952  1.2570
11092TIP3    H254692   5.080  -0.057   2.540 -0.5263 -0.2850  0.3370
11093TIP3   OH254693   0.293   4.489   1.743 -0.6089 -0.0910  0.1020
11093TIP3    H154694   0.351   4.432   1.693 -0.7459  1.0547 -1.4488
11093TIP3    H254695   0.230   4.522   1.678 -1.4864  0.5902  1.2611
11094TIP3   OH254696   6.279   4.859   4.596  0.3019  0.3526 -0.5129
11094TIP3    H154697   6.367   4.885   4.624  0.4534 -0.8030  0.1689
11094TIP3    H254698   6.291   4.772   4.558 -0.7295 -0.4858  0.9631
11095TIP3   OH254699   6.452   1.661   2.314 -0.8752 -0.1281 -0.0344
11095TIP3    H154700   6.365   1.625   2.331 -0.8217 -0.8978 -1.2951
11095TIP3    H254701   6.438   1.729   2.248 -0.3691 -1.1996 -1.2811
11096TIP3   OH254702   0.547   5.798   5.131 -0.4938 -0.0094 -0.0686
11096TIP3    H154703   0.521   5.710   5.161 -0.7569 -0.3376 -1.2164
11096TIP3    H254704   0.519   5.801   5.040  0.7451  0.7750 -0.4409
11097TIP3   OH254705   4.696   3.004  12.727 -0.9449 -0.2294  0.0670
11097TIP3    H154706   4.701   2.908  12.731 -1.4595 -0.2617  0.0562
11097TIP3    H254707   4.629   3.026  12.792 -1.5290  0.0467 -0.6135
11098TIP3   OH254708   4.291   1.047  16.920 -0.4215  0.2076  0.6747
11098TIP3    H154709   4.301   1.141  16.933  0.6738  0.6000 -2.1873
11098TIP3    H254710   4.370   1.009  16.960  0.1870  0.7460  0.0104
11099TIP3   OH254711   6.783   3.438  15.770  0.0236  0.7960  0.4924
11099TIP3    H154712   6.724   3.413  15.841  1.3158  0.3758  1.4468
11099TIP3    H254713   6.769   3.532  15.760 -0.2978  0.8257  1.1790
11100TIP3   OH254714   5.398   5.503   4.430  0.3535  0.3057  0.2861
11100TIP3    H154715   5.331   5.451   4.474 -0.2046 -0.0442 -0.9093
11100TIP3    H254716   5.473   5.502   4.489 -0.1917 -0.5442  0.9885
11101TIP3   OH254717   5.656   0.900   5.647 -0.2217 -0.3630 -0.3818
11101TIP3    H154718   5.665   0.807   5.669 -2.2447 -0.5074  0.0185
11101TIP3    H254719   5.563   0.918   5.659  0.1905  1.8153 -0.1059
11102TIP3   OH254720   4.170   0.499   1.646  0.1200 -0.0160  0.0037
11102TIP3    H154721   4.087   0.493   1.599  0.0546 -1.5284  0.2691
11102TIP3    H254722   4.235   0.467   1.583  0.1226 -1.3811  0.6660
11103TIP3   OH254723   5.916   1.485   3.707  0.5306 -0.2429 -0.0926
11103TIP3    H154724   5.854   1.519   3.642  2.3146  1.0215 -1.2420
11103TIP3    H254725   5.976   1.430   3.656  1.6874  0.3973  0.5385
11104TIP3   OH254726   2.764   2.459   4.206 -0.2199 -0.2138  0.2934
11104TIP3    H154727   2.758   2.479   4.299  1.1392  1.5274  0.0693
11104TIP3    H254728   2.710   2.381   4.194 -1.0387 -0.0235  2.3841
11105TIP3   OH254729   1.697   3.784   3.989  0.3137  0.4186  0.1359
11105TIP3    H154730   1.790   3.806   3.988  0.3089  0.4359 -0.8695
11105TIP3    H254731   1.694   3.693   3.959  0.0892 -0.0191  1.3907
11106TIP3   OH254732   2.167   2.748  14.651 -0.2358 -0.0954 -0.3551
11106TIP3    H154733   2.170   2.725  14.743 -0.4286 -0.7141 -0.5000
11106TIP3    H254734   2.087   2.800  14.642 -0.1653  0.0481 -0.1579
11107TIP3   OH254735   4.443   3.760   3.941 -0.8916  0.1720  0.3187
11107TIP3    H154736   4.440   3.695   4.011 -0.7868  2.0564  2.1660
11107TIP3    H254737   4.368   3.817   3.959 -0.4871  1.0688 -0.7317
11108TIP3   OH254738   1.081   3.234  11.847  0.2765 -0.7244 -0.4244
11108TIP3    H154739   1.039   3.311  11.810 -0.0073 -1.6084 -2.0418
11108TIP3    H254740   1.011   3.168  11.847  0.9810 -1.4824 -0.7559
11109TIP3   OH254741   2.774   4.451   3.505  0.0067  0.2254  0.5443
11109TIP3    H154742   2.747   4.474   3.416  3.0952 -0.0517 -0.5596
11109TIP3    H254743   2.733   4.365   3.520  0.6143 -0.4262 -1.2151
11110TIP3   OH254744   1.797   2.124  11.514 -0.2926  0.0846 -0.0455
11110TIP3    H154745   1.891   2.139  11.499  0.1533  0.0090  2.3411
11110TIP3    H254746   1.786   2.029  11.504  0.3956 -0.2423  1.9349
11111TIP3   OH254747   4.133   3.992   4.929 -0.4350 -0.1165 -0.3499
11111TIP3    H154748   4.140   3.992   5.025 -0.9699  0.4741 -0.3057
11111TIP3    H254749   4.087   4.073   4.908 -0.8065 -0.5031 -1.0725
11112TIP3   OH254750   1.700   2.933   4.133  0.6837  0.5211 -0.0270
11112TIP3    H154751   1.761   2.965   4.200  0.2486  1.0257  0.1368
11112TIP3    H254752   1.713   2.838   4.132  1.0439  0.5626  0.4278
11113TIP3   OH254753   4.353   4.443  12.824  0.6405  0.1878  0.1711
11113TIP3    H154754   4.319   4.476  12.907  0.8633  1.4878 -0.2314
11113TIP3    H254755   4.376   4.352  12.842 -0.7787 -0.0237  1.0969
11114TIP3   OH254756   1.053   0.782  14.066 -0.3915 -0.3822  0.2507
11114TIP3    H154757   0.959   0.776  14.079 -0.4027  1.1176  1.0406
11114TIP3    H254758   1.081   0.855  14.121  1.4975 -1.8531  1.3884
11115TIP3   OH254759   4.174   3.688   4.513  0.2672 -0.2322 -0.2007
11115TIP3    H154760   4.105   3.745   4.547  0.6777 -0.0810  0.3903
11115TIP3    H254761   4.171   3.701   4.418  0.3535  0.7758 -0.0751
11116TIP3   OH254762   6.060   6.774   2.606  1.0664  0.0072 -0.1558
11116TIP3    H154763   6.019   6.706   2.659  1.6556 -0.4784 -0.3093
11116TIP3    H254764   6.086   6.730   2.525 -2.7630  1.3863 -2.3985
11117TIP3   OH254765   3.401   6.735   0.806  0.4130 -0.1617 -0.0512
11117TIP3    H154766   3.451   6.754   0.885 -1.4524 -1.5060  1.5224
11117TIP3    H254767   3.321   6.788   0.814 -0.4632 -1.4138 -0.3023
11118TIP3   OH254768   6.309   2.082  15.354  0.2647 -0.1128 -0.2660
11118TIP3    H154769   6.380   2.130  15.397  0.3776 -1.5269  1.2335
11118TIP3    H254770   6.300   2.002  15.406 -1.8776 -0.3521 -0.9180
11119TIP3   OH254771   0.074   5.564  13.946  0.3233  0.5709 -0.3276
11119TIP3    H154772   0.045   5.485  13.990  0.2344 -0.3080 -1.8862
11119TIP3    H254773   0.165   5.545  13.920  0.9959  1.7602  1.0042
11120TIP3   OH254774   2.231   2.491  11.543 -0.1897  0.4172 -0.2259
11120TIP3    H154775   2.265   2.574  11.512 -0.2167  0.1380 -1.0353
11120TIP3    H254776   2.275   2.476  11.627  0.1570  1.0199 -0.2982
11121TIP3   OH254777   5.005   5.993  13.174  0.0418 -0.0811 -0.2628
11121TIP3    H154778   5.031   5.909  13.135 -1.9829 -0.6410 -0.5130
11121TIP3    H254779   5.011   6.056  13.101  1.0424 -0.0943 -0.2073
11122TIP3   OH254780   4.661   4.880  11.609 -0.6013  0.1808 -0.4395
11122TIP3    H154781   4.576   4.876  11.567  0.2757  0.9638 -2.3912
11122TIP3    H254782   4.722   4.845  11.544  0.8332  1.5328  0.1059
11123TIP3   OH254783   0.235   5.835  14.239 -0.2857  0.0379  0.8517
11123TIP3    H154784   0.206   5.858  14.151  2.1988 -0.2997 -0.1320
11123TIP3    H254785   0.215   5.742  14.247 -1.0708  0.2000  0.9160
11124TIP3   OH254786   3.090   1.741   0.637 -0.2362 -0.1776 -0.2244
11124TIP3    H154787   3.148   1.669   0.660 -0.7098 -0.8900 -1.1847
11124TIP3    H254788   3.103   1.806   0.707  0.4508 -1.0376  0.4702
11125TIP3   OH254789   2.964   1.930  16.018 -0.8306  0.3558 -0.2443
11125TIP3    H154790   2.931   1.861  15.960 -0.2478 -0.2138  0.0929
11125TIP3    H254791   3.025   1.980  15.964  0.5722 -0.8543  0.1586
11126TIP3   OH254792   2.811   5.796  15.039 -0.2995  0.1313 -0.5380
11126TIP3    H154793   2.786   5.886  15.061 -1.9006 -0.0071 -1.6314
11126TIP3    H254794   2.774   5.782  14.952 -1.6571 -2.1658  0.3380
11127TIP3   OH254795   6.404   0.103  15.284  0.2052 -0.4197 -0.2135
11127TIP3    H154796   6.374   0.076  15.198  1.5247 -1.4297 -0.3861
11127TIP3    H254797   6.492   0.138  15.270 -0.2114  0.9710  0.4913
11128TIP3   OH254798   1.405   3.485  15.653 -0.1540 -0.4390 -0.3063
11128TIP3    H154799   1.472   3.535  15.607  0.1981  0.2212  0.8612
11128TIP3    H254800   1.367   3.428  15.587  0.1822  0.6111 -1.4498
11129TIP3   OH254801   4.196   4.044  16.942  0.4311  0.2297  0.4814
11129TIP3    H154802   4.160   4.130  16.923  1.3634  0.5081 -0.0498
11129TIP3    H254803   4.213   4.005  16.856  1.4758  0.1433  0.7152
11130TIP3   OH254804   6.525   4.437  16.009  0.8806  0.2230  0.0727
11130TIP3    H154805   6.439   4.449  15.970  1.0329 -0.0708 -0.3619
11130TIP3    H254806   6.507   4.415  16.101  0.3431 -2.5998 -0.5967
11131TIP3   OH254807   4.148   1.473  13.316 -0.3760  0.3457 -0.2528
11131TIP3    H154808   4.117   1.383  13.322 -1.1527  0.6532  0.5664
11131TIP3    H254809   4.163   1.487  13.223 -0.7864 -0.4578 -0.4472
11132TIP3   OH254810   0.193   2.565   4.725  0.2362 -0.2974 -0.3492
11132TIP3    H154811   0.145   2.482   4.723  0.7622 -0.5943 -2.2139
11132TIP3    H254812   0.181   2.603   4.638  0.0142  1.6143  0.4473
11133TIP3   OH254813   0.970   2.271   2.012 -0.0205 -0.3673  0.3036
11133TIP3    H154814   0.944   2.208   2.080 -1.9024  0.5831  0.5391
11133TIP3    H254815   0.989   2.216   1.936  0.2418 -1.3355  1.0419
11134TIP3   OH254816   0.713   4.473   5.126 -0.4998 -0.3567  0.0377
11134TIP3    H154817   0.770   4.425   5.066  1.2480  1.4252  0.1896
11134TIP3    H254818   0.674   4.405   5.180 -0.1699 -1.8056 -1.4512
11135TIP3   OH254819   1.812   4.315   4.704  0.1441 -0.0978 -0.1048
11135TIP3    H154820   1.716   4.311   4.697  0.0864  0.3520  0.3725
11135TIP3    H254821   1.830   4.408   4.719  0.7753  0.1160 -1.9248
11136TIP3   OH254822   5.942   1.011  12.123 -0.1224 -0.9192  0.8784
11136TIP3    H154823   5.939   1.078  12.055  0.0479 -2.0254 -0.2345
11136TIP3    H254824   5.850   0.998  12.147 -0.0738  0.7514  2.1907
11137TIP3   OH254825   0.612   5.148   3.745  0.6559  0.2573 -0.6307
11137TIP3    H154826   0.668   5.165   3.670 -0.1932  1.1949 -1.0747
11137TIP3    H254827   0.655   5.192   3.818  0.3511  1.2477 -1.0351
11138TIP3   OH254828   0.991   3.960  15.716  0.0609 -0.1215  0.0013
11138TIP3    H154829   1.042   3.906  15.777  0.8843  0.6681  0.0444
11138TIP3    H254830   0.975   4.041  15.764  2.0961  1.1642 -1.3137
11139TIP3   OH254831   6.350   0.043  12.107 -0.2750 -0.2242  0.4585
11139TIP3    H154832   6.278   0.099  12.136 -0.9280 -0.7009 -0.1897
11139TIP3    H254833   6.376  -0.006  12.184 -0.5282  0.0859  0.7416
11140TIP3   OH254834   5.384   0.139  11.752 -0.6354  0.1602 -0.3395
11140TIP3    H154835   5.374   0.232  11.732 -0.4695 -0.0452 -1.4462
11140TIP3    H254836   5.424   0.137  11.839  3.9731  1.2694 -2.1255
11141TIP3   OH254837   2.202   0.567   1.224  0.7624  0.4428 -0.1514
11141TIP3    H154838   2.228   0.630   1.157  1.5524  0.6665  0.3373
11141TIP3    H254839   2.208   0.616   1.306  1.8645 -0.3806  0.2910
11142TIP3   OH254840   6.176   4.211   4.198  0.5374 -0.2145  0.5220
11142TIP3    H154841   6.117   4.136   4.190 -0.5677  0.6021  0.8096
11142TIP3    H254842   6.191   4.220   4.292  0.5531  0.0117  0.4977
11143TIP3   OH254843   5.125   4.099  14.668  0.0273  0.4053 -0.3560
11143TIP3    H154844   5.204   4.092  14.723 -0.2141  0.4968  0.0062
11143TIP3    H254845   5.094   4.188  14.684 -0.9516 -0.0858  0.6120
11144TIP3   OH254846   1.999   5.144   5.845 -0.6333 -0.4995  0.0270
11144TIP3    H154847   2.005   5.061   5.891  0.3678 -0.2978  0.2854
11144TIP3    H254848   2.060   5.136   5.772 -1.3022 -0.3695 -0.5601
11145TIP3   OH254849   2.784   3.141  15.859  0.2843 -0.6064 -0.1099
11145TIP3    H154850   2.730   3.065  15.878  0.7682 -1.1512 -0.8452
11145TIP3    H254851   2.850   3.109  15.797  1.4821  0.0169  0.8020
11146TIP3   OH254852   1.766   3.589   2.343  0.3215  0.0503  0.0848
11146TIP3    H154853   1.786   3.508   2.391 -0.6026 -1.4455 -1.9010
11146TIP3    H254854   1.848   3.612   2.299 -0.2725 -2.0247 -2.3399
11147TIP3   OH254855   6.214   1.277  14.825  0.4769  0.0107  0.6577
11147TIP3    H154856   6.140   1.217  14.831  0.5915  0.0187  2.7430
11147TIP3    H254857   6.188   1.353  14.877  1.0296  1.0446 -0.5307
11148TIP3   OH254858   1.176   6.708   5.647  0.3243  0.0733  0.1197
11148TIP3    H154859   1.218   6.766   5.583 -0.2070  3.0825  2.2750
11148TIP3    H254860   1.087   6.742   5.656  0.2302 -0.5441  2.0792
11149TIP3   OH254861   5.067   1.024   1.901  0.4852 -0.0912 -0.1818
11149TIP3    H154862   5.137   1.067   1.950 -0.6169 -0.7894  2.1366
11149TIP3    H254863   5.105   1.008   1.814  2.3598  1.6364  0.2525
11150TIP3   OH254864   2.251   5.619  16.272  0.5148 -0.1137  0.6051
11150TIP3    H154865   2.265   5.710  16.247  0.2484 -0.7143 -1.9249
11150TIP3    H254866   2.182   5.587  16.214 -0.7452 -1.4634  2.6835
11151TIP3   OH254867   5.073   4.371   0.586 -0.1712 -0.1758 -0.7862
11151TIP3    H154868   5.088   4.427   0.509 -1.2608 -0.2840 -1.0946
11151TIP3    H254869   5.101   4.284   0.557 -0.6946 -0.2415 -1.1079
11152TIP3   OH254870   4.630   0.645  15.912  0.5323  0.1977 -0.0126
11152TIP3    H154871   4.695   0.708  15.944 -0.4935  2.1245 -1.4919
11152TIP3    H254872   4.560   0.647  15.978  0.5180  0.5731 -0.0400
11153TIP3   OH254873   3.421   1.933   3.192  0.5056  0.2070 -0.3565
11153TIP3    H154874   3.502   1.899   3.153 -0.3548 -0.0015 -2.0380
11153TIP3    H254875   3.376   1.855   3.226  0.0268  0.0418 -1.3447
11154TIP3   OH254876   6.198   2.240  11.649  0.5374 -0.4162 -0.5047
11154TIP3    H154877   6.140   2.305  11.688  0.0960 -0.3035 -1.3370
11154TIP3    H254878   6.185   2.249  11.555  0.8467 -1.3664 -0.6502
11155TIP3   OH254879   2.155   5.868   1.938  0.2760  1.0096 -0.0922
11155TIP3    H154880   2.230   5.875   1.880 -0.1161 -0.3422 -0.8048
11155TIP3    H254881   2.081   5.848   1.881 -0.2534  0.3466  0.7810
11156TIP3   OH254882   5.148   1.292  13.569  0.4533  0.1038 -0.2205
11156TIP3    H154883   5.220   1.324  13.623 -0.1728  2.3510 -0.6254
11156TIP3    H254884   5.073   1.288  13.628  0.8099 -2.2083  0.1944
11157TIP3   OH254885   0.573   6.214  12.984  0.0894 -0.1557 -0.1928
11157TIP3    H154886   0.588   6.300  13.022  0.1630  0.1151 -0.8273
11157TIP3    H254887   0.594   6.153  13.055  1.0794  0.3128 -0.0603
11158TIP3   OH254888   5.871   2.586  11.680 -0.2557 -0.6772 -0.7466
11158TIP3    H154889   5.908   2.500  11.664 -0.3446 -0.6664 -1.0075
11158TIP3    H254890   5.828   2.610  11.598  1.5080  0.4925 -1.3840
11159TIP3   OH254891   6.464   4.455   2.834  0.5791  0.4343 -0.0395
11159TIP3    H154892   6.493   4.514   2.903 -0.3608  0.8167  0.0521
11159TIP3    H254893   6.371   4.476   2.822  0.1301 -1.2050  0.1959
11160TIP3   OH254894   3.717   1.835  11.793 -0.0520  0.7418 -0.0039
11160TIP3    H154895   3.737   1.806  11.882 -0.4875 -0.3332 -0.2345
11160TIP3    H254896   3.721   1.754  11.741  0.3552  1.3776 -0.9903
11161TIP3   OH254897   0.118   3.978  12.756 -0.3222 -0.0378  0.2616
11161TIP3    H154898   0.164   4.046  12.707 -0.4733 -0.6321 -0.7129
11161TIP3    H254899   0.158   3.980  12.843  0.7441  0.2298 -0.2260
11162TIP3   OH254900   1.753   3.502  11.394  0.1130 -0.0434 -0.1860
11162TIP3    H154901   1.761   3.419  11.443  0.3612  0.1079  0.0359
11162TIP3    H254902   1.803   3.487  11.314  0.4049 -0.0136 -0.0139
11163TIP3   OH254903   0.877   1.690   5.853 -0.1741 -0.4099  0.4835
11163TIP3    H154904   0.962   1.665   5.815  0.0300  0.8822  0.0395
11163TIP3    H254905   0.898   1.720   5.941  0.0158  0.9636 -0.0029
11164TIP3   OH254906   2.297   6.217   2.518 -0.2269 -0.1886 -0.2428
11164TIP3    H154907   2.386   6.190   2.539 -0.5245 -0.5809  0.5405
11164TIP3    H254908   2.298   6.228   2.423  1.0672  1.3813 -0.0885
11165TIP3   OH254909   4.376   2.200  11.501 -0.3588  0.3965  0.1359
11165TIP3    H154910   4.392   2.228  11.411  0.3057 -0.8304 -0.1448
11165TIP3    H254911   4.424   2.262  11.555  0.6041  0.1751 -0.4434
11166TIP3   OH254912   5.416   4.696   4.126 -0.2455 -0.2096  0.3273
11166TIP3    H154913   5.394   4.733   4.040  0.7917 -0.6373 -0.1338
11166TIP3    H254914   5.362   4.745   4.188  0.4766  1.5059 -0.3525
11167TIP3   OH254915   5.332   0.381  13.551  0.4445 -0.0402  0.0455
11167TIP3    H154916   5.307   0.474  13.558  1.6802  0.3493 -0.4270
11167TIP3    H254917   5.301   0.355  13.464 -1.6223 -0.6544  0.9002
11168TIP3   OH254918   0.746   1.403  13.086 -0.0402 -0.1968 -0.0639
11168TIP3    H154919   0.654   1.380  13.102 -0.6826  0.3208 -2.5556
11168TIP3    H254920   0.790   1.319  13.076 -0.9625 -0.4884 -2.1486
11169TIP3   OH254921   6.216   2.359   2.731  0.3658  0.3848 -0.1037
11169TIP3    H154922   6.172   2.416   2.669  1.4946  1.7554  0.3006
11169TIP3    H254923   6.211   2.405   2.815 -1.8484 -1.7860  1.1104
11170TIP3   OH254924   3.784   1.124  11.780 -0.3674 -0.7222 -0.1156
11170TIP3    H154925   3.865   1.171  11.798 -0.0091 -0.9585 -1.0260
11170TIP3    H254926   3.729   1.141  11.855  0.0110  0.5901 -0.1156
11171TIP3   OH254927   3.126   6.518  13.665 -0.4880 -0.0786  0.4024
11171TIP3    H154928   3.040   6.562  13.663 -0.8779 -0.8350  0.1788
11171TIP3    H254929   3.145   6.507  13.758 -0.1929  0.9274  0.4703
11172TIP3   OH254930   3.619   3.056   2.462 -0.5581  0.5251  0.1519
11172TIP3    H154931   3.626   3.150   2.476  1.0054  0.5717 -0.7648
11172TIP3    H254932   3.702   3.021   2.492 -0.5556 -0.3857 -0.8511
11173TIP3   OH254933   2.851   0.140  16.272 -0.4250 -0.1752 -0.0894
11173TIP3    H154934   2.756   0.135  16.275 -0.4038 -0.7028 -0.2407
11173TIP3    H254935   2.878   0.059  16.230  0.0449  0.4317 -0.9859
11174TIP3   OH254936   6.000   0.048  11.318 -1.3801  0.4064  0.3964
11174TIP3    H154937   6.052   0.100  11.380  0.3491  0.8584 -1.3178
11174TIP3    H254938   5.965   0.113  11.257 -0.5097 -0.2449 -0.8456
11175TIP3   OH254939   1.042   4.199   1.302  0.4307 -0.4049 -0.1728
11175TIP3    H154940   0.968   4.159   1.346 -0.3644  0.8520 -0.3276
11175TIP3    H254941   1.119   4.164   1.347 -0.1977 -2.2315 -0.4356
11176TIP3   OH254942   3.962   0.077  15.380  0.1064  0.3221 -0.0544
11176TIP3    H154943   3.868   0.058  15.379  0.2328 -0.3397 -1.4658
11176TIP3    H254944   3.967   0.172  15.368 -0.3976  0.7268  2.3117
11177TIP3   OH254945   1.262   5.292  11.433 -0.0683 -0.6637  0.2542
11177TIP3    H154946   1.215   5.258  11.356 -0.4541  1.4553 -0.5057
11177TIP3    H254947   1.194   5.337  11.484  0.5647 -0.2965  0.7814
11178TIP3   OH254948   0.014   4.994  15.756  0.2218 -0.2241  0.9319
11178TIP3    H154949   0.046   4.904  15.744 -0.2515 -0.4002  0.9678
11178TIP3    H254950  -0.067   4.984  15.805  0.5821  0.2874  1.6577
11179TIP3   OH254951   4.404   6.650   3.755  0.3346 -0.5142 -0.5839
11179TIP3    H154952   4.324   6.606   3.727 -2.3368  2.2845  1.8195
11179TIP3    H254953   4.433   6.600   3.832 -0.4558 -0.3158 -0.1411
11180TIP3   OH254954   6.514   6.425   4.580  0.2548 -0.4140  0.6721
11180TIP3    H154955   6.510   6.508   4.532 -1.7027 -1.3368 -0.9040
11180TIP3    H254956   6.450   6.434   4.650  0.6071 -0.3200  0.9839
11181TIP3   OH254957   2.908   0.173  12.388  0.3673  0.1937  0.1809
11181TIP3    H154958   2.984   0.166  12.331  0.3238 -3.4001  0.3420
11181TIP3    H254959   2.913   0.096  12.445 -2.9019  0.2712  0.7898
11182TIP3   OH254960   5.950   3.341   4.239 -0.5758  1.1324 -0.1082
11182TIP3    H154961   5.890   3.291   4.184 -1.8626 -0.3620  2.5039
11182TIP3    H254962   6.025   3.283   4.253 -0.1146  1.6223 -0.4506
11183TIP3   OH254963   5.922   0.971  13.775  0.5682 -0.7987  0.4175
11183TIP3    H154964   5.858   1.012  13.834 -0.4143 -1.2426 -0.3184
11183TIP3    H254965   5.974   0.914  13.831  0.4799 -0.2628  1.0612
11184TIP3   OH254966   6.471   0.573   4.364 -0.1995  0.2385 -0.0637
11184TIP3    H154967   6.383   0.608   4.350  0.0911  1.8346  1.6963
11184TIP3    H254968   6.499   0.611   4.447  2.0875 -0.3852 -0.4803
11185TIP3   OH254969   5.425   5.540   0.697 -0.0867  0.3851 -0.3229
11185TIP3    H154970   5.442   5.622   0.744  0.7560 -0.3761  0.7503
11185TIP3    H254971   5.408   5.476   0.766 -0.5137 -0.3997 -1.1438
11186TIP3   OH254972   5.666   0.652   1.918  0.0339  0.6959  0.8147
11186TIP3    H154973   5.645   0.562   1.944 -0.8478  1.3231  2.3385
11186TIP3    H254974   5.725   0.684   1.986  1.0964  0.9970 -0.2087
11187TIP3   OH254975   4.605   4.264   1.719  0.3343  0.1382  0.2471
11187TIP3    H154976   4.596   4.309   1.635  0.6666 -0.7712 -0.2883
11187TIP3    H254977   4.697   4.278   1.742  0.1879  0.5794  0.5806
11188TIP3   OH254978   3.039   3.018  11.684  0.4623 -0.3106 -0.1013
11188TIP3    H154979   3.058   3.085  11.750  1.0681 -1.4801  0.9482
11188TIP3    H254980   2.951   2.987  11.706 -0.2797  0.8547 -1.2549
11189TIP3   OH254981   5.222   2.310  15.185  0.0150  0.6991  0.2901
11189TIP3    H154982   5.301   2.349  15.223 -0.4724  1.8483  0.1395
11189TIP3    H254983   5.232   2.322  15.091  0.6721 -1.1117  0.0941
11190TIP3   OH254984   0.699   1.715   3.895  0.1935  0.1296 -0.2259
11190TIP3    H154985   0.677   1.801   3.859 -2.3741  0.1787  1.1776
11190TIP3    H254986   0.736   1.734   3.981  0.2703 -0.1700 -0.1911
11191TIP3   OH254987   2.890   3.999   2.210 -0.1828  0.8590  0.2211
11191TIP3    H154988   2.814   3.995   2.151 -0.7468 -0.5912  0.9935
11191TIP3    H254989   2.853   4.024   2.295  0.3798  1.2462  0.3554
11192TIP3   OH254990   5.880   4.329  17.229 -0.1167 -0.1436 -0.1386
11192TIP3    H154991   5.815   4.305  17.162 -2.3638  3.0583  0.6392
11192TIP3    H254992   5.964   4.311  17.188 -1.4165 -0.2458 -3.0343
11193TIP3   OH254993   4.404   0.956  12.133 -0.0713 -0.4110  0.4645
11193TIP3    H154994   4.447   0.889  12.080  1.4542 -0.6222  1.8558
11193TIP3    H254995   4.475   1.014  12.160 -0.9992  0.4163  1.1937
11194TIP3   OH254996   0.848   2.720   5.588  0.5584 -0.2272 -0.0879
11194TIP3    H154997   0.841   2.689   5.678  3.6984 -1.3359 -0.0981
11194TIP3    H254998   0.899   2.801   5.595  0.2488  0.0381 -0.8266
11195TIP3   OH254999   5.727   0.673   4.453  0.4718 -0.1536 -0.1905
11195TIP3    H155000   5.710   0.647   4.544 -0.9445 -0.2069 -0.4400
11195TIP3    H255001   5.706   0.594   4.402  0.0199  0.2646 -0.6537
11196TIP3   OH255002   2.860   0.690   5.444 -0.1807 -0.4639 -0.0394
11196TIP3    H155003   2.904   0.610   5.415  3.7882  1.2846  0.4385
11196TIP3    H255004   2.807   0.717   5.369  2.7647 -0.7610 -2.4432
11197TIP3   OH255005   5.137   3.639   4.908  0.1665  0.6206  0.6122
11197TIP3    H155006   5.099   3.573   4.850  1.3576 -1.9786  2.5515
11197TIP3    H255007   5.186   3.697   4.850 -1.3575  0.1725 -1.2381
11198TIP3   OH255008   2.458   2.575  13.419  0.1414 -0.2528  0.0845
11198TIP3    H155009   2.533   2.538  13.467 -0.8588 -2.8493 -0.1630
11198TIP3    H255010   2.388   2.581  13.485 -0.4271 -1.2086 -0.4053
11199TIP3   OH255011   3.154   2.733   3.065  0.2434  0.3748  0.1296
11199TIP3    H155012   3.127   2.793   3.134  0.5777  1.2625 -0.4898
11199TIP3    H255013   3.071   2.704   3.025  0.0269 -0.5022  1.1721
11200TIP3   OH255014   4.098   5.654  16.036 -0.2491 -0.6734  0.3018
11200TIP3    H155015   4.034   5.592  16.000  0.4870 -0.8555 -0.7550
11200TIP3    H255016   4.052   5.738  16.037 -0.0963 -0.4872 -1.8777
11201TIP3   OH255017   3.117   3.128  15.527  0.2564  0.4280 -0.3917
11201TIP3    H155018   3.155   3.207  15.490 -2.4395  1.1587 -1.8387
11201TIP3    H255019   3.060   3.093  15.458  1.8507 -3.2248 -0.0812
11202TIP3   OH255020   5.641   4.693  17.230  0.3155 -0.3473 -0.1981
11202TIP3    H155021   5.622   4.786  17.228 -2.0014 -0.7517  0.0823
11202TIP3    H255022   5.682   4.675  17.145 -0.6381  0.6699 -0.9025
11203TIP3   OH255023   1.381   6.526   6.076  0.0182 -0.1752 -0.0426
11203TIP3    H155024   1.335   6.588   6.019  2.7313  0.6336 -1.4864
11203TIP3    H255025   1.416   6.460   6.016 -0.6174 -1.6983  1.2073
11204TIP3   OH255026   2.204   4.758   1.885  0.5843  0.0717 -0.3380
11204TIP3    H155027   2.295   4.782   1.903  0.3576  0.9202 -0.2812
11204TIP3    H255028   2.206   4.719   1.798  1.0329 -0.0601 -0.2678
11205TIP3   OH255029   1.385   3.826  17.122  0.0581 -0.1788  0.3724
11205TIP3    H155030   1.451   3.875  17.073  1.0393 -0.7790  1.0425
11205TIP3    H255031   1.312   3.816  17.062  0.7406  0.1661 -0.5326
11206TIP3   OH255032   1.602   1.188   1.552  0.8632 -0.3387 -0.2516
11206TIP3    H155033   1.580   1.199   1.460 -1.4095 -2.0807 -0.0185
11206TIP3    H255034   1.609   1.277   1.586 -1.9091  0.4429 -1.3917
11207TIP3   OH255035   4.487   5.480  15.477  0.0563 -0.5470  0.1681
11207TIP3    H155036   4.502   5.386  15.487  0.1616 -0.6529 -0.8818
11207TIP3    H255037   4.434   5.488  15.398  0.4700  0.3053 -0.0393
11208TIP3   OH255038   2.562   0.386  11.467  0.2876 -0.0148 -0.1514
11208TIP3    H155039   2.495   0.421  11.526  0.1379 -2.0686  0.9948
11208TIP3    H255040   2.529   0.300  11.442  2.6105 -1.2202  0.6803
11209TIP3   OH255041   1.205   5.865  11.065 -0.0580  0.5166 -0.4030
11209TIP3    H155042   1.232   5.938  11.009 -1.3879  0.4974 -1.1020
11209TIP3    H255043   1.173   5.798  11.004  0.3662 -0.3282  0.2734
11210TIP3   OH255044   5.052   1.073   1.076 -0.4064  0.0246 -0.0568
11210TIP3    H155045   5.102   1.133   1.131  0.6365  0.5841 -1.5462
11210TIP3    H255046   5.039   0.996   1.130 -3.1446  2.0671  2.5147
11211TIP3   OH255047   0.124   2.009  15.246 -0.0513  0.2920 -0.1451
11211TIP3    H155048   0.159   1.978  15.329 -1.0310  0.2848  0.2755
11211TIP3    H255049   0.080   1.932  15.209  0.7934  0.1526 -0.9214
11212TIP3   OH255050   1.955   5.652  12.785 -0.2042 -0.4464  0.3372
11212TIP3    H155051   1.925   5.571  12.745  0.3137 -0.3327 -0.2920
11212TIP3    H255052   2.003   5.698  12.716  0.5699 -0.1773  1.0258
11213TIP3   OH255053   6.696   5.608   0.432  0.4862 -0.1591  0.2214
11213TIP3    H155054   6.787   5.635   0.435  0.8234 -1.1950  0.0019
11213TIP3    H255055   6.700   5.514   0.411 -0.5866 -0.4555  1.2229
11214TIP3   OH255056   0.627   2.058   2.633 -0.2946  0.1062  0.6831
11214TIP3    H155057   0.574   2.022   2.562  0.3185  0.3835  0.0715
11214TIP3    H255058   0.606   2.003   2.709 -1.2913  0.0838  0.4044
11215TIP3   OH255059   2.441   5.836  14.525  0.3560  0.5945 -0.0630
11215TIP3    H155060   2.477   5.755  14.489 -1.4111 -0.4984  0.4858
11215TIP3    H255061   2.518   5.888  14.549  1.5425 -0.9999 -0.2343
11216TIP3   OH255062   0.534   4.140  16.768 -0.1047  0.1028 -0.0979
11216TIP3    H155063   0.479   4.215  16.790 -0.0483 -0.1975  1.1651
11216TIP3    H255064   0.604   4.143  16.834  0.4697 -0.4654 -0.6753
11217TIP3   OH255065   1.131   4.739   1.915 -0.7184  0.1767  0.2652
11217TIP3    H155066   1.078   4.748   1.995  0.9821  0.3284  1.4369
11217TIP3    H255067   1.136   4.827   1.880 -2.9647 -0.1538 -1.0917
11218TIP3   OH255068   2.029   5.630  16.894 -0.0380  0.0330 -0.4223
11218TIP3    H155069   2.087   5.556  16.877 -0.2276 -0.3603  0.6013
11218TIP3    H255070   2.080   5.707  16.869  1.1816 -0.2599  1.0816
11219TIP3   OH255071   3.932   4.754   5.550 -0.4118  0.1166  0.0510
11219TIP3    H155072   3.859   4.792   5.599 -0.1632 -0.8385  1.1953
11219TIP3    H255073   4.010   4.793   5.590 -0.2333 -0.1275 -0.0602
11220TIP3   OH255074   0.556   1.490  14.456  0.6234  0.0022 -0.1784
11220TIP3    H155075   0.615   1.487  14.381 -1.3604 -1.4899 -1.8137
11220TIP3    H255076   0.469   1.504  14.417 -0.3386  0.5157  1.9781
11221TIP3   OH255077   3.872   1.740   4.180  0.7482  0.2555 -0.2033
11221TIP3    H155078   3.789   1.696   4.160  1.4095 -0.3878 -1.7137
11221TIP3    H255079   3.855   1.832   4.160 -0.7317  0.8784  3.2402
11222TIP3   OH255080   0.954   0.843   2.775  0.2200 -0.3519  0.8457
11222TIP3    H155081   0.862   0.850   2.801 -0.8458  0.1961 -2.5939
11222TIP3    H255082   0.980   0.756   2.806 -1.6871 -0.8162  1.3062
11223TIP3   OH255083   4.439   0.522   0.716 -0.3665  0.3763  0.1345
11223TIP3    H155084   4.411   0.611   0.740 -0.5696  0.0622  1.0874
11223TIP3    H255085   4.404   0.466   0.785 -2.0694 -0.7551 -1.5477
11224TIP3   OH255086   1.869   6.190  15.622 -0.4927  0.5746  0.4201
11224TIP3    H155087   1.843   6.278  15.649 -1.2293 -0.3773  3.1792
11224TIP3    H255088   1.944   6.169  15.678 -1.2752 -1.0841  0.9005
11225TIP3   OH255089   1.375   3.882   1.559 -0.2428  0.0232 -0.1730
11225TIP3    H155090   1.351   3.871   1.651  1.3991  0.7708  0.3759
11225TIP3    H255091   1.375   3.793   1.524 -0.1748 -0.3372  0.7277
11226TIP3   OH255092   2.368   0.417   1.880 -0.3633  0.7269 -0.4810
11226TIP3    H155093   2.304   0.347   1.893 -0.7848  1.3634  1.1413
11226TIP3    H255094   2.400   0.437   1.968  1.8641  0.6402 -1.2143
11227TIP3   OH255095   2.577   2.363   0.955 -0.3426  0.1706 -0.0233
11227TIP3    H155096   2.510   2.295   0.948 -0.2205  0.0339  0.1481
11227TIP3    H255097   2.656   2.324   0.918 -0.2720  0.2208  0.0742
11228TIP3   OH255098   6.336   0.083  13.185  0.1744 -0.0255  0.2378
11228TIP3    H155099   6.416   0.046  13.224  0.8105 -0.2076 -1.1655
11228TIP3    H255100   6.291   0.008  13.146  0.7603  0.4105 -1.3979
11229TIP3   OH255101   1.328   2.090  14.083 -0.0962 -0.2503 -0.4262
11229TIP3    H155102   1.403   2.058  14.134 -0.8768 -1.2395  0.1344
11229TIP3    H255103   1.294   2.012  14.039 -1.2169  0.0417 -0.1111
11230TIP3   OH255104   5.423   4.057   1.816  0.0900  0.4778  0.3363
11230TIP3    H155105   5.444   4.148   1.795  1.0521  0.0314 -0.6785
11230TIP3    H255106   5.436   4.051   1.911  1.1435  1.1201  0.2444
11231TIP3   OH255107   5.558   0.830  10.774 -0.1915  0.0839 -0.3865
11231TIP3    H155108   5.651   0.806  10.775 -0.4171 -0.9084 -1.1420
11231TIP3    H255109   5.512   0.747  10.758 -1.4952 -0.2145  3.7278
11232TIP3   OH255110   1.387   4.034  15.792  0.0146  0.3239 -0.3276
11232TIP3    H155111   1.354   4.059  15.705 -3.3587 -1.3753  0.2807
11232TIP3    H255112   1.388   4.116  15.841 -2.1146  0.7671 -0.8819
11233TIP3   OH255113   1.959   2.225  13.357  0.5868  0.1312 -0.0359
11233TIP3    H155114   1.926   2.159  13.419 -0.5057 -1.2443 -1.9846
11233TIP3    H255115   2.051   2.202  13.346  0.2474 -1.0384 -0.5974
11234TIP3   OH255116   2.328   6.193   4.274  0.5627  0.1839  0.1921
11234TIP3    H155117   2.302   6.188   4.182  0.6640  0.5542  0.1420
11234TIP3    H255118   2.343   6.101   4.299  2.5269  0.1967 -0.7432
11235TIP3   OH255119   3.127   0.536   5.136 -0.1937  0.8679 -0.1151
11235TIP3    H155120   3.163   0.614   5.094 -1.4554  1.5580  0.0096
11235TIP3    H255121   3.044   0.521   5.092  0.0699 -0.4874 -0.1960
11236TIP3   OH255122   3.529   0.835  10.588 -0.2542 -0.0046  0.0852
11236TIP3    H155123   3.487   0.918  10.567  1.8855  1.1478  0.1628
11236TIP3    H255124   3.622   0.851  10.576  0.1715 -2.6707 -0.7603
11237TIP3   OH255125   6.740   4.771  12.377 -0.2681 -0.3609  0.3865
11237TIP3    H155126   6.744   4.839  12.444 -0.3461 -0.6169  0.6565
11237TIP3    H255127   6.766   4.815  12.296 -1.6602  0.3265  0.2760
11238TIP3   OH255128   5.426   4.626   3.027 -0.1678 -0.3938 -0.5063
11238TIP3    H155129   5.352   4.592   2.977 -2.0267  0.6532  1.3751
11238TIP3    H255130   5.426   4.575   3.108  1.2856 -0.4743 -0.5353
11239TIP3   OH255131   6.615   2.181  11.385 -0.2065  0.7914 -0.2345
11239TIP3    H155132   6.527   2.204  11.414  0.0217  0.6302  0.6075
11239TIP3    H255133   6.632   2.096  11.425 -0.1824  0.1886 -1.4986
11240TIP3   OH255134   0.437   4.991  12.348  0.2411 -0.5416 -0.6680
11240TIP3    H155135   0.360   5.047  12.344  0.3858 -0.2437  0.5164
11240TIP3    H255136   0.440   4.948  12.262 -1.4306 -0.8072 -0.6237
11241TIP3   OH255137   2.569   6.618  16.421 -0.3511 -0.3156  0.5383
11241TIP3    H155138   2.570   6.561  16.344 -0.4245 -0.8014  0.8938
11241TIP3    H255139   2.498   6.584  16.476 -1.7863  1.3938 -0.1813
11242TIP3   OH255140   4.573   2.523  15.590  0.5408 -0.2177  0.4305
11242TIP3    H155141   4.581   2.440  15.636  1.4316 -0.1046  0.4909
11242TIP3    H255142   4.555   2.499  15.499  1.0182 -0.4747  0.4063
11243TIP3   OH255143   0.779   2.590   2.907  0.8826 -0.2760 -0.1747
11243TIP3    H155144   0.862   2.611   2.865  0.4816  0.1606 -0.7562
11243TIP3    H255145   0.804   2.533   2.980  1.7513  0.3314  0.0237
11244TIP3   OH255146   4.216   2.893   4.031 -0.1130 -0.0361  0.1796
11244TIP3    H155147   4.283   2.893   4.100 -1.5532  1.2771  1.6770
11244TIP3    H255148   4.150   2.831   4.062  0.9049 -2.3160 -1.9113
11245TIP3   OH255149   4.918   1.723   5.198 -0.6579 -0.0774 -0.1374
11245TIP3    H155150   4.883   1.729   5.287  0.6621  0.1474  0.3892
11245TIP3    H255151   4.894   1.806   5.157  0.0252  0.4516  0.5146
11246TIP3   OH255152   6.247   4.052   5.777  0.0869  0.0458 -0.0562
11246TIP3    H155153   6.250   4.044   5.872 -0.1008 -1.6027 -0.1696
11246TIP3    H255154   6.325   4.007   5.746  2.1670  3.6215 -0.5977
11247TIP3   OH255155   4.363   5.391   1.153  0.0299  0.3971  0.5157
11247TIP3    H155156   4.383   5.466   1.209  2.7163 -1.1889  1.8944
11247TIP3    H255157   4.268   5.394   1.143 -0.0952  3.3400  1.3696
11248TIP3   OH255158   0.550   5.654  13.797 -0.1947 -0.6809 -0.7279
11248TIP3    H155159   0.595   5.629  13.716  0.0722  0.5089 -0.9644
11248TIP3    H255160   0.616   5.640  13.866  0.0244 -0.4236 -0.8830
11249TIP3   OH255161   1.049   2.398  15.062  0.1259 -0.0062  0.2946
11249TIP3    H155162   1.036   2.315  15.109  1.8300  0.0231  0.9143
11249TIP3    H255163   0.999   2.462  15.111 -0.9035 -0.5896  0.0323
11250TIP3   OH255164   4.889   0.580   3.495 -0.4284  0.2578  0.3421
11250TIP3    H155165   4.794   0.581   3.507 -0.4188 -1.2428  0.7745
11250TIP3    H255166   4.903   0.515   3.426  0.2875  0.4651  0.2868
11251TIP3   OH255167   2.272   0.048  11.033  0.0873  0.3948  0.5381
11251TIP3    H155168   2.363   0.048  11.063 -0.3607  0.7234  1.9966
11251TIP3    H255169   2.262   0.129  10.984  0.6131  0.2847  0.2417
11252TIP3   OH255170   3.719   5.340   2.364  0.5379 -0.4379 -0.2760
11252TIP3    H155171   3.667   5.416   2.335  1.2645  1.0796  2.0415
11252TIP3    H255172   3.737   5.358   2.457  2.7493 -2.3244 -0.2457
11253TIP3   OH255173   0.106   4.636  15.002 -0.0057 -0.1952  0.2061
11253TIP3    H155174   0.099   4.541  14.988  0.7742 -0.1955 -0.2268
11253TIP3    H255175   0.049   4.653  15.077 -0.5389 -0.9304 -0.0116
11254TIP3   OH255176   2.595   4.404   6.408  0.7577 -0.2138  0.1923
11254TIP3    H155177   2.520   4.446   6.365  0.7722 -2.5273 -2.3428
11254TIP3    H255178   2.558   4.362   6.485 -0.6846 -1.5496 -1.1669
11255TIP3   OH255179   5.453   1.088   4.977 -0.1546 -0.1413 -0.2694
11255TIP3    H155180   5.492   1.059   4.895 -1.2661  0.7580 -1.1669
11255TIP3    H255181   5.508   1.162   5.005  0.3001 -0.5295 -0.1304
11256TIP3   OH255182   0.669   0.518  11.209 -0.6257  1.1540  0.2711
11256TIP3    H155183   0.659   0.475  11.124 -0.8517  1.1963  0.2759
11256TIP3    H255184   0.755   0.560  11.205 -0.2339  0.3766  0.4126
11257TIP3   OH255185   3.817   1.699  14.981  0.3074 -0.0873 -0.3956
11257TIP3    H155186   3.800   1.731  14.892 -2.5764  2.0679  0.7802
11257TIP3    H255187   3.900   1.738  15.006  1.0197 -0.4974 -1.9876
11258TIP3   OH255188   4.825   6.079  15.819 -0.8281 -0.1572  0.6696
11258TIP3    H155189   4.731   6.080  15.831 -1.0943  1.2855 -1.0949
11258TIP3    H255190   4.842   6.149  15.757  1.6006  0.6648  2.1293
11259TIP3   OH255191   4.488   6.463   6.185  0.3860  0.1430 -0.3745
11259TIP3    H155192   4.420   6.527   6.204 -0.3314  0.1081 -2.5597
11259TIP3    H255193   4.442   6.389   6.146  1.5826 -0.2104 -1.1865
11260TIP3   OH255194   3.249   2.694   2.675 -0.4254 -0.0499 -0.0499
11260TIP3    H155195   3.291   2.621   2.721 -0.9499  0.2360  0.8999
11260TIP3    H255196   3.321   2.737   2.630  0.5163  0.9632  2.2676
11261TIP3   OH255197   4.208   4.468   4.489 -0.2540 -0.1549  0.4164
11261TIP3    H155198   4.249   4.437   4.408  0.2524 -1.0172  0.9863
11261TIP3    H255199   4.148   4.538   4.461 -0.3740 -0.7039 -0.7416
11262TIP3   OH255200   0.909   1.032   4.741  0.3526 -0.4239  0.1086
11262TIP3    H155201   0.980   1.095   4.749  1.5432 -1.5165 -1.1372
11262TIP3    H255202   0.901   1.017   4.647 -0.5360 -1.4329  0.3209
11263TIP3   OH255203   4.093   0.204  14.998  0.0274  0.4401  0.4120
11263TIP3    H155204   4.156   0.153  14.947  0.9032  2.9523 -1.1903
11263TIP3    H255205   4.008   0.184  14.958  0.1986 -0.4957  0.4900
11264TIP3   OH255206   2.653   3.219  14.669 -0.3528  0.4817  0.0333
11264TIP3    H155207   2.564   3.250  14.685  0.0103  1.6647 -0.1110
11264TIP3    H255208   2.654   3.192  14.577 -0.2039  1.8274 -0.3798
11265TIP3   OH255209   2.865   0.421   2.732 -0.2139  0.1729 -0.7893
11265TIP3    H155210   2.774   0.390   2.737 -1.2474  3.0374  3.5641
11265TIP3    H255211   2.911   0.368   2.797  0.5872  0.5901 -1.0129
11266TIP3   OH255212   4.571   6.106  15.891  0.5057  0.0899 -0.7138
11266TIP3    H155213   4.528   6.092  15.975  0.9807  0.1963 -0.4478
11266TIP3    H255214   4.545   6.194  15.865 -0.7207 -0.4242 -1.3329
11267TIP3   OH255215   2.446   3.036  16.445 -0.1508 -0.2791  0.2904
11267TIP3    H155216   2.405   3.100  16.505 -2.0818 -1.2652  0.1079
11267TIP3    H255217   2.382   3.026  16.375  0.5695 -1.6754 -0.1876
11268TIP3   OH255218   5.379   3.867   4.950 -0.2840  0.2940  0.8941
11268TIP3    H155219   5.414   3.936   4.894 -0.1955  0.4158  1.0992
11268TIP3    H255220   5.378   3.905   5.037 -0.3617  0.0813  0.9867
11269TIP3   OH255221   1.431   1.078  13.758  0.2099 -0.3649 -0.0578
11269TIP3    H155222   1.432   1.064  13.664  0.1784  1.2358 -0.3237
11269TIP3    H255223   1.512   1.039  13.789 -0.1085 -1.5211 -0.6329
11270TIP3   OH255224   3.628   5.501   0.734  0.1654  0.0076  0.4321
11270TIP3    H155225   3.568   5.570   0.763 -1.3988  0.3501 -3.0943
11270TIP3    H255226   3.572   5.427   0.714  1.0871 -0.3132 -1.1908
11271TIP3   OH255227   5.263   3.721  12.034  0.4351  0.0256 -0.1658
11271TIP3    H155228   5.197   3.732  11.966  0.5709 -2.7575 -0.8864
11271TIP3    H255229   5.336   3.678  11.990  2.1434  1.5986  0.9679
11272TIP3   OH255230   4.666   2.289  13.689  0.0549  0.2781 -0.2134
11272TIP3    H155231   4.748   2.254  13.654 -0.0495  0.3909 -0.5823
11272TIP3    H255232   4.693   2.353  13.755  0.2782  0.5530 -0.5615
11273TIP3   OH255233   3.083   1.766   1.711  0.2802 -0.1037  0.1171
11273TIP3    H155234   3.144   1.735   1.644 -0.3846 -3.9218  1.0363
11273TIP3    H255235   3.139   1.785   1.787  0.7393  1.3938 -0.5582
11274TIP3   OH255236   1.892   0.763  12.103  0.3047  0.0143  0.1053
11274TIP3    H155237   1.842   0.826  12.051  0.1515 -1.3713 -1.5058
11274TIP3    H255238   1.890   0.799  12.191 -2.1906  0.8524 -0.1920
11275TIP3   OH255239   0.601   3.422  16.089 -0.8443  0.3438 -0.0060
11275TIP3    H155240   0.556   3.454  16.011 -1.9244  0.8160  0.7879
11275TIP3    H255241   0.531   3.389  16.145  0.0746 -1.9466 -0.0820
11276TIP3   OH255242   0.373   4.718   3.080 -0.2199 -0.6191 -0.1142
11276TIP3    H155243   0.358   4.642   3.023 -1.5181  0.4101 -1.2011
11276TIP3    H255244   0.341   4.793   3.030  0.4519  0.5888  1.1847
11277TIP3   OH255245   5.073   5.869   1.806  0.9678  0.0987 -0.6215
11277TIP3    H155246   5.135   5.922   1.756  0.3928  0.1960 -1.2505
11277TIP3    H255247   5.117   5.852   1.889  1.3888  1.0955 -0.6268
11278TIP3   OH255248   0.044   3.762  17.218  0.3764  0.2341  0.2092
11278TIP3    H155249   0.044   3.828  17.287  0.3120 -0.0435  0.4794
11278TIP3    H255250  -0.043   3.722  17.222  0.8193 -0.7272  0.9008
11279TIP3   OH255251   1.716   5.238   5.456 -0.4369  0.0635 -0.1385
11279TIP3    H155252   1.796   5.224   5.404 -0.3933  0.3079 -0.1346
11279TIP3    H255253   1.646   5.198   5.403 -0.0965 -1.5544  0.5626
11280TIP3   OH255254   0.876   4.307  16.737 -0.1087 -0.4143  0.0441
11280TIP3    H155255   0.819   4.353  16.675  0.0159 -0.1798  0.1004
11280TIP3    H255256   0.825   4.302  16.818  1.0265  2.5045  1.0797
11281TIP3   OH255257   3.903   4.660  14.370  0.2987 -0.4326 -0.6439
11281TIP3    H155258   3.908   4.694  14.281 -0.4132  2.0539  0.1800
11281TIP3    H255259   3.993   4.659  14.401  0.3477  0.8476 -0.6903
11282TIP3   OH255260   6.285   5.635  10.890  0.3576  0.8812  0.6309
11282TIP3    H155261   6.326   5.632  10.976  0.7344 -0.4797  0.4302
11282TIP3    H255262   6.278   5.728  10.869  1.4016  1.1911  1.5877
11283TIP3   OH255263   4.566   6.719   5.333 -0.4747  0.0995 -0.1394
11283TIP3    H155264   4.631   6.751   5.271 -1.6733  2.3474 -0.3616
11283TIP3    H255265   4.482   6.749   5.298 -1.5171 -1.5659  0.8116
11284TIP3   OH255266   6.114   3.044   3.553 -0.4072 -0.3580 -0.2442
11284TIP3    H155267   6.143   3.101   3.481  0.5936  0.1969  0.5803
11284TIP3    H255268   6.025   3.074   3.572 -0.6247 -0.4004 -1.1262
11285TIP3   OH255269   5.929   3.010   2.726 -0.1305 -0.1770 -0.3549
11285TIP3    H155270   5.900   3.072   2.793  1.4907  0.5514 -0.2726
11285TIP3    H255271   5.904   2.924   2.760 -0.4143  0.2697  0.5961
11286TIP3   OH255272   4.706   4.228  11.669 -0.2161 -0.5477  0.4684
11286TIP3    H155273   4.644   4.196  11.603 -1.2655  1.4673  0.4262
11286TIP3    H255274   4.708   4.322  11.657  4.7257 -0.5933 -1.1413
11287TIP3   OH255275   2.697   6.408   1.047 -0.3501 -0.0602  0.4341
11287TIP3    H155276   2.620   6.387   1.100 -1.6542  2.2770 -0.3734
11287TIP3    H255277   2.685   6.500   1.024  2.0830  0.0247 -0.7807
11288TIP3   OH255278   1.434   2.801  15.051 -0.1756 -0.2686  0.3665
11288TIP3    H155279   1.408   2.727  14.997  1.0712 -1.4291  1.2964
11288TIP3    H255280   1.506   2.768  15.105 -0.1519  1.3729  1.4165
11289TIP3   OH255281   0.329   3.645   2.482  0.1995 -0.2650 -0.2522
11289TIP3    H155282   0.352   3.658   2.390 -0.9144 -1.4696 -0.7323
11289TIP3    H255283   0.360   3.557   2.503  1.6359  0.4943  0.9387
11290TIP3   OH255284   6.301   2.186   6.712 -0.0921  0.1074 -0.5791
11290TIP3    H155285   6.239   2.126   6.753  0.2794  0.8163  1.1144
11290TIP3    H255286   6.339   2.136   6.640 -0.1374 -1.5218  0.4846
11291TIP3   OH255287   6.632   1.524  13.035  0.5502  0.6603 -0.0046
11291TIP3    H155288   6.639   1.477  12.952 -0.1578  0.5850 -0.0283
11291TIP3    H255289   6.561   1.480  13.081  1.0910  0.5515  0.7457
11292TIP3   OH255290   6.106   0.972   4.858  0.6337  0.9951  0.1004
11292TIP3    H155291   6.123   0.928   4.775  0.5526 -0.7158  0.9333
11292TIP3    H255292   6.111   1.065   4.838  1.3629  0.6167 -1.6537
11293TIP3   OH255293   1.010   1.189   3.829 -0.3511 -0.3274  0.2818
11293TIP3    H155294   0.937   1.247   3.805  0.4506  1.1250  1.2443
11293TIP3    H255295   1.018   1.197   3.924 -0.1016 -1.9178  0.4249
11294TIP3   OH255296   6.354   1.972  15.911 -0.5677 -0.0574  0.1379
11294TIP3    H155297   6.364   2.028  15.988  0.3341 -0.7680  0.5633
11294TIP3    H255298   6.430   1.993  15.856 -0.8962  0.0342 -0.2848
11295TIP3   OH255299   4.358   0.492  15.523 -0.5685 -0.4335 -0.1016
11295TIP3    H155300   4.386   0.425  15.461 -2.1308 -0.7727 -0.4768
11295TIP3    H255301   4.437   0.515  15.571  0.1752 -1.8855 -0.5941
11296TIP3   OH255302   1.617   4.772   2.083 -0.3609  0.2884  0.8255
11296TIP3    H155303   1.662   4.825   2.017 -0.6686 -0.8289 -0.3488
11296TIP3    H255304   1.524   4.778   2.059 -0.2840 -1.9609 -0.3382
11297TIP3   OH255305   3.001   6.336   3.724 -0.1326  0.5029 -0.1278
11297TIP3    H155306   3.049   6.253   3.719 -0.2261  0.4821 -0.7196
11297TIP3    H255307   2.911   6.314   3.701 -0.5868  0.4347  1.5746
11298TIP3   OH255308   4.832   0.749   2.174 -0.0287 -0.6954  0.2847
11298TIP3    H155309   4.915   0.751   2.128 -0.9893  1.2168 -1.5294
11298TIP3    H255310   4.842   0.812   2.245 -0.4950  1.0591 -1.1356
11299TIP3   OH255311   2.387   0.894  14.977  0.2143 -0.0106  0.2739
11299TIP3    H155312   2.476   0.915  14.950 -0.5205  1.8079 -0.9647
11299TIP3    H255313   2.334   0.966  14.941 -1.5426 -0.1871  2.3348
11300TIP3   OH255314   1.170   1.116   1.223  0.2635  0.7009  0.0854
11300TIP3    H155315   1.263   1.139   1.214 -0.3250  2.6243 -1.6610
11300TIP3    H255316   1.123   1.196   1.200 -1.8726 -0.7589 -0.9222
11301TIP3   OH255317   4.175   4.700   0.294 -0.2306  0.5040  0.5674
11301TIP3    H155318   4.142   4.654   0.217  1.1858  1.3883 -0.6183
11301TIP3    H255319   4.216   4.631   0.347 -0.3089  0.0471  0.0439
11302TIP3   OH255320   5.208   6.020  16.014 -0.1719  0.0773  0.0921
11302TIP3    H155321   5.159   6.099  15.992  0.8191  0.3207 -1.3378
11302TIP3    H255322   5.300   6.045  16.002  0.1746 -1.1547  0.0992
11303TIP3   OH255323   2.767   1.492   5.708 -0.4183  0.2915  0.3098
11303TIP3    H155324   2.747   1.500   5.614  1.0059 -1.0764 -0.1528
11303TIP3    H255325   2.688   1.454   5.746 -0.6050 -0.1982 -0.5385
11304TIP3   OH255326   4.509   5.858  14.447  0.5367 -0.0452 -0.1436
11304TIP3    H155327   4.588   5.909  14.461 -0.1061  1.1622 -0.7200
11304TIP3    H255328   4.447   5.890  14.512  0.9001 -1.9350  1.2223
11305TIP3   OH255329   5.127   0.351   2.598  0.7987  0.1063 -0.5586
11305TIP3    H155330   5.127   0.402   2.680  0.6809 -1.1043  0.2180
11305TIP3    H255331   5.215   0.314   2.593  0.9384  0.5084 -1.2102
11306TIP3   OH255332   2.217   1.026  14.295 -0.0071  0.2053  0.0878
11306TIP3    H155333   2.160   0.951  14.313  0.7480 -0.0537  1.5674
11306TIP3    H255334   2.156   1.095  14.269 -0.7184 -0.8979 -1.3400
11307TIP3   OH255335   5.281   4.049   4.048 -0.4154 -0.1406  0.0149
11307TIP3    H155336   5.356   3.993   4.070  0.2804  0.9977  0.6200
11307TIP3    H255337   5.286   4.059   3.953 -0.0040 -0.3680  0.0091
11308TIP3   OH255338   2.056   5.166   0.829  0.1868  0.0596 -0.5637
11308TIP3    H155339   2.145   5.166   0.864  0.0997 -0.6451 -0.3357
11308TIP3    H255340   2.025   5.256   0.843  1.2763  0.6529 -1.7342
11309TIP3   OH255341   1.611   3.397  16.024 -0.4418 -0.0307 -0.8171
11309TIP3    H155342   1.575   3.333  15.962  0.9387  0.5469 -2.2727
11309TIP3    H255343   1.546   3.401  16.095 -1.9048 -0.9666 -2.0511
11310TIP3   OH255344   2.069   2.937   3.691 -0.3186  0.0462  0.4292
11310TIP3    H155345   2.016   2.858   3.695 -1.9220  0.8211 -2.3690
11310TIP3    H255346   2.150   2.910   3.648 -1.3982  0.0817 -1.7375
11311TIP3   OH255347   1.080   5.789  12.683 -0.4451 -0.1953 -0.3067
11311TIP3    H155348   1.064   5.745  12.600  0.4372  2.0336 -1.7187
11311TIP3    H255349   1.090   5.881  12.661  0.8655  0.3429  2.1416
11312TIP3   OH255350   3.060   2.152   1.042  0.8504 -0.3404  0.1953
11312TIP3    H155351   3.064   2.063   1.077  0.2089 -0.8689 -1.0018
11312TIP3    H255352   3.108   2.148   0.960  0.7022  0.3931  0.0628
11313TIP3   OH255353   5.683   4.975   4.734 -0.2488  0.3588 -0.7364
11313TIP3    H155354   5.602   4.982   4.683 -1.7369 -0.5450  1.3913
11313TIP3    H255355   5.654   4.958   4.823  2.2696  1.8375  0.4548
11314TIP3   OH255356   4.157   6.279   0.138 -0.1650 -0.4417  0.4156
11314TIP3    H155357   4.157   6.189   0.104  1.8650 -0.1445 -0.4978
11314TIP3    H255358   4.205   6.273   0.220 -2.0173 -0.5428  1.5378
11315TIP3   OH255359   2.528   0.855   2.449  0.2996 -0.2906 -0.0500
11315TIP3    H155360   2.460   0.788   2.457  0.6797 -0.7166 -0.3937
11315TIP3    H255361   2.505   0.904   2.371 -0.1586  0.1897  0.3795
11316TIP3   OH255362   1.120   3.662   5.900  0.4760  0.2185 -0.2531
11316TIP3    H155363   1.104   3.581   5.851  2.3976  0.6912 -1.7906
11316TIP3    H255364   1.060   3.657   5.975  2.0032 -3.6722  0.9408
11317TIP3   OH255365   4.550   0.055  14.651 -0.1902 -0.4550  0.4245
11317TIP3    H155366   4.471   0.081  14.605  0.9492  1.4207 -0.5701
11317TIP3    H255367   4.543   0.097  14.737  1.6882  3.6457 -1.1996
11318TIP3   OH255368   6.507   4.491   5.122  0.2188 -0.6090 -0.1827
11318TIP3    H155369   6.544   4.558   5.179  0.7838  0.3100 -1.5475
11318TIP3    H255370   6.476   4.423   5.181 -1.6981  1.4685  1.3632
11319TIP3   OH255371   0.989   2.886  13.339  0.0454 -0.1019 -0.5457
11319TIP3    H155372   0.924   2.922  13.278  1.2640  0.2206 -1.7221
11319TIP3    H255373   0.997   2.794  13.314  0.2395 -0.0698 -0.6091
11320TIP3   OH255374   4.274   0.778  10.956 -0.4160 -0.3003  0.0783
11320TIP3    H155375   4.187   0.777  10.996 -0.9585  1.6760 -0.9423
11320TIP3    H255376   4.257   0.790  10.862  0.9412  1.7778  0.0382
11321TIP3   OH255377   2.061   6.619  10.407  0.0829 -0.5268 -0.0419
11321TIP3    H155378   2.093   6.530  10.421  0.2166 -0.7181 -1.4045
11321TIP3    H255379   1.988   6.608  10.345 -0.5102  0.2228  0.5142
11322TIP3   OH255380   2.852   6.680  15.509  0.3218 -0.1325 -0.0943
11322TIP3    H155381   2.799   6.712  15.583  0.2618  0.7969 -0.5234
11322TIP3    H255382   2.821   6.590  15.495  0.4748 -0.3990  1.1324
11323TIP3   OH255383   6.509   0.633   5.059  0.0802 -0.6794 -0.4545
11323TIP3    H155384   6.419   0.623   5.089  0.7365 -1.1913  1.5511
11323TIP3    H255385   6.521   0.565   4.993 -0.8190 -1.0036 -0.2957
11324TIP3   OH255386   3.713   1.736   1.021 -0.4045 -0.2143 -0.5689
11324TIP3    H155387   3.676   1.821   1.043 -0.1513 -0.2717  0.0885
11324TIP3    H255388   3.772   1.754   0.947 -2.2067 -0.2233 -2.0946
11325TIP3   OH255389   1.464   0.265   2.070  0.0378  0.0637 -0.4031
11325TIP3    H155390   1.384   0.314   2.057 -0.5356 -0.3318  1.3182
11325TIP3    H255391   1.534   0.326   2.050 -0.6756  1.2717  0.6549
11326TIP3   OH255392   4.345   4.717   3.320  0.4281 -0.4634 -0.0270
11326TIP3    H155393   4.412   4.658   3.285  1.6997  0.4752  0.7081
11326TIP3    H255394   4.385   4.752   3.400  0.4761  2.7454 -1.3400
11327TIP3   OH255395   4.994   1.439  17.023 -0.1835  0.2900  0.2155
11327TIP3    H155396   4.985   1.528  17.056  1.3659  0.4303  0.3146
11327TIP3    H255397   4.984   1.383  17.100 -1.9960  0.2993  0.0285
11328TIP3   OH255398   0.933   3.061   1.468 -0.0396  0.5365  0.1435
11328TIP3    H155399   0.896   3.063   1.379 -0.5407 -1.0120  0.2739
11328TIP3    H255400   0.955   3.152   1.487  0.3498  0.8667 -1.6818
11329TIP3   OH255401   2.942   2.074   0.668  0.1574 -0.0922 -1.1072
11329TIP3    H155402   2.899   2.142   0.618  1.5959  0.4901 -1.6040
11329TIP3    H255403   2.982   2.120   0.742 -0.1349 -0.6291 -0.6031
11330TIP3   OH255404   2.626   3.234  12.207  0.2017 -0.3232  0.0260
11330TIP3    H155405   2.703   3.275  12.166 -0.6161 -0.3372 -1.6178
11330TIP3    H255406   2.591   3.302  12.265 -0.5049  0.9924 -1.8340
11331TIP3   OH255407   0.091   2.801  11.864 -0.3773 -0.1177 -0.1696
11331TIP3    H155408   0.104   2.741  11.937 -0.9624  0.0648  0.0918
11331TIP3    H255409   0.037   2.753  11.802 -1.4771  0.3889  0.3757
11332TIP3   OH255410   1.501   6.146  12.515  0.2320  0.0415 -0.6003
11332TIP3    H155411   1.547   6.066  12.541  1.1081  0.2158 -1.5486
11332TIP3    H255412   1.571   6.205  12.484 -0.4334  1.0540 -0.2090
11333TIP3   OH255413   1.617   1.666  13.313 -0.5517 -0.9288 -0.1973
11333TIP3    H155414   1.525   1.655  13.336 -0.7798 -0.3170 -0.7929
11333TIP3    H255415   1.624   1.757  13.283  0.8197 -0.0527  2.4572
11334TIP3   OH255416   1.375   6.734  15.196  1.0609  0.0597  0.2130
11334TIP3    H155417   1.359   6.734  15.102 -1.4248 -1.7771  0.5426
11334TIP3    H255418   1.437   6.806  15.209  1.1009  0.7008 -2.7371
11335TIP3   OH255419   0.701   6.224   2.523 -0.0809  0.3008  0.0777
11335TIP3    H155420   0.744   6.156   2.575  1.5358  0.7359 -0.6263
11335TIP3    H255421   0.773   6.273   2.483 -1.2435  1.3093 -0.8677
11336TIP3   OH255422   0.240   4.112   4.071 -0.3942  0.6744 -0.7576
11336TIP3    H155423   0.182   4.104   3.996 -0.3118  0.8382 -0.8389
11336TIP3    H255424   0.185   4.151   4.140 -0.5901  0.1167 -0.5952
11337TIP3   OH255425   0.500   4.349  16.226 -0.2784  0.2918 -0.0681
11337TIP3    H155426   0.523   4.403  16.151 -1.3491 -0.2907 -0.8465
11337TIP3    H255427   0.584   4.320  16.261  0.2384 -0.0107 -1.4936
11338TIP3   OH255428   3.698   0.325  15.638 -0.2032  0.0993  0.1274
11338TIP3    H155429   3.736   0.401  15.593 -0.9086  0.1668 -0.3695
11338TIP3    H255430   3.643   0.363  15.706  0.8552 -0.0029  1.0737
11339TIP3   OH255431   0.966   0.386   5.120 -0.4766 -0.0147 -0.0912
11339TIP3    H155432   0.921   0.436   5.189 -0.5387 -0.7251  0.3923
11339TIP3    H255433   0.911   0.398   5.043 -1.8920 -1.3977  0.6494
11340TIP3   OH255434   3.017   0.725   6.243  0.2884  0.1275  0.2407
11340TIP3    H155435   2.967   0.769   6.312 -0.4198 -2.2140  1.3304
11340TIP3    H255436   3.107   0.724   6.277  0.0529 -0.4677  0.8787
11341TIP3   OH255437   0.123   6.008  15.253  0.2890 -0.6090 -0.2462
11341TIP3    H155438   0.058   5.967  15.310  0.6519  2.3240  2.5728
11341TIP3    H255439   0.197   5.948  15.254  0.0659 -0.9284  2.0021
11342TIP3   OH255440   0.390   4.854   2.650  0.4032  0.0131  0.2153
11342TIP3    H155441   0.388   4.949   2.638  1.8292 -0.0264 -0.5030
11342TIP3    H255442   0.308   4.823   2.611 -0.2068  0.9630  0.7157
11343TIP3   OH255443   5.222   0.872  14.757 -0.1085 -0.4205  0.0983
11343TIP3    H155444   5.225   0.839  14.847 -1.1655 -0.7621  0.0255
11343TIP3    H255445   5.142   0.924  14.753 -1.2228 -2.0880 -1.1567
11344TIP3   OH255446   1.272   0.692   5.558 -0.0745  0.0599  0.6366
11344TIP3    H155447   1.237   0.604   5.576  0.7581 -0.3290  0.4127
11344TIP3    H255448   1.330   0.710   5.633 -0.4937  0.5581  0.8426
11345TIP3   OH255449   4.765   6.479   5.185  0.2814 -0.0391 -0.7228
11345TIP3    H155450   4.841   6.485   5.127 -0.5157 -1.0205 -1.9274
11345TIP3    H255451   4.690   6.489   5.128 -0.5438  1.6237  0.5488
11346TIP3   OH255452   5.551   2.528   1.158  0.0911  0.5772  0.3445
11346TIP3    H155453   5.575   2.600   1.217  3.1287 -0.6562  0.7596
11346TIP3    H255454   5.518   2.572   1.079  0.3061  2.3584  1.1921
11347TIP3   OH255455   5.445   5.330  16.273 -0.3824 -0.0167  0.3830
11347TIP3    H155456   5.438   5.325  16.368 -0.7573  1.5586  0.4716
11347TIP3    H255457   5.373   5.276  16.241 -0.2086 -0.6173  0.9800
11348TIP3   OH255458   2.191   5.571  12.436  0.0261 -0.5411 -0.3951
11348TIP3    H155459   2.135   5.493  12.439  1.2671 -1.4480  0.0949
11348TIP3    H255460   2.263   5.552  12.497  1.1016  0.3908 -1.3158
11349TIP3   OH255461   6.745   2.339   6.142  0.1764  0.0773  0.1842
11349TIP3    H155462   6.689   2.276   6.186  1.2364  0.0250  1.5649
11349TIP3    H255463   6.688   2.414   6.124  0.1345  1.2545  4.1613
11350TIP3   OH255464   1.780   0.049   2.352  0.6289 -0.4916  0.3646
11350TIP3    H155465   1.795   0.047   2.447  2.5339 -0.3246  0.1191
11350TIP3    H255466   1.694   0.009   2.340  0.5469 -0.9262  2.1294
11351TIP3   OH255467   4.718   4.676  12.621  0.6665 -0.4279 -0.3401
11351TIP3    H155468   4.804   4.639  12.601  0.7871 -0.3786  0.0786
11351TIP3    H255469   4.656   4.608  12.594  0.7366  0.2070 -2.2325
11352TIP3   OH255470   0.697   0.558   2.174 -0.2817 -0.4036 -0.4116
11352TIP3    H155471   0.656   0.644   2.169 -2.1811 -1.2093  0.2074
11352TIP3    H255472   0.785   0.570   2.137 -0.5090  1.7660 -0.3430
11353TIP3   OH255473   4.154   3.647   1.506  0.2289  0.4157  0.3476
11353TIP3    H155474   4.163   3.742   1.503  0.6243  0.4109  1.0898
11353TIP3    H255475   4.232   3.615   1.460 -0.3596  0.4458 -0.7072
11354TIP3   OH255476   6.041   4.427  11.406  0.4044 -0.3008 -0.2681
11354TIP3    H155477   6.092   4.502  11.377 -0.4424  0.5391  0.3604
11354TIP3    H255478   6.030   4.440  11.501 -1.1100 -0.3551 -0.4111
11355TIP3   OH255479   5.225   1.379  11.328  0.5265  0.1468  0.4328
11355TIP3    H155480   5.153   1.339  11.279  1.5453 -1.0592 -0.1216
11355TIP3    H255481   5.280   1.305  11.354  0.9046  0.9264  1.9533
11356TIP3   OH255482   3.476   1.059   2.461 -0.2351  0.2857  0.0848
11356TIP3    H155483   3.429   1.037   2.541  0.1804 -0.4571  0.1373
11356TIP3    H255484   3.408   1.071   2.395 -0.6238  1.5956  0.6962
11357TIP3   OH255485   0.686   5.559  11.717  0.3074  0.3342 -0.4538
11357TIP3    H155486   0.775   5.567  11.752 -0.4586 -0.3964  1.7592
11357TIP3    H255487   0.698   5.515  11.632  1.9097 -1.7044  0.7461
11358TIP3   OH255488   6.454   5.666   2.584 -0.2415 -0.4945 -0.0272
11358TIP3    H155489   6.459   5.751   2.539  1.5348 -1.0260 -0.9480
11358TIP3    H255490   6.509   5.678   2.662 -1.9179 -0.1089  1.1421
11359TIP3   OH255491   4.405   6.070   3.310 -0.0419  0.1793 -0.1884
11359TIP3    H155492   4.346   6.092   3.237 -0.6836 -0.4242  0.1417
11359TIP3    H255493   4.454   5.995   3.279 -1.2204 -0.8940  0.4570
11360TIP3   OH255494   3.382   6.196   5.347 -0.5139 -0.1251 -0.0563
11360TIP3    H155495   3.302   6.237   5.382 -0.5618 -1.1795  1.1544
11360TIP3    H255496   3.453   6.250   5.383 -0.6586  0.8765 -1.2184
11361TIP3   OH255497   0.788   4.982   1.867  0.2233 -0.2273 -0.0056
11361TIP3    H155498   0.861   5.007   1.811 -1.5396  0.7674 -1.9823
11361TIP3    H255499   0.784   4.887   1.861 -0.1158 -0.1376 -1.9258
11362TIP3   OH255500   6.312   3.565   2.811  0.0681 -0.0116  0.5127
11362TIP3    H155501   6.289   3.475   2.835  2.0727 -0.0369  2.6890
11362TIP3    H255502   6.327   3.609   2.894 -1.0407  2.4397 -0.4956
11363TIP3   OH255503   5.158   0.428   4.181  0.7429  0.1570 -0.1126
11363TIP3    H155504   5.221   0.393   4.118 -1.4010  0.8548 -2.8227
11363TIP3    H255505   5.125   0.507   4.140 -0.9358  0.5505  1.8438
11364TIP3   OH255506   2.765   6.688  12.894  0.2775  0.1434 -0.2804
11364TIP3    H155507   2.846   6.644  12.919  0.9757  2.3027  1.5590
11364TIP3    H255508   2.765   6.770  12.944 -2.6213  0.6348 -0.8784
11365TIP3   OH255509   6.505   1.733  13.648 -0.3918 -0.0798  0.1135
11365TIP3    H155510   6.421   1.708  13.611  0.0679  0.5355 -1.4177
11365TIP3    H255511   6.495   1.826  13.669  0.0838  0.1464 -0.6336
11366TIP3   OH255512   3.457   0.190   5.339  0.0014  0.3773  0.2718
11366TIP3    H155513   3.440   0.274   5.297  1.8706  1.3653  1.3333
11366TIP3    H255514   3.486   0.213   5.428  2.1071 -1.2526  0.0866
11367TIP3   OH255515   2.151   4.427  11.220  0.5348  0.1440  0.0431
11367TIP3    H155516   2.181   4.341  11.249  0.4068 -0.1102 -0.5576
11367TIP3    H255517   2.229   4.469  11.186  0.4562 -0.0509 -0.3977
11368TIP3   OH255518   0.811   5.102   4.795 -0.5113 -0.4523 -0.3997
11368TIP3    H155519   0.857   5.108   4.879  1.6769  0.3433 -1.5671
11368TIP3    H255520   0.755   5.180   4.794  1.2750  0.9127 -0.6162
11369TIP3   OH255521   3.588   5.770  11.534  0.4509 -0.8184 -0.4440
11369TIP3    H155522   3.519   5.739  11.475 -0.6018 -2.7785  1.6676
11369TIP3    H255523   3.590   5.865  11.520 -3.3854 -0.5018 -0.0063
11370TIP3   OH255524   2.907   3.810   5.544 -0.2228 -0.0195  0.0042
11370TIP3    H155525   2.978   3.748   5.562  3.1636  3.8050  1.2889
11370TIP3    H255526   2.928   3.848   5.459 -1.9996 -0.2503 -0.5837
11371TIP3   OH255527   2.385   6.110  15.396  0.0945  0.1287 -0.1890
11371TIP3    H155528   2.398   6.125  15.302 -2.6700  0.1443 -0.6509
11371TIP3    H255529   2.467   6.069  15.425  2.4190  3.1748 -1.8196
11372TIP3   OH255530   3.862   2.091  12.666 -0.3832  0.2901  0.2154
11372TIP3    H155531   3.812   2.086  12.747 -0.8100 -1.3868 -0.1117
11372TIP3    H255532   3.802   2.059  12.599 -0.2584  2.2826 -0.8966
11373TIP3   OH255533   4.426   1.717   2.135  0.4513  0.8521  0.3019
11373TIP3    H155534   4.345   1.667   2.142 -0.4779  2.0874 -1.0556
11373TIP3    H255535   4.494   1.658   2.170 -0.5396 -1.4032 -1.3168
11374TIP3   OH255536   2.800   5.334  15.077 -0.4552 -0.1611 -0.2137
11374TIP3    H155537   2.821   5.245  15.107 -1.4969 -0.2410  0.3343
11374TIP3    H255538   2.793   5.385  15.158 -0.5196  0.2740 -0.4885
11375TIP3   OH255539   4.232   3.881  15.252 -0.5723  0.6022 -0.2959
11375TIP3    H155540   4.290   3.848  15.184 -0.0861  1.3234 -0.2481
11375TIP3    H255541   4.144   3.858  15.223 -0.2246 -1.6524  0.2538
11376TIP3   OH255542   1.476   4.608   0.600  0.3013  0.3492  0.4168
11376TIP3    H155543   1.571   4.616   0.597  0.4321 -1.1749 -0.1380
11376TIP3    H255544   1.459   4.559   0.681  0.0579 -0.1657  0.0580
11377TIP3   OH255545   1.528   5.456   5.442  0.3585  0.2902 -0.7383
11377TIP3    H155546   1.547   5.362   5.445  0.3525  0.2700 -1.2540
11377TIP3    H255547   1.542   5.480   5.351  0.4031  0.8022 -0.5981
11378TIP3   OH255548   6.613   0.729  10.715 -0.2969 -0.6600 -0.2305
11378TIP3    H155549   6.663   0.772  10.645  2.0734 -2.0719  0.4569
11378TIP3    H255550   6.626   0.635  10.699  0.1804 -1.0275  1.9385
11379TIP3   OH255551   0.557   5.806  14.299  0.1754 -0.6962  0.3205
11379TIP3    H155552   0.528   5.719  14.271 -0.6224 -1.0970  2.1998
11379TIP3    H255553   0.625   5.789  14.364  0.1710  0.0734  0.5379
11380TIP3   OH255554   3.478   4.512  11.396 -0.2640 -0.1819 -0.6297
11380TIP3    H155555   3.544   4.459  11.351 -1.6249 -1.1085 -1.6406
11380TIP3    H255556   3.443   4.454  11.463 -2.0337 -0.7662 -1.9900
11381TIP3   OH255557   3.664   5.658   3.662  0.7415  0.1260  0.4878
11381TIP3    H155558   3.688   5.604   3.586 -0.4148 -1.4077  1.1547
11381TIP3    H255559   3.623   5.736   3.624  3.5693  1.2493 -0.5496
11382TIP3   OH255560   6.183   6.470  11.527 -0.1847 -0.8604  0.0450
11382TIP3    H155561   6.136   6.414  11.588  2.3517 -1.2441  1.7809
11382TIP3    H255562   6.220   6.410  11.462 -1.7143 -0.5881 -1.1407
11383TIP3   OH255563   5.447   1.296   4.182  0.5309 -0.3196 -0.0611
11383TIP3    H155564   5.442   1.387   4.154  2.4036 -0.3243 -0.5393
11383TIP3    H255565   5.383   1.251   4.127 -1.1684  0.8189  0.8795
11384TIP3   OH255566   5.141   2.270  16.618 -0.3319  0.1570 -0.2470
11384TIP3    H155567   5.062   2.253  16.567  0.5940 -2.8929 -0.8702
11384TIP3    H255568   5.139   2.205  16.688  0.3688  1.7709  1.3552
11385TIP3   OH255569   0.146   5.191   2.091 -0.1600 -0.0896 -0.1638
11385TIP3    H155570   0.095   5.264   2.126  2.0633  1.3911  0.1806
11385TIP3    H255571   0.149   5.128   2.163 -2.9670 -1.0835 -0.8080
11386TIP3   OH255572   3.268   0.658  10.998  0.1679  0.1202 -0.1349
11386TIP3    H155573   3.203   0.614  10.944  0.0816  0.6707 -0.4886
11386TIP3    H255574   3.333   0.590  11.017  0.0041 -0.1750 -0.6160
11387TIP3   OH255575   6.588   2.392  12.092  0.7218 -0.9230  0.3180
11387TIP3    H155576   6.536   2.401  12.173 -1.4582  2.2700 -1.2379
11387TIP3    H255577   6.678   2.388  12.122  0.0152  0.3808  2.9190
11388TIP3   OH255578   3.272   4.605  12.782 -0.3122 -0.2855 -0.2002
11388TIP3    H155579   3.349   4.559  12.749  0.7703  1.5660 -0.3684
11388TIP3    H255580   3.199   4.570  12.730  0.7484 -0.4371 -1.6313
11389TIP3   OH255581   2.843   1.845   0.516 -0.8695 -1.0657 -0.5075
11389TIP3    H155582   2.916   1.800   0.557  1.7974  2.5498 -0.7758
11389TIP3    H255583   2.793   1.881   0.590  1.1136  1.3091 -0.1935
11390TIP3   OH255584   2.955   3.150   4.012 -0.1060 -0.0039  0.4008
11390TIP3    H155585   2.924   3.072   4.058 -1.5563  0.5328  0.4143
11390TIP3    H255586   2.945   3.128   3.919 -0.5817  0.1780  0.4054
11391TIP3   OH255587   4.913   2.980   5.518 -0.4467 -0.0957 -0.6153
11391TIP3    H155588   4.857   3.057   5.512 -2.1563 -0.9786  2.1312
11391TIP3    H255589   4.864   2.912   5.472 -1.6824 -0.7944  1.5458
11392TIP3   OH255590   1.356   3.061  15.827  0.2585  0.3461  0.3481
11392TIP3    H155591   1.327   3.057  15.919  0.5243 -2.3695  0.4067
11392TIP3    H255592   1.288   3.111  15.783 -0.8638  0.1152  1.7200
11393TIP3   OH255593   0.253   4.017  13.797  0.0808 -1.1466  0.9884
11393TIP3    H155594   0.176   4.074  13.785  1.4448  0.6964  0.5665
11393TIP3    H255595   0.268   4.017  13.891  0.8220  0.3293  0.9109
11394TIP3   OH255596   0.113   6.713  15.861  0.2950 -0.3624  0.2363
11394TIP3    H155597   0.184   6.776  15.875  0.8616 -1.0273  0.4074
11394TIP3    H255598   0.090   6.684  15.949 -1.5355  1.2699  0.3673
11395TIP3   OH255599   3.495   3.308  15.216  0.0810  0.1491  0.4781
11395TIP3    H155600   3.538   3.235  15.172 -0.3809 -0.0626  0.3788
11395TIP3    H255601   3.472   3.368  15.145  0.7552  0.5489  0.5915
11396TIP3   OH255602   4.251   1.968  11.426  0.3373  0.1193  0.3504
11396TIP3    H155603   4.311   1.894  11.436  0.4274 -0.1546 -1.7817
11396TIP3    H255604   4.305   2.046  11.441  1.2004 -0.1371 -1.2638
11397TIP3   OH255605   6.383   4.183   2.767  0.0767 -0.3167  0.3054
11397TIP3    H155606   6.459   4.156   2.715 -0.6159 -1.4633 -0.1390
11397TIP3    H255607   6.390   4.279   2.770 -0.2157 -0.0987 -2.5181
11398TIP3   OH255608   6.659   3.530  12.859 -0.0530  0.2975 -0.0910
11398TIP3    H155609   6.702   3.599  12.810  0.7851  0.3068  0.6183
11398TIP3    H255610   6.730   3.469  12.881 -0.3819  0.3057  1.0921
11399TIP3   OH255611   6.702   1.390  13.925 -0.1582  0.0439  0.5632
11399TIP3    H155612   6.776   1.356  13.873 -0.7653 -0.4486  0.0019
11399TIP3    H255613   6.654   1.446  13.864  0.9946  2.2293  1.5636
11400TIP3   OH255614   3.234   4.461  15.472 -0.3128  0.1078  0.3071
11400TIP3    H155615   3.253   4.435  15.562  0.2057  1.9424  0.7566
11400TIP3    H255616   3.314   4.504  15.442 -0.4823 -0.4560 -1.0509
11401TIP3   OH255617   3.258   0.430  13.171  0.0564  0.3369 -0.1463
11401TIP3    H155618   3.309   0.504  13.137 -1.7397  1.5662 -0.3064
11401TIP3    H255619   3.304   0.352  13.138  1.4997  1.3877 -0.7265
11402TIP3   OH255620   3.216   2.770   1.962  0.8208  0.1451  0.5309
11402TIP3    H155621   3.184   2.795   1.875  0.9299  1.2267  0.7888
11402TIP3    H255622   3.232   2.676   1.955  0.9742  0.2375 -0.6727
11403TIP3   OH255623   5.847   4.187   4.950  0.0720 -0.3979  0.5557
11403TIP3    H155624   5.771   4.227   4.908  0.4865 -0.7122 -0.5162
11403TIP3    H255625   5.874   4.250   5.017 -1.7667 -0.7525  1.6858
11404TIP3   OH255626   3.773   2.835  11.822  0.0123 -0.4282 -0.1266
11404TIP3    H155627   3.831   2.911  11.808 -0.6820  0.0915 -0.2537
11404TIP3    H255628   3.807   2.794  11.902  0.6470 -0.2231 -0.2818
11405TIP3   OH255629   1.918   0.743   4.088  0.5601 -0.4902 -0.1168
11405TIP3    H155630   1.948   0.660   4.051 -0.4581 -1.0264  0.2165
11405TIP3    H255631   1.869   0.719   4.167  0.7203  0.4687  0.2975
11406TIP3   OH255632   0.419   5.294  13.247  0.6670  0.0887  0.5126
11406TIP3    H155633   0.469   5.343  13.312  1.5769  0.2447 -0.2716
11406TIP3    H255634   0.459   5.207  13.245  1.8611  0.6158 -1.0741
11407TIP3   OH255635   2.454   3.278  15.569  0.0951  0.2796 -0.0340
11407TIP3    H155636   2.512   3.312  15.637 -0.3248 -0.1523  0.5548
11407TIP3    H255637   2.400   3.353  15.544  0.1590  0.4075  0.2096
11408TIP3   OH255638   1.584   2.465   3.147  0.2307 -0.5154 -0.0680
11408TIP3    H155639   1.634   2.394   3.186 -1.4574 -2.0563 -0.5697
11408TIP3    H255640   1.638   2.543   3.159  1.4854 -1.6210  1.8076
11409TIP3   OH255641   2.711   1.067  12.335  0.2464  0.5705  0.4562
11409TIP3    H155642   2.733   1.003  12.403  0.0857 -0.6072 -0.5572
11409TIP3    H255643   2.619   1.051  12.315 -0.6100  2.9725  2.0514
11410TIP3   OH255644   6.710   1.588   2.341 -0.6958  0.9319 -0.1264
11410TIP3    H155645   6.624   1.631   2.333 -0.5502  1.1441 -0.5796
11410TIP3    H255646   6.702   1.510   2.285 -1.3940 -0.3573  1.6672
11411TIP3   OH255647   3.554   2.736   1.548  0.0561 -0.1044  0.1011
11411TIP3    H155648   3.627   2.780   1.592 -0.8142  1.0722  0.4393
11411TIP3    H255649   3.575   2.742   1.455  1.2075 -1.3242  0.2558
11412TIP3   OH255650   4.435   2.389   4.287 -0.2493 -0.1015 -0.5656
11412TIP3    H155651   4.510   2.448   4.286 -0.5425  0.3880  1.6204
11412TIP3    H255652   4.401   2.394   4.376 -1.7404 -1.7695 -0.9703
11413TIP3   OH255653   5.458   1.566   3.850  0.0822  0.2064 -0.0071
11413TIP3    H155654   5.479   1.476   3.871  1.5240  0.2600 -1.0712
11413TIP3    H255655   5.399   1.594   3.921  1.0612 -0.9859  1.3374
11414TIP3   OH255656   3.411   3.027  15.607 -0.2770  0.4216  1.0700
11414TIP3    H155657   3.438   3.096  15.668 -1.0079  0.3226  1.5181
11414TIP3    H255658   3.316   3.024  15.615 -0.2178 -1.1846  1.6746
11415TIP3   OH255659   3.536   1.651  14.106  0.3309 -0.3893 -0.2840
11415TIP3    H155660   3.546   1.558  14.126  0.5779 -0.4162 -0.5301
11415TIP3    H255661   3.456   1.655  14.053  0.0643 -0.4022  0.1097
11416TIP3   OH255662   2.755   1.557   2.895 -0.2345  0.5570  0.2635
11416TIP3    H155663   2.745   1.640   2.941  1.9535  1.3830 -0.6286
11416TIP3    H255664   2.849   1.541   2.895 -0.5039 -1.2690 -0.7498
11417TIP3   OH255665   5.470   6.259   2.371  0.5419 -0.2541  0.3625
11417TIP3    H155666   5.528   6.310   2.428  1.2451  0.7363 -1.1671
11417TIP3    H255667   5.501   6.169   2.379  0.9971 -0.0374  1.0991
11418TIP3   OH255668   6.000   2.312  17.008 -0.4842 -0.1425 -0.2064
11418TIP3    H155669   6.031   2.242  17.065  0.8113 -0.0370 -0.7399
11418TIP3    H255670   5.978   2.384  17.068  0.8817 -0.0211  0.1954
11419TIP3   OH255671   0.335   0.928   5.344  0.3319 -0.2456  0.2632
11419TIP3    H155672   0.414   0.914   5.293 -0.5382 -0.9921 -0.9241
11419TIP3    H255673   0.279   0.853   5.323 -1.5196  1.2748 -0.5317
11420TIP3   OH255674   3.789   3.241   0.860 -0.6391 -0.0530  0.3743
11420TIP3    H155675   3.749   3.203   0.939  1.2600 -1.2791  0.8008
11420TIP3    H255676   3.827   3.323   0.890 -1.0171  0.1002  0.4409
11421TIP3   OH255677   5.056   6.217  16.260  0.0765 -0.2220 -0.2109
11421TIP3    H155678   5.003   6.224  16.181 -0.0014  0.5966 -0.1038
11421TIP3    H255679   4.998   6.175  16.324  0.7740 -2.6947 -1.1069
11422TIP3   OH255680   6.761   4.667  12.992 -0.1445 -0.0314  0.1907
11422TIP3    H155681   6.845   4.702  12.963  0.1622 -0.6410  0.3296
11422TIP3    H255682   6.774   4.650  13.085 -0.1652 -0.8671  0.0438
11423TIP3   OH255683   3.699   2.060  12.109  0.3999 -0.0733 -0.5075
11423TIP3    H155684   3.780   2.016  12.083  1.1791 -0.0420  1.6196
11423TIP3    H255685   3.639   1.990  12.130  0.1663 -0.0948 -1.2222
11424TIP3   OH255686   2.285   0.726   1.469  0.0782 -0.7336  0.1450
11424TIP3    H155687   2.242   0.789   1.527  1.5095 -0.8089  1.3558
11424TIP3    H255688   2.304   0.651   1.525  1.6380 -0.7455 -0.3494
11425TIP3   OH255689   2.750   2.685  12.309  0.8976 -0.2473  0.1232
11425TIP3    H155690   2.704   2.612  12.267  2.6361 -1.7772  0.7158
11425TIP3    H255691   2.686   2.724  12.368  0.0808 -1.7163  0.2489
11426TIP3   OH255692   0.371   4.042  15.939  0.0907 -0.2320 -0.2781
11426TIP3    H155693   0.368   4.099  16.016 -2.7259  1.0024 -1.1675
11426TIP3    H255694   0.301   3.979  15.953  0.1062 -0.5242 -1.4380
11427TIP3   OH255695   3.755   2.392   3.316 -0.0112  0.3754 -0.4771
11427TIP3    H155696   3.741   2.370   3.409  0.8038 -0.3882 -0.5245
11427TIP3    H255697   3.812   2.323   3.284  1.6035  1.8868 -0.9857
11428TIP3   OH255698   3.288   1.307   2.551 -0.4876 -0.5181  0.6704
11428TIP3    H155699   3.242   1.351   2.623 -0.3390 -0.6338  0.8372
11428TIP3    H255700   3.378   1.299   2.582  0.0078  1.0386 -0.2289
11429TIP3   OH255701   3.040   2.042   6.497  0.3258  0.0641  0.2942
11429TIP3    H155702   3.005   2.131   6.489 -0.7510 -0.3830 -0.2154
11429TIP3    H255703   2.995   2.006   6.574 -0.0063 -0.3772 -0.1055
11430TIP3   OH255704   4.316   0.524  11.754 -0.1700  0.4526 -0.4173
11430TIP3    H155705   4.389   0.474  11.790 -0.7888 -1.0216 -1.1291
11430TIP3    H255706   4.350   0.612  11.744  0.2483  0.8264  3.0927
11431TIP3   OH255707   1.267   2.948  17.116  0.1423  0.0701 -0.2393
11431TIP3    H155708   1.310   2.866  17.140  2.0728  1.2963  0.7832
11431TIP3    H255709   1.233   2.982  17.199  2.1429  1.7617 -0.0227
11432TIP3   OH255710   5.629   0.460   2.928  0.6701 -0.3872  0.0210
11432TIP3    H155711   5.576   0.423   2.857  0.0234 -1.6688  1.1325
11432TIP3    H255712   5.631   0.392   2.995  0.3494  1.1740  1.7189
11433TIP3   OH255713   4.741   1.586   5.805 -0.4344  0.2673  0.5274
11433TIP3    H155714   4.737   1.599   5.710  0.3088  0.4191  0.5110
11433TIP3    H255715   4.834   1.594   5.826 -0.7063  1.3233  1.4264
11434TIP3   OH255716   2.388   3.131  15.158  0.1621 -0.1628 -0.1962
11434TIP3    H155717   2.438   3.116  15.238  1.4651 -1.2157 -1.1474
11434TIP3    H255718   2.439   3.196  15.110 -0.1302 -0.1914 -0.5445
11435TIP3   OH255719   5.479   0.969  14.692 -0.4800  0.6851  0.2072
11435TIP3    H155720   5.414   0.900  14.705 -1.5350  1.5048 -0.5031
11435TIP3    H255721   5.533   0.938  14.620  0.0979 -0.1152  0.9649
11436TIP3   OH255722   1.422   3.750  13.810  0.2221  0.0012  0.1805
11436TIP3    H155723   1.465   3.664  13.815  0.5388  0.0698 -0.9400
11436TIP3    H255724   1.333   3.730  13.782  0.1246 -0.0006  0.4920
11437TIP3   OH255725   1.875   5.656  15.254  0.3263 -0.9788 -0.1249
11437TIP3    H155726   1.804   5.607  15.213 -0.7273 -1.8211  2.4887
11437TIP3    H255727   1.838   5.743  15.271  0.2243 -1.1171  0.3817
11438TIP3   OH255728   6.153   3.126   2.620  0.4960 -0.6979  0.3889
11438TIP3    H155729   6.171   3.093   2.532  0.0234 -1.1636  0.4605
11438TIP3    H255730   6.074   3.078   2.647  1.0298 -1.0538  1.3335
11439TIP3   OH255731   2.933   1.864   4.374  0.0599  0.4593 -0.1816
11439TIP3    H155732   3.015   1.828   4.406 -0.4679 -0.1534  0.5136
11439TIP3    H255733   2.936   1.956   4.397  0.7272  0.5328 -0.5359
11440TIP3   OH255734   0.136   0.834   3.312 -0.0614  0.3144 -0.1179
11440TIP3    H155735   0.126   0.917   3.358  1.6652  0.7186 -0.4070
11440TIP3    H255736   0.107   0.768   3.376 -0.0284  1.0339  0.6636
11441TIP3   OH255737   0.995   0.557   5.780  0.0610 -0.2064 -0.6174
11441TIP3    H155738   0.992   0.544   5.685  1.8096  1.9010 -1.0207
11441TIP3    H255739   1.007   0.468   5.815  0.5208 -0.9208 -2.4418
11442TIP3   OH255740   1.449   5.707   4.626  0.0862  0.2855  0.3665
11442TIP3    H155741   1.488   5.770   4.686  0.8537  0.6994 -0.5511
11442TIP3    H255742   1.463   5.743   4.539 -1.6631  0.0663 -0.0585
11443TIP3   OH255743   3.255   3.187   4.932 -0.4667 -0.0360  0.3964
11443TIP3    H155744   3.195   3.249   4.974 -0.8444  0.2836 -0.5824
11443TIP3    H255745   3.201   3.110   4.916 -0.3494 -0.1201  0.4070
11444TIP3   OH255746   0.544   3.360   5.794  0.5280  0.3308  0.5641
11444TIP3    H155747   0.454   3.388   5.780  0.5802  0.4022  0.3669
11444TIP3    H255748   0.589   3.385   5.713 -0.2087 -3.7055 -1.3530
11445TIP3   OH255749   4.388   4.611   1.421  0.1412 -0.1902  0.5842
11445TIP3    H155750   4.378   4.678   1.353 -1.6347 -0.1098  0.8842
11445TIP3    H255751   4.397   4.661   1.502  3.2038 -0.2578  0.3846
11446TIP3   OH255752   1.644   6.346   0.038  0.1157 -0.2176  0.0119
11446TIP3    H155753   1.645   6.388  -0.048  1.1272 -2.2718 -1.0454
11446TIP3    H255754   1.733   6.358   0.072  0.0416 -0.3777  0.2701
11447TIP3   OH255755   1.898   2.752  13.735 -0.1155  0.0257  0.0942
11447TIP3    H155756   1.899   2.822  13.800  0.5035  2.0456 -1.9360
11447TIP3    H255757   1.866   2.795  13.655 -1.8422 -2.5707 -0.7288
11448TIP3   OH255758   1.094   5.033  11.601 -0.5441  0.1427 -0.3037
11448TIP3    H155759   1.088   5.097  11.672 -1.0878 -0.7538  0.4778
11448TIP3    H255760   1.029   5.063  11.537 -1.4780 -0.1203  0.4838
11449TIP3   OH255761   4.043   4.629   2.854  0.3278  0.0638  0.0146
11449TIP3    H155762   4.045   4.631   2.949 -1.3383  0.9283  0.0679
11449TIP3    H255763   4.057   4.720   2.827  0.1848 -0.0713 -0.5398
11450TIP3   OH255764   1.453   2.077  11.273  0.3032 -1.6145 -0.3951
11450TIP3    H155765   1.514   2.112  11.209 -1.9686  1.3508 -1.1251
11450TIP3    H255766   1.487   2.107  11.358  0.1577 -0.4603 -0.7415
11451TIP3   OH255767   2.893   0.143  14.152 -0.4725  0.2038  0.4010
11451TIP3    H155768   2.814   0.090  14.149  0.5361 -1.3324 -0.4980
11451TIP3    H255769   2.958   0.092  14.103  1.2183  1.1814  1.5287
11452TIP3   OH255770   1.507   2.502  15.755 -0.2058  0.5770  0.3132
11452TIP3    H155771   1.552   2.425  15.791  1.6286  1.8574  0.8939
11452TIP3    H255772   1.550   2.577  15.797 -0.2813  2.0149 -2.0065
11453TIP3   OH255773   0.321   4.584  16.864 -0.0591 -0.7254 -0.2343
11453TIP3    H155774   0.399   4.529  16.855  0.0948 -0.4654 -0.5111
11453TIP3    H255775   0.282   4.556  16.947 -0.6623 -2.1126 -0.9522
11454TIP3   OH255776   4.281   3.251  12.719  0.4512 -0.3898 -0.3252
11454TIP3    H155777   4.289   3.220  12.629  1.4557 -0.6503 -0.1632
11454TIP3    H255778   4.299   3.345  12.714  2.4231 -0.7089 -0.1802
11455TIP3   OH255779   5.566   5.376  14.480  0.8008  0.5116  0.2175
11455TIP3    H155780   5.529   5.342  14.561 -0.0009  1.8898  0.4577
11455TIP3    H255781   5.504   5.442  14.451  0.7582 -0.3599 -1.8700
11456TIP3   OH255782   5.257   6.140   3.080 -0.1411  0.4069 -1.1815
11456TIP3    H155783   5.327   6.174   3.135 -1.2780  0.6605  0.1412
11456TIP3    H255784   5.302   6.081   3.018  1.0413 -0.9703  0.8571
11457TIP3   OH255785   3.561   0.264  10.672  0.6147  0.4232  0.3492
11457TIP3    H155786   3.556   0.358  10.688  0.8793  0.3742  0.7372
11457TIP3    H255787   3.510   0.250  10.593 -2.6746  0.3811  2.2872
11458TIP3   OH255788   0.576   1.703  16.599  0.1760  0.0986 -0.0451
11458TIP3    H155789   0.665   1.732  16.619  0.7714 -2.4416  1.4010
11458TIP3    H255790   0.520   1.752  16.659  1.0304 -0.9209  1.6409
11459TIP3   OH255791   5.407   0.022   4.106  0.0336  0.3808 -0.4244
11459TIP3    H155792   5.474  -0.041   4.135 -1.5878 -0.9311  0.6870
11459TIP3    H255793   5.457   0.095   4.069  2.0245 -1.2235 -1.1009
11460TIP3   OH255794   1.063   3.742  11.435 -0.0232 -0.3331 -0.3030
11460TIP3    H155795   1.101   3.678  11.375  1.3037 -0.8683  1.0399
11460TIP3    H255796   1.124   3.744  11.509 -0.3013  2.0990 -0.0578
11461TIP3   OH255797   3.114   6.006  15.430 -0.2794 -0.2061  0.2580
11461TIP3    H155798   3.190   5.959  15.394  0.8199  3.0084 -2.0972
11461TIP3    H255799   3.039   5.969  15.384  0.1104 -1.7474  0.7937
11462TIP3   OH255800   1.836   2.303  16.400 -0.4350 -0.2314  0.1430
11462TIP3    H155801   1.805   2.229  16.453  0.7449 -1.1889 -0.4483
11462TIP3    H255802   1.931   2.296  16.402 -0.0872  3.1023  2.5663
11463TIP3   OH255803   6.045   6.585  13.432 -0.1298  0.1426 -0.3095
11463TIP3    H155804   5.976   6.521  13.449 -0.0192 -0.0041 -0.4091
11463TIP3    H255805   6.127   6.538  13.450 -0.0486  0.2645 -0.3554
11464TIP3   OH255806   6.768   2.053   5.589  0.1138 -0.3588 -0.3810
11464TIP3    H155807   6.739   1.994   5.659 -2.2574  1.9458  0.7474
11464TIP3    H255808   6.826   2.115   5.632 -0.5281  0.4431 -0.6356
11465TIP3   OH255809   5.784   2.545   0.771 -0.3838 -0.0046  0.3792
11465TIP3    H155810   5.839   2.485   0.821  0.4473  2.2473  2.3485
11465TIP3    H255811   5.845   2.612   0.739 -1.5805  1.0373  0.2254
11466TIP3   OH255812   5.874   4.746   6.337  0.6261  0.3503  0.5179
11466TIP3    H155813   5.931   4.698   6.397 -1.5174 -1.4481  1.2135
11466TIP3    H255814   5.901   4.838   6.347  2.0771 -0.2069  2.2324
11467TIP3   OH255815   4.412   0.962  14.681  0.1704  0.1422 -1.2472
11467TIP3    H155816   4.464   0.882  14.675 -0.0570 -0.3736  1.9494
11467TIP3    H255817   4.438   1.001  14.764 -0.5160  2.8769 -2.2246
11468TIP3   OH255818   0.604   4.130  12.505 -0.4055 -0.1308 -0.2432
11468TIP3    H155819   0.648   4.067  12.448 -0.1987 -0.3075  0.1073
11468TIP3    H255820   0.545   4.076  12.558 -0.2101 -0.0372  0.0752
11469TIP3   OH255821   2.236   5.583  12.883  0.3932  0.0103  0.3248
11469TIP3    H155822   2.242   5.548  12.972  0.9791 -0.2852  0.1701
11469TIP3    H255823   2.150   5.626  12.880  0.8240  1.0012  1.3811
11470TIP3   OH255824   4.013   3.040   6.106 -0.0643  0.4226  0.1245
11470TIP3    H155825   3.998   2.982   6.180  1.2968  0.5045  0.4955
11470TIP3    H255826   3.979   3.125   6.134  0.4947  0.4668  0.6850
11471TIP3   OH255827   0.267   5.872   6.343  0.5857 -0.5380 -0.3428
11471TIP3    H155828   0.319   5.922   6.279  0.0914  2.0418  1.1463
11471TIP3    H255829   0.331   5.845   6.409  0.4232  0.7305  0.3580
11472TIP3   OH255830   5.800   4.336  16.649 -0.1080 -0.2582  0.2826
11472TIP3    H155831   5.861   4.339  16.575 -0.0968 -1.2166  0.2377
11472TIP3    H255832   5.730   4.278  16.620 -0.5061 -0.0088  0.7322
11473TIP3   OH255833   6.172   4.717   1.147  0.3492  0.2673 -0.2657
11473TIP3    H155834   6.175   4.652   1.217 -0.2444 -1.2335 -1.5700
11473TIP3    H255835   6.251   4.770   1.161 -0.8343  1.4712  2.7857
11474TIP3   OH255836   1.738   6.606  15.363  0.2988  0.1005 -0.0861
11474TIP3    H155837   1.725   6.554  15.283  0.3967 -0.9140  0.5414
11474TIP3    H255838   1.823   6.648  15.350 -0.1046  0.6946 -0.9165
11475TIP3   OH255839   1.744   3.211  12.417 -0.1291 -0.0288  0.2458
11475TIP3    H155840   1.650   3.217  12.432 -0.7123 -0.4619 -2.5446
11475TIP3    H255841   1.763   3.117  12.420  0.1768  0.0423  0.5927
11476TIP3   OH255842   2.805   0.849  16.553 -0.2506  0.6188 -0.5293
11476TIP3    H155843   2.732   0.891  16.598  0.5543  1.4064  0.0627
11476TIP3    H255844   2.874   0.843  16.619  1.0819  2.1375 -1.7039
11477TIP3   OH255845   5.655   3.733  14.474 -0.2186 -0.5274 -0.1173
11477TIP3    H155846   5.713   3.758  14.402 -0.8618 -2.2353 -1.3252
11477TIP3    H255847   5.713   3.709  14.546  0.4429  1.1833 -0.0511
11478TIP3   OH255848   2.995   2.824   3.490  0.1588  0.3201 -0.3048
11478TIP3    H155849   3.035   2.904   3.523  1.8780 -0.6397  0.0218
11478TIP3    H255850   3.033   2.813   3.403 -0.4611  0.1077 -0.5545
11479TIP3   OH255851   0.339   3.131   3.701 -0.1775 -0.3654  0.5607
11479TIP3    H155852   0.288   3.121   3.620  0.5041  1.6408 -0.1998
11479TIP3    H255853   0.310   3.215   3.737  0.8870 -0.3165  1.3646
11480TIP3   OH255854   0.843   4.987  15.030  0.5270 -0.0185 -0.2571
11480TIP3    H155855   0.818   4.934  15.107  0.4193 -0.2344 -0.4388
11480TIP3    H255856   0.819   4.932  14.955  1.0324  0.0090 -0.4418
11481TIP3   OH255857   2.835   0.757  13.257  0.1397  0.1686 -0.1558
11481TIP3    H155858   2.780   0.769  13.180  1.0186  0.2968 -0.7666
11481TIP3    H255859   2.789   0.805  13.326  1.0913  3.0718 -1.3935
11482TIP3   OH255860   4.600   6.615  10.748 -0.2159  0.0633 -0.4384
11482TIP3    H155861   4.541   6.611  10.672 -0.5709 -2.1228 -0.1207
11482TIP3    H255862   4.688   6.614  10.710 -0.3885 -0.8976 -0.8508
11483TIP3   OH255863   5.989   4.568  12.072  0.3504 -0.1110  0.0288
11483TIP3    H155864   6.045   4.624  12.018 -0.0142  0.5165  0.2865
11483TIP3    H255865   5.902   4.607  12.065  0.0325 -0.8188 -0.0106
11484TIP3   OH255866   3.143   3.212  17.080 -0.1650  0.5978 -0.1060
11484TIP3    H155867   3.155   3.186  17.172  2.3992  1.0816 -0.2249
11484TIP3    H255868   3.063   3.167  17.052 -0.3083 -0.5765  1.9848
11485TIP3   OH255869   4.621   3.551  16.916  0.0498  0.2036 -0.0867
11485TIP3    H155870   4.553   3.587  16.973  0.0633  0.1963 -0.0653
11485TIP3    H255871   4.701   3.597  16.943  0.5389 -1.4858  1.5326
11486TIP3   OH255872   1.985   3.885  10.976  0.1879  0.0230 -1.1384
11486TIP3    H155873   1.915   3.933  10.932 -0.3005  0.7749  0.3838
11486TIP3    H255874   1.984   3.798  10.936 -3.1935 -0.7905  0.3259
11487TIP3   OH255875   3.290   0.768  12.309 -0.0917  0.3156 -0.3079
11487TIP3    H155876   3.330   0.756  12.395 -0.7177  1.2285  0.1326
11487TIP3    H255877   3.331   0.848  12.274 -0.4156  0.4028 -0.5042
11488TIP3   OH255878   5.988   4.940  11.269 -0.2993  0.1187  0.2562
11488TIP3    H155879   5.927   5.013  11.264 -0.0609  0.4093  1.2767
11488TIP3    H255880   6.065   4.977  11.313  0.9119 -0.0514 -1.6123
11489TIP3   OH255881   6.606   1.153   1.328  0.0645 -0.5936 -0.0844
11489TIP3    H155882   6.695   1.141   1.294  0.4939  1.4448  0.2278
11489TIP3    H255883   6.574   1.063   1.341  1.5956 -1.3823 -1.3776
11490TIP3   OH255884   6.043   4.848  12.602 -0.1840 -0.0011 -0.0551
11490TIP3    H155885   6.082   4.814  12.683 -1.0474 -2.6686 -0.6383
11490TIP3    H255886   6.111   4.836  12.536 -0.3850 -0.3668 -0.2025
11491TIP3   OH255887   2.721   3.991  16.290 -0.7371  0.3774 -0.3741
11491TIP3    H155888   2.697   4.084  16.286 -2.2291  0.1280  1.3828
11491TIP3    H255889   2.643   3.948  16.324 -0.2551 -1.6330 -1.6597
11492TIP3   OH255890   0.719   6.276   0.935 -0.3309  0.6513  0.1990
11492TIP3    H155891   0.757   6.316   0.857  2.2928  0.0068  1.0343
11492TIP3    H255892   0.752   6.187   0.935 -1.1615  0.3076  1.4935
11493TIP3   OH255893   4.984   0.579  11.111 -0.9621  0.1329 -0.0166
11493TIP3    H155894   4.961   0.604  11.021 -0.2802  1.4262  0.1499
11493TIP3    H255895   4.942   0.494  11.123 -1.3263  0.0747 -1.4561
11494TIP3   OH255896   1.890   5.424  15.781  0.0146 -0.2428 -0.5928
11494TIP3    H155897   1.843   5.496  15.824  0.0035 -0.9577  0.6362
11494TIP3    H255898   1.853   5.421  15.692  1.4163  2.5234 -1.3663
11495TIP3   OH255899   3.989   6.367   1.750  0.3721 -0.1215 -0.2312
11495TIP3    H155900   4.023   6.282   1.778 -0.4706 -0.4000 -0.0474
11495TIP3    H255901   3.898   6.351   1.727  0.1072  0.8061  0.1221
11496TIP3   OH255902   1.116   2.388  16.542 -0.0096 -0.1141  0.0302
11496TIP3    H155903   1.121   2.441  16.622 -1.1885  0.5316 -0.2894
11496TIP3    H255904   1.116   2.452  16.471  3.5575 -0.7367 -0.7142
11497TIP3   OH255905   5.673   0.625   4.719  0.4453  0.3896  0.0835
11497TIP3    H155906   5.604   0.670   4.768  0.7652  2.4571 -1.2348
11497TIP3    H255907   5.644   0.534   4.714 -1.7743  1.0434  0.2786
11498TIP3   OH255908   3.027   3.416  15.002 -0.5699  0.6327  0.0956
11498TIP3    H155909   2.935   3.439  14.989 -1.3857 -2.4925 -0.5236
11498TIP3    H255910   3.059   3.394  14.915  0.5840  0.9372  0.4149
11499TIP3   OH255911   5.801   5.386   4.089  0.0791 -0.1907 -0.4121
11499TIP3    H155912   5.722   5.350   4.049 -0.2391  0.3229 -0.2484
11499TIP3    H255913   5.856   5.411   4.014  0.2215 -0.8347 -0.5266
11500TIP3   OH255914   1.293   6.567  14.566  0.6652 -0.1122  0.0797
11500TIP3    H155915   1.387   6.567  14.548  0.5908  0.4441 -0.3338
11500TIP3    H255916   1.286   6.583  14.660  1.0641 -2.9454  0.6954
11501TIP3   OH255917   2.147   1.826   1.721  0.3177 -0.4379  0.0730
11501TIP3    H155918   2.102   1.761   1.668  0.1862 -0.4820  0.2363
11501TIP3    H255919   2.120   1.910   1.683 -0.4049 -0.4387  0.5485
11502TIP3   OH255920   1.731   5.808  12.770 -0.6004  0.3800 -0.0589
11502TIP3    H155921   1.805   5.748  12.761 -0.8756  0.0775 -0.3532
11502TIP3    H255922   1.654   5.751  12.766 -0.8522  0.7000  0.1607
11503TIP3   OH255923   0.399   0.351  13.579 -0.2824 -0.6556 -0.3106
11503TIP3    H155924   0.399   0.369  13.673 -1.4481  0.0908 -0.4363
11503TIP3    H255925   0.450   0.270  13.570  0.5345 -0.2941  0.8623
11504TIP3   OH255926   5.616   1.061  15.041  0.5754 -0.3401 -0.0051
11504TIP3    H155927   5.612   0.972  15.007  0.3680  0.9808 -3.9677
11504TIP3    H255928   5.533   1.100  15.016  1.6055  1.6212 -0.5674
11505TIP3   OH255929   3.710   2.398   0.555 -0.2631 -0.5260 -0.2449
11505TIP3    H155930   3.798   2.364   0.566  0.2749  0.9666  0.3003
11505TIP3    H255931   3.720   2.493   0.553 -1.6700 -0.3538 -1.9911
11506TIP3   OH255932   0.058   2.328   4.782  0.6789 -0.1773  0.4348
11506TIP3    H155933   0.139   2.295   4.820  2.1827 -1.0534 -3.1320
11506TIP3    H255934   0.015   2.250   4.746 -0.5334  0.5891  0.1633
11507TIP3   OH255935   3.591   1.726  10.972  0.0523 -0.3107 -0.3255
11507TIP3    H155936   3.601   1.720  10.877 -2.1995 -0.8648 -0.5816
11507TIP3    H255937   3.673   1.692  11.006  0.7194 -0.5809 -2.0658
11508TIP3   OH255938   4.413   1.662   4.888  0.2006  0.2415 -0.5615
11508TIP3    H155939   4.387   1.592   4.828  0.3195  2.3798 -3.3192
11508TIP3    H255940   4.399   1.742   4.838  0.1945  2.2226  2.3957
11509TIP3   OH255941   3.162   2.212  14.731  0.0056 -0.2979  0.0338
11509TIP3    H155942   3.110   2.136  14.760 -0.9045 -0.3534 -1.6387
11509TIP3    H255943   3.176   2.197  14.638  1.0024  0.9282 -0.0314
11510TIP3   OH255944   4.049   1.355  16.896  0.0343  0.1675 -0.4067
11510TIP3    H155945   3.970   1.301  16.901  1.6719 -2.2880  2.3103
11510TIP3    H255946   4.029   1.432  16.950 -0.9888  0.3824 -1.0625
11511TIP3   OH255947   4.712   0.364   1.014  0.2823  0.5595 -0.1405
11511TIP3    H155948   4.797   0.362   1.060  0.0956  0.0999  0.2005
11511TIP3    H255949   4.728   0.418   0.937  0.8486  0.6053 -0.0007
11512TIP3   OH255950   4.023   5.324  15.988  0.4749 -0.3654  0.4537
11512TIP3    H155951   3.931   5.337  16.014  0.3740 -0.8313  0.3382
11512TIP3    H255952   4.049   5.244  16.033  0.5010 -0.8192 -0.3556
11513TIP3   OH255953   4.702   5.051  17.171  0.2550 -0.3626  0.0448
11513TIP3    H155954   4.644   5.089  17.237 -0.1022 -0.3134 -0.2953
11513TIP3    H255955   4.643   5.010  17.108  0.4452  1.5170 -1.4706
11514TIP3   OH255956   2.476   0.493  11.915 -0.4657 -0.6040  0.1974
11514TIP3    H155957   2.479   0.540  11.998  3.1232 -2.8746  1.6518
11514TIP3    H255958   2.556   0.521  11.870 -1.4469 -0.7602 -1.7138
11515TIP3   OH255959   5.935   4.881   0.646 -0.3200 -0.2029  0.7035
11515TIP3    H155960   5.997   4.810   0.630 -2.0564 -1.3653 -1.4829
11515TIP3    H255961   5.972   4.956   0.600 -0.2359 -0.7164 -0.0822
11516TIP3   OH255962   2.702   5.072   5.725 -0.7398  0.5619  0.1737
11516TIP3    H155963   2.732   5.099   5.638 -1.0934  0.5451  0.0455
11516TIP3    H255964   2.780   5.081   5.781 -0.9057  2.1250  0.2035
11517TIP3   OH255965   5.851   4.243   3.231  0.0093 -0.5632  0.1659
11517TIP3    H155966   5.796   4.280   3.163  0.6754 -0.4061 -0.2936
11517TIP3    H255967   5.856   4.149   3.211 -1.6913 -0.9472  1.3388
11518TIP3   OH255968   6.131   4.963   5.910  0.4352 -0.2066  0.1176
11518TIP3    H155969   6.225   4.950   5.925  0.5413 -0.4563 -0.7218
11518TIP3    H255970   6.089   4.929   5.989  1.0177 -0.7121  0.2135
11519TIP3   OH255971   6.331   6.645   3.639 -1.0166  0.1236 -0.3067
11519TIP3    H155972   6.391   6.584   3.681 -1.9576  0.3216  1.4426
11519TIP3    H255973   6.349   6.729   3.681 -1.2943  0.5631 -1.0491
11520TIP3   OH255974   1.227   3.494  17.107  0.1741 -0.3341 -0.2825
11520TIP3    H155975   1.140   3.476  17.145  0.3094 -0.4838 -0.0393
11520TIP3    H255976   1.219   3.581  17.068  0.1897  0.0618  0.5753
11521TIP3   OH255977   1.047   4.519  16.635 -0.0334 -0.0705 -0.2136
11521TIP3    H155978   1.024   4.609  16.658  0.4788 -0.0295  0.1654
11521TIP3    H255979   0.987   4.465  16.687 -1.0626  0.0530 -1.2454
11522TIP3   OH255980   4.579   4.793   3.105 -0.2115 -0.0082  0.3275
11522TIP3    H155981   4.635   4.841   3.165  0.1980 -0.3797  0.2503
11522TIP3    H255982   4.490   4.810   3.135  0.0408 -1.3702  1.9446
11523TIP3   OH255983   1.025   4.011  16.862 -0.0451  0.0008  0.2255
11523TIP3    H155984   0.984   4.087  16.820  0.1903  0.1757  0.3051
11523TIP3    H255985   0.952   3.952  16.882 -0.5826  1.2903  2.4244
11524TIP3   OH255986   0.430   4.707  11.258  0.1434 -0.0840  0.1839
11524TIP3    H155987   0.451   4.799  11.267 -1.1128  0.3320 -0.7863
11524TIP3    H255988   0.442   4.670  11.345  0.6079  1.0036  0.5841
11525TIP3   OH255989   1.774   3.081  14.146 -0.3740  0.3883 -0.1492
11525TIP3    H155990   1.681   3.101  14.134 -0.2774  1.7528  1.0848
11525TIP3    H255991   1.789   3.003  14.093 -1.9199  0.8847 -1.3759
11526TIP3   OH255992   0.740   3.194  16.093  0.6306  0.4228  0.4265
11526TIP3    H155993   0.684   3.125  16.058  0.0886  1.5176 -0.9671
11526TIP3    H255994   0.691   3.275  16.077  2.9742  1.5399 -1.8340
11527TIP3   OH255995   0.467   4.992  11.610  0.0462  0.0221 -1.1097
11527TIP3    H155996   0.431   5.068  11.654  3.8597  2.0195 -1.0341
11527TIP3    H255997   0.470   4.924  11.678 -3.8634 -0.6036 -1.3114
11528TIP3   OH255998   4.504   3.976   1.689 -0.6706  0.2222 -1.3517
11528TIP3    H155999   4.544   4.057   1.657  0.0545  0.7202  0.7110
11528TIP3    H256000   4.547   3.907   1.638  1.9217  0.8386 -0.1715
11529TIP3   OH256001   4.728   5.861  16.080 -0.1430 -0.1424  1.1751
11529TIP3    H156002   4.682   5.779  16.062  0.6471 -0.4438  0.4281
11529TIP3    H256003   4.755   5.892  15.993  0.3057  0.4697  1.5276
11530TIP3   OH256004   2.673   6.162   0.580 -0.3967  0.5904  0.0427
11530TIP3    H156005   2.645   6.139   0.492  0.3512 -1.6070  0.3067
11530TIP3    H256006   2.606   6.123   0.637 -0.1597  0.8117  0.4773
11531TIP3   OH256007   1.457   5.503  11.335  0.1265 -0.3880  0.2418
11531TIP3    H156008   1.414   5.511  11.250 -0.2720 -0.0464  0.4703
11531TIP3    H256009   1.430   5.418  11.368  0.2614 -0.5105  0.0411
11532TIP3   OH256010   1.254   4.910   1.423 -0.0665 -0.0121  0.0963
11532TIP3    H156011   1.188   4.958   1.373 -1.5148 -0.0438  1.8590
11532TIP3    H256012   1.204   4.843   1.470  1.5214 -1.3694 -0.0438
11533TIP3   OH256013   0.056   5.440   0.013 -0.8759 -0.0773 -0.0130
11533TIP3    H156014   0.005   5.361  -0.007  1.8405 -1.2678 -3.1848
11533TIP3    H256015   0.021   5.507  -0.046  1.4885 -1.1313 -2.8302
11534TIP3   OH256016   6.775   1.614   6.010  0.8346 -0.4091  0.2465
11534TIP3    H156017   6.816   1.531   6.035 -2.2003 -2.5359 -1.0671
11534TIP3    H256018   6.692   1.615   6.058 -0.6649  0.1607 -2.1511
11535TIP3   OH256019   5.271   2.540  15.011 -0.1681 -0.2727 -0.3731
11535TIP3    H156020   5.199   2.513  14.954  1.7352 -1.2319 -2.5017
11535TIP3    H256021   5.315   2.609  14.961 -0.3723  1.3016  1.5162
11536TIP3   OH256022   3.705   4.160  13.932  0.1112 -0.0456  0.3931
11536TIP3    H156023   3.691   4.251  13.958 -0.7425 -0.3903  1.2085
11536TIP3    H256024   3.784   4.162  13.879  1.1472  0.9121  1.8851
11537TIP3   OH256025   0.059   3.222  12.048 -0.1207 -0.2443  0.1329
11537TIP3    H156026   0.135   3.204  12.104  1.3219  1.4753 -1.1281
11537TIP3    H256027   0.072   3.166  11.972 -0.3722 -0.3050  0.1357
11538TIP3   OH256028   0.708   0.568   3.684  0.5111 -0.1482 -0.9648
11538TIP3    H156029   0.680   0.480   3.711 -1.1949  0.5556 -0.3559
11538TIP3    H256030   0.643   0.596   3.620  0.2174  1.2483 -0.0823
11539TIP3   OH256031   1.656   0.284  14.400 -0.3592  0.0109 -0.4085
11539TIP3    H156032   1.619   0.280  14.312  1.2985  0.4965 -1.1681
11539TIP3    H256033   1.664   0.378  14.418  0.3855 -0.0885 -0.2146
11540TIP3   OH256034   5.377   2.704  13.274  0.2847 -1.0476  0.1001
11540TIP3    H156035   5.349   2.618  13.242 -0.7053 -0.8571  0.4071
11540TIP3    H256036   5.295   2.749  13.295  0.8226 -0.3070  0.6594
11541TIP3   OH256037   6.212   1.261   3.157  0.1736  0.2827 -0.7032
11541TIP3    H156038   6.282   1.318   3.125 -0.9270  2.2209  0.1127
11541TIP3    H256039   6.251   1.173   3.159  3.2246  1.4824  1.4334
11542TIP3   OH256040   5.407   4.329   4.721  0.0752 -0.1046  0.2225
11542TIP3    H156041   5.358   4.324   4.803 -2.0281 -1.9322 -1.0286
11542TIP3    H256042   5.344   4.368   4.659  1.7872  1.7345 -0.4718
11543TIP3   OH256043   2.764   0.206   3.555 -0.4856 -0.2001  0.6827
11543TIP3    H156044   2.754   0.142   3.626  0.4471 -0.5021  0.5634
11543TIP3    H256045   2.824   0.271   3.590  0.0639 -0.4047  0.1408
11544TIP3   OH256046   1.519   2.764   3.873 -0.5985  0.3698  0.0556
11544TIP3    H156047   1.582   2.820   3.828  0.3147  0.4177  1.3460
11544TIP3    H256048   1.445   2.822   3.893 -1.0093  0.3511 -1.3095
11545TIP3   OH256049   4.919   2.773  14.363 -0.0947  0.0185  0.4142
11545TIP3    H156050   4.999   2.721  14.368  0.3720  0.8197  2.5200
11545TIP3    H256051   4.943   2.857  14.402 -1.2060  1.3437 -1.6055
11546TIP3   OH256052   3.672   0.603  14.487 -0.0768 -0.1397  0.6589
11546TIP3    H156053   3.708   0.541  14.424  1.7278 -0.3914  1.8749
11546TIP3    H256054   3.692   0.689  14.451 -2.7651 -0.1450 -1.1390
11547TIP3   OH256055   3.837   4.550   0.212 -0.1347  0.0760 -0.2177
11547TIP3    H156056   3.873   4.625   0.165  0.6070  0.5637  1.0611
11547TIP3    H256057   3.744   4.550   0.191  0.3744 -0.6698 -2.8951
11548TIP3   OH256058   6.772   2.532  12.368 -0.9015  0.8040  0.1849
11548TIP3    H156059   6.845   2.516  12.308 -0.3477 -0.0364  1.0625
11548TIP3    H256060   6.742   2.620  12.345  0.1311  1.0115 -0.4501
11549TIP3   OH256061   5.934   5.724   2.728 -0.5656  0.1170 -0.2788
11549TIP3    H156062   5.901   5.650   2.779 -0.1085  0.3571  0.3757
11549TIP3    H256063   5.994   5.769   2.787 -0.2070  0.5401 -0.9534
11550TIP3   OH256064   6.532   5.119  11.319  0.1638 -0.4924 -0.5425
11550TIP3    H156065   6.626   5.122  11.333 -0.0278  0.0707  0.7285
11550TIP3    H256066   6.512   5.197  11.267  0.4911 -1.0188 -1.4687
11551TIP3   OH256067   4.960   6.731  11.061  0.2652 -0.4343 -0.1421
11551TIP3    H156068   4.917   6.782  11.129 -0.9690 -1.7658  0.1277
11551TIP3    H256069   5.035   6.785  11.034  1.6617 -0.4198  3.1957
11552TIP3   OH256070   0.489   5.336   1.250  0.0338  0.0241  0.1552
11552TIP3    H156071   0.481   5.402   1.319 -2.7318 -0.9340  0.8879
11552TIP3    H256072   0.487   5.386   1.169 -1.7580  0.9055  0.6944
11553TIP3   OH256073   0.415   0.426  12.112  0.3266  0.7492 -0.2177
11553TIP3    H156074   0.386   0.491  12.049 -0.0613  0.3858 -0.4184
11553TIP3    H256075   0.378   0.344  12.080  1.3146  0.3223 -0.3125
11554TIP3   OH256076   5.784   2.057   1.317 -0.5065  0.0151 -0.0734
11554TIP3    H156077   5.781   1.970   1.277 -0.3361  0.2422 -0.5932
11554TIP3    H256078   5.756   2.043   1.407  0.4975 -0.7507  0.1449
11555TIP3   OH256079   5.001   1.604   1.447  0.2499  0.1288 -0.1795
11555TIP3    H156080   5.010   1.545   1.522 -0.5757 -1.7783 -1.4880
11555TIP3    H256081   4.937   1.669   1.475  0.7822  0.1022  1.1370
11556TIP3   OH256082   2.446   6.744   4.904  0.3741 -0.2797  0.0193
11556TIP3    H156083   2.458   6.677   4.971  1.1053  1.0028  1.2018
11556TIP3    H256084   2.404   6.817   4.949  0.2850  0.3625 -1.0685
11557TIP3   OH256085   4.165   3.789  11.958  0.4859 -0.3208  0.1401
11557TIP3    H156086   4.249   3.796  11.913  0.0298 -0.1891 -0.7254
11557TIP3    H256087   4.143   3.696  11.952 -0.4846 -0.0282 -1.6854
11558TIP3   OH256088   3.650   2.424   0.153 -0.0071 -0.8149 -0.2839
11558TIP3    H156089   3.564   2.382   0.155  0.0140 -0.9679 -1.4888
11558TIP3    H256090   3.702   2.377   0.218 -1.1181 -0.0285  1.2269
11559TIP3   OH256091   4.713   6.546   4.405  0.2122  0.6189  0.4399
11559TIP3    H156092   4.728   6.480   4.338 -0.3466  1.3239 -0.3992
11559TIP3    H256093   4.775   6.616   4.383  1.3883  0.0532  1.8053
11560TIP3   OH256094   3.424   1.370   0.143  0.0252  0.0139 -0.4637
11560TIP3    H156095   3.410   1.319   0.223 -1.5468  1.0438 -0.0249
11560TIP3    H256096   3.507   1.415   0.157 -0.7921  1.1255  1.1731
11561TIP3   OH256097   5.841   0.246   0.408  0.5304 -0.2317  0.0202
11561TIP3    H156098   5.769   0.244   0.344  1.1313 -2.1005 -0.6718
11561TIP3    H256099   5.839   0.159   0.449  1.5267  0.1780  0.9851
11562TIP3   OH256100   6.163   0.248   0.958  0.3992 -0.0968  0.4304
11562TIP3    H156101   6.183   0.154   0.952  1.7153  0.2492 -2.9772
11562TIP3    H256102   6.229   0.282   1.019  2.2144 -0.9413 -0.9525
11563TIP3   OH256103   6.122   0.468  12.869  0.6987  0.6195  0.6251
11563TIP3    H156104   6.192   0.491  12.930  0.2495  0.1314  1.3395
11563TIP3    H256105   6.079   0.393  12.908  0.4892  0.1937 -0.3755
11564TIP3   OH256106   3.845   1.627   0.557 -0.2508  0.4133 -0.0659
11564TIP3    H156107   3.852   1.696   0.490 -0.4103  0.5000  0.0070
11564TIP3    H256108   3.916   1.646   0.618  1.3659 -0.9851 -1.4128
11565TIP3   OH256109   4.158   2.966   3.178  0.2900  0.2922  0.0457
11565TIP3    H156110   4.112   3.037   3.134  0.8803  1.4294  1.1878
11565TIP3    H256111   4.159   2.992   3.270  1.7487 -0.5036  0.2792
11566TIP3   OH256112   6.385   2.808   6.163 -0.6681 -0.0557  0.3009
11566TIP3    H156113   6.436   2.741   6.209  0.2150 -1.3853 -2.3827
11566TIP3    H256114   6.305   2.818   6.215 -0.2745 -2.3040  1.4450
11567TIP3   OH256115   4.459   2.299  16.224  0.3617  0.4442  0.0066
11567TIP3    H156116   4.428   2.219  16.266  2.1073  0.2122  0.9502
11567TIP3    H256117   4.402   2.368  16.258 -0.9062 -0.3259 -0.5113
11568TIP3   OH256118   0.023   6.283  11.074  0.1621  0.8017 -0.4689
11568TIP3    H156119  -0.000   6.260  11.164  0.8915  0.1952 -0.4199
11568TIP3    H256120  -0.060   6.299  11.031 -0.2098  0.8446  0.2515
11569TIP3   OH256121   3.963   4.134   3.011 -0.3047 -0.1043  0.6941
11569TIP3    H156122   3.966   4.125   2.916  0.7371  1.0672  0.5969
11569TIP3    H256123   4.049   4.106   3.041  0.0500  1.3373  1.1034
11570TIP3   OH256124   4.462   1.381   4.324 -0.2633  0.1322 -0.2818
11570TIP3    H156125   4.380   1.407   4.283 -0.7284 -0.9640 -0.0641
11570TIP3    H256126   4.521   1.365   4.250 -1.6437 -3.7151 -0.7816
11571TIP3   OH256127   2.115   6.488   1.343 -0.5523  0.5785  0.4468
11571TIP3    H156128   2.119   6.429   1.418 -0.6458  0.8846  0.6912
11571TIP3    H256129   2.034   6.464   1.298  1.6531 -2.9156 -2.2894
11572TIP3   OH256130   5.462   1.667  17.183  0.0886 -0.2885 -0.0796
11572TIP3    H156131   5.521   1.728  17.138 -1.1912 -0.5241 -2.1986
11572TIP3    H256132   5.516   1.590  17.199  0.6459 -0.1275 -1.0781
11573TIP3   OH256133   1.994   2.320   2.368  0.3105  0.3793 -0.1113
11573TIP3    H156134   2.027   2.299   2.455 -0.3921  0.5214  0.1921
11573TIP3    H256135   1.899   2.317   2.377  0.2091  1.5928 -0.5792
11574TIP3   OH256136   1.320   4.024   4.212  0.5034  0.3851 -0.3465
11574TIP3    H156137   1.298   3.948   4.158 -0.6559  0.1159  0.4718
11574TIP3    H256138   1.306   4.099   4.155 -0.6369  0.0988 -0.4701
11575TIP3   OH256139   2.221   2.788   3.941 -0.0123  0.2275 -0.2077
11575TIP3    H156140   2.185   2.760   4.025  0.7189 -1.8657 -0.5460
11575TIP3    H256141   2.144   2.795   3.884 -0.4789  1.3857  0.5232
11576TIP3   OH256142   5.073   5.712  13.052 -0.3993  0.7620  0.1032
11576TIP3    H156143   5.010   5.682  12.986 -0.6768  0.6805  0.4047
11576TIP3    H256144   5.132   5.771  13.004  0.8037 -1.0472 -0.7606
11577TIP3   OH256145   0.623   0.470  13.785 -0.1702  0.4625 -0.1168
11577TIP3    H156146   0.706   0.495  13.825  0.7198  0.1298 -1.6574
11577TIP3    H256147   0.608   0.535  13.717 -0.3018 -0.4236 -0.9658
11578TIP3   OH256148   1.434   0.194  11.216 -0.5782  0.1034  0.3235
11578TIP3    H156149   1.440   0.285  11.185 -0.0353 -0.0374 -0.0039
11578TIP3    H256150   1.495   0.146  11.160 -1.8448 -0.7163 -0.3803
11579TIP3   OH256151   2.598   5.110  12.377  0.5882  0.2937 -0.5683
11579TIP3    H156152   2.551   5.149  12.304 -0.7150 -1.5062 -0.7784
11579TIP3    H256153   2.678   5.161  12.385 -0.9303  2.9115 -0.8249
11580TIP3   OH256154   0.878   2.608   6.473 -0.1755 -0.0476  0.5429
11580TIP3    H156155   0.896   2.515   6.460  1.1338  0.4854 -2.1242
11580TIP3    H256156   0.783   2.616   6.461 -0.0796 -0.8461 -0.9371
11581TIP3   OH256157   1.879   0.104  15.470 -0.0850 -0.0042  0.1536
11581TIP3    H156158   1.795   0.072  15.502 -0.2671 -0.4991 -0.8004
11581TIP3    H256159   1.866   0.119  15.377  1.0354 -0.6405 -0.1288
11582TIP3   OH256160   3.430   6.011  11.980  0.0687 -0.3232 -0.2631
11582TIP3    H156161   3.376   6.041  11.907  1.0386 -0.5210 -1.0728
11582TIP3    H256162   3.478   5.935  11.946  0.9976 -0.0445  0.3792
11583TIP3   OH256163   4.210   2.887  15.040  0.0291  0.0749 -0.2548
11583TIP3    H156164   4.233   2.928  14.958 -1.9730 -0.0196 -0.9206
11583TIP3    H256165   4.127   2.842  15.023 -0.8989  0.7486  2.0176
11584TIP3   OH256166   5.886   2.061   4.934  0.4206  0.0592 -0.1540
11584TIP3    H156167   5.939   2.129   4.973  2.0115 -0.9463 -0.4574
11584TIP3    H256168   5.949   1.995   4.905 -0.9668 -0.9813 -0.9540
11585TIP3   OH256169   1.048   5.600  12.488 -0.2399  0.4491 -0.1321
11585TIP3    H156170   1.074   5.520  12.533 -0.5943  1.5669  2.2119
11585TIP3    H256171   1.047   5.576  12.395  0.0626 -2.1171  0.4479
11586TIP3   OH256172   1.622   3.218   3.476  0.0466  0.5417  0.2172
11586TIP3    H156173   1.588   3.137   3.438  0.7865 -0.5073  1.6759
11586TIP3    H256174   1.676   3.257   3.407  2.2886 -1.8730  0.4592
11587TIP3   OH256175   2.540   1.110  14.870  0.0895  0.1056 -0.4030
11587TIP3    H156176   2.616   1.105  14.812  1.8355  0.2381  1.7449
11587TIP3    H256177   2.539   1.201  14.901 -1.0187  0.1333 -0.5017
11588TIP3   OH256178   2.539   6.518  15.934  0.4526  0.0842  0.2281
11588TIP3    H156179   2.503   6.514  15.846  3.0897  0.7017 -0.9709
11588TIP3    H256180   2.574   6.607  15.942  2.3229 -0.6743  0.9927
11589TIP3   OH256181   4.747   4.921   1.985  0.1857 -0.0049 -0.6293
11589TIP3    H156182   4.789   4.886   1.906 -0.8277 -0.5323 -0.9570
11589TIP3    H256183   4.653   4.911   1.968 -0.0911  1.3197 -0.0045
11590TIP3   OH256184   4.860   5.883  13.803 -0.4574  0.3843 -0.5759
11590TIP3    H156185   4.766   5.879  13.785 -0.5656 -0.1248  0.0387
11590TIP3    H256186   4.897   5.931  13.729 -1.3343  1.5235 -0.3055
11591TIP3   OH256187   1.358   2.533   0.894  0.4052 -0.5403 -0.2078
11591TIP3    H156188   1.429   2.504   0.951 -0.7615  3.2498  3.6985
11591TIP3    H256189   1.295   2.460   0.895  1.1643 -1.2447  2.1196
11592TIP3   OH256190   5.669   1.282  15.202  0.1221  0.1290 -0.1714
11592TIP3    H156191   5.761   1.293  15.179 -0.3549  1.4205 -1.6548
11592TIP3    H256192   5.635   1.221  15.136  0.2045 -1.5119  1.2477
11593TIP3   OH256193   3.468   2.899  12.050 -0.1583 -0.1251 -0.2298
11593TIP3    H156194   3.529   2.826  12.060 -0.6234 -0.6491 -1.1179
11593TIP3    H256195   3.397   2.880  12.112  0.5231  0.4503  0.7536
11594TIP3   OH256196   5.372   5.581   1.119 -0.0912 -0.1092  0.5204
11594TIP3    H156197   5.293   5.558   1.167 -0.4011 -1.7573 -0.6823
11594TIP3    H256198   5.441   5.582   1.185 -0.7777 -0.6857  1.2680
11595TIP3   OH256199   5.023   2.602  15.186 -0.0083  0.0678  0.0118
11595TIP3    H156200   5.098   2.561  15.142 -2.0334 -1.9987 -1.7364
11595TIP3    H256201   4.986   2.660  15.120 -1.5805 -1.0960 -0.1757
11596TIP3   OH256202   5.087   5.385  14.793 -0.1958  0.0921  0.8687
11596TIP3    H156203   4.999   5.413  14.770 -0.7885 -1.8354  0.6185
11596TIP3    H256204   5.116   5.332  14.718  0.6723 -0.3432  1.4838
11597TIP3   OH256205   3.693   3.074  14.806  0.7352 -0.0132  0.2186
11597TIP3    H156206   3.625   3.051  14.870 -0.4867  0.0764 -0.9872
11597TIP3    H256207   3.773   3.083  14.857  0.1800 -1.7281  1.4838
11598TIP3   OH256208   4.676   5.136  12.439  0.2263 -0.2601  0.1871
11598TIP3    H156209   4.757   5.131  12.389  0.7010  1.1142  0.7705
11598TIP3    H256210   4.686   5.214  12.494 -0.7039 -1.1446  1.6795
11599TIP3   OH256211   4.128   5.757   0.505  0.5716  0.1147 -0.1006
11599TIP3    H156212   4.161   5.668   0.495  2.8799  1.0033 -1.1936
11599TIP3    H256213   4.179   5.794   0.577 -0.2206  0.6337  0.2097
11600TIP3   OH256214   4.106   3.175  16.103 -0.0998  0.5486 -0.3713
11600TIP3    H156215   4.179   3.114  16.113  0.6810  1.4046 -0.6132
11600TIP3    H256216   4.067   3.180  16.190 -0.6816 -0.8732 -0.5212
11601TIP3   OH256217   6.223   3.616  14.350 -0.4846  0.0700  0.0863
11601TIP3    H156218   6.272   3.537  14.370  0.3325  0.5604  0.0450
11601TIP3    H256219   6.157   3.622  14.419  0.3370  0.0958  0.8688
11602TIP3   OH256220   4.311   5.584  10.588  0.3944 -0.3480 -0.1960
11602TIP3    H156221   4.306   5.677  10.566 -2.0197 -0.9078 -2.5504
11602TIP3    H256222   4.230   5.566  10.636 -0.7508 -1.7394 -2.4673
11603TIP3   OH256223   3.451   2.197  14.889 -1.2626 -0.1830 -0.2915
11603TIP3    H156224   3.500   2.124  14.851 -2.1950 -0.6165 -0.6805
11603TIP3    H256225   3.362   2.186  14.855 -1.0906  2.0281 -1.6808
11604TIP3   OH256226   5.129   4.749   3.813  0.2106  0.4065 -0.6618
11604TIP3    H156227   5.147   4.795   3.731  1.8109  0.7268 -0.1741
11604TIP3    H256228   5.187   4.790   3.877 -0.7713 -0.0502  0.5722
11605TIP3   OH256229   2.302   4.519  13.862  0.5936  0.4225 -0.1408
11605TIP3    H156230   2.303   4.609  13.830 -1.0249 -0.2731 -2.4593
11605TIP3    H256231   2.209   4.499  13.873  0.9246 -0.9646  0.3030
11606TIP3   OH256232   4.461   3.696  14.259 -0.5310 -0.5026 -0.0176
11606TIP3    H156233   4.413   3.779  14.258 -0.0296 -0.1795  0.8764
11606TIP3    H256234   4.529   3.707  14.192 -0.3339 -0.1035  0.2430
11607TIP3   OH256235   5.918   0.322  10.631  0.1538  0.2360 -0.0654
11607TIP3    H156236   5.972   0.320  10.552 -0.1932 -0.7560 -0.2900
11607TIP3    H256237   5.828   0.308  10.600 -0.0620  0.4475  0.4408
11608TIP3   OH256238   3.065   4.887   2.039 -0.4795 -0.3311  0.2390
11608TIP3    H156239   2.972   4.880   2.018 -0.3449 -1.4587 -0.0037
11608TIP3    H256240   3.090   4.973   2.006 -1.1182 -0.5725 -0.9259
11609TIP3   OH256241   0.597   5.636  14.776  0.1404 -0.4622 -0.0733
11609TIP3    H156242   0.567   5.594  14.856  0.2564  2.4515  1.6449
11609TIP3    H256243   0.693   5.627  14.778  0.1174 -0.7523 -0.1455
11610TIP3   OH256244   2.790   5.885   3.395 -0.4433  0.7158 -0.6751
11610TIP3    H156245   2.813   5.834   3.318 -0.0172 -0.3845  0.1560
11610TIP3    H256246   2.843   5.964   3.388  0.9071 -0.1514 -0.6471
11611TIP3   OH256247   0.781   3.882  14.303  0.1353 -0.2561 -0.0562
11611TIP3    H156248   0.810   3.897  14.393  0.9246 -2.5126  0.1558
11611TIP3    H256249   0.690   3.910  14.301 -0.2261 -1.1605  1.7803
11612TIP3   OH256250   0.588   3.966   4.333 -0.7826 -0.0662  0.0713
11612TIP3    H156251   0.495   3.956   4.353 -0.6208 -0.6655  0.5660
11612TIP3    H256252   0.590   4.020   4.254 -1.5290  0.3583  0.3294
11613TIP3   OH256253   6.768   6.579  17.172 -0.3027  0.7976  0.5517
11613TIP3    H156254   6.751   6.487  17.151 -0.0385  1.1423 -1.3390
11613TIP3    H256255   6.728   6.592  17.258 -2.1128 -0.5596 -0.0314
11614TIP3   OH256256   5.960   1.365  13.808  0.5928 -0.3698  0.1506
11614TIP3    H156257   6.035   1.309  13.793  0.6789 -0.6285  1.4132
11614TIP3    H256258   5.888   1.324  13.760  1.3184  0.1116 -1.4204
11615TIP3   OH256259   2.065   2.910   4.134 -0.0857 -0.4333  0.3596
11615TIP3    H156260   2.116   2.978   4.091  0.1014 -0.5527  0.3922
11615TIP3    H256261   2.000   2.958   4.186 -0.8365 -0.2996 -0.6904
11616TIP3   OH256262   4.020   4.154  12.804 -0.3875 -0.2063  0.3686
11616TIP3    H156263   3.960   4.086  12.775 -0.6912  0.3464 -0.3052
11616TIP3    H256264   3.968   4.209  12.862 -1.0440  1.2409 -1.5021
11617TIP3   OH256265   6.132   0.786   1.778 -0.2542  0.1833  0.3208
11617TIP3    H156266   6.064   0.724   1.753 -0.9756  1.1185 -0.0476
11617TIP3    H256267   6.177   0.743   1.851 -3.2992  0.8900  2.8352
11618TIP3   OH256268   1.263   2.219  15.492  0.2299 -0.5444  0.2303
11618TIP3    H156269   1.309   2.155  15.438  1.1301 -0.2982  0.6823
11618TIP3    H256270   1.278   2.303  15.449  4.2679  0.3074  2.7245
11619TIP3   OH256271   5.842   4.422   3.636 -0.5465 -0.3360 -0.2787
11619TIP3    H156272   5.779   4.452   3.701 -1.2775 -0.2256 -1.0168
11619TIP3    H256273   5.815   4.332   3.616 -0.4601 -0.2940 -0.5864
11620TIP3   OH256274   5.448   1.787   1.198 -0.4453  0.3836  0.0778
11620TIP3    H156275   5.374   1.729   1.178 -0.9170  0.9853  0.0401
11620TIP3    H256276   5.523   1.747   1.153 -0.6083 -0.5707  0.6168
11621TIP3   OH256277   1.890   3.770  11.767  0.1802  0.0325  0.3308
11621TIP3    H156278   1.824   3.705  11.791 -0.3414  0.7843  1.0030
11621TIP3    H256279   1.849   3.854  11.789  1.6276  0.4838  1.4268
11622TIP3   OH256280   4.571   6.493   0.797 -0.2905  0.2946  0.3815
11622TIP3    H156281   4.647   6.464   0.847  0.3027  1.3610  0.1467
11622TIP3    H256282   4.521   6.547   0.858 -0.3536  0.3789  0.2558
11623TIP3   OH256283   3.413   6.399  14.754  0.3487 -0.2341 -0.3046
11623TIP3    H156284   3.480   6.342  14.717  1.2872 -0.3292  1.4626
11623TIP3    H256285   3.451   6.487  14.748 -0.1740 -0.0388 -0.9851
11624TIP3   OH256286   3.808   5.398  12.044 -0.0264 -0.3511 -0.3875
11624TIP3    H156287   3.772   5.345  12.116  1.1014 -0.4749  0.1093
11624TIP3    H256288   3.826   5.483  12.084  2.0077 -0.8609 -0.0730
11625TIP3   OH256289   2.077   2.669   2.568 -0.0737 -0.0607 -0.3948
11625TIP3    H156290   2.083   2.604   2.498 -0.2090 -0.3689 -0.1250
11625TIP3    H256291   2.142   2.642   2.632  0.5730  0.6482 -0.7401
11626TIP3   OH256292   3.034   2.051   3.947  0.3130 -0.1972 -0.1782
11626TIP3    H156293   3.077   1.974   3.986 -1.3815 -1.2627 -0.2947
11626TIP3    H256294   3.064   2.052   3.856  0.4352 -0.6633 -0.1463
11627TIP3   OH256295   4.259   3.574   3.390  0.3704 -0.5432  0.8305
11627TIP3    H156296   4.284   3.554   3.480  0.1075 -2.3354  0.5414
11627TIP3    H256297   4.169   3.606   3.396 -0.4127 -2.6376  1.0569
11628TIP3   OH256298   4.410   0.881   0.043 -0.3693  0.2081 -0.4345
11628TIP3    H156299   4.315   0.885   0.053 -0.4106  1.3381 -1.1657
11628TIP3    H256300   4.437   0.972   0.029  0.7334 -0.1898 -1.0133
11629TIP3   OH256301   1.875   4.439  15.148  0.5470 -0.0122 -0.7045
11629TIP3    H156302   1.892   4.515  15.204  0.5985  0.3309 -1.1790
11629TIP3    H256303   1.941   4.375  15.175  0.4631  0.0831 -0.2583
11630TIP3   OH256304   2.536   1.293  15.337  0.0797  0.2220  0.4438
11630TIP3    H156305   2.463   1.286  15.275  1.2535  0.5012 -1.0398
11630TIP3    H256306   2.528   1.217  15.394 -1.0309 -0.0528 -0.0599
11631TIP3   OH256307   3.603   6.620  15.719  0.2884 -0.3195 -0.7226
11631TIP3    H156308   3.683   6.597  15.767 -0.6235 -0.1993  0.8950
11631TIP3    H256309   3.617   6.711  15.692 -0.3166  0.5947  1.8020
11632TIP3   OH256310   4.234   4.462  12.504 -0.7192 -0.1464 -0.2460
11632TIP3    H156311   4.225   4.436  12.413  0.0233 -1.2826 -0.0153
11632TIP3    H256312   4.317   4.511  12.507  0.4609 -2.0657  0.1883
11633TIP3   OH256313   5.003   3.287   0.599 -0.7728  0.0948 -0.2476
11633TIP3    H156314   5.002   3.284   0.504  0.8661 -1.1627 -0.2705
11633TIP3    H256315   5.028   3.198   0.626 -1.5548  0.3254  1.3689
11634TIP3   OH256316   4.056   2.037   0.281  0.4255 -0.3482  0.0402
11634TIP3    H156317   4.000   2.108   0.250  0.1276 -0.3666  0.5271
11634TIP3    H256318   4.129   2.035   0.219  0.5401  0.5134  0.1333
11635TIP3   OH256319   1.033   5.586  16.793  0.9100 -0.1410 -0.1281
11635TIP3    H156320   1.042   5.681  16.778 -3.1152  0.6610  1.2065
11635TIP3    H256321   1.067   5.573  16.882 -0.1805  0.4850  0.4082
11636TIP3   OH256322   4.905   3.390   5.440  0.4528 -0.0589 -0.1979
11636TIP3    H156323   4.959   3.341   5.502  1.6980  0.1697 -1.0666
11636TIP3    H256324   4.902   3.334   5.362 -0.8514 -0.2148 -0.0573
11637TIP3   OH256325   4.949   4.682   0.532  0.3340 -0.0112  0.2682
11637TIP3    H156326   4.957   4.746   0.462  1.0806  0.1606  0.4976
11637TIP3    H256327   4.991   4.723   0.608  1.3604 -0.9851  0.2641
11638TIP3   OH256328   6.686   3.068  16.014 -0.0115  0.3273 -0.0899
11638TIP3    H156329   6.626   3.034  15.947 -0.2976 -1.5109  1.0077
11638TIP3    H256330   6.631   3.121  16.071  0.1177  1.4270 -0.9695
11639TIP3   OH256331   6.576   4.869   0.592  0.3073  0.4026  0.9003
11639TIP3    H156332   6.628   4.789   0.580 -1.3138 -0.7823  1.3724
11639TIP3    H256333   6.514   4.868   0.520 -0.8606  0.2857  1.8762
11640TIP3   OH256334   3.295   5.051  13.402  0.0698  0.3063 -0.5929
11640TIP3    H156335   3.354   5.074  13.474  0.3663  0.1317 -0.7802
11640TIP3    H256336   3.277   4.958  13.415 -2.8484  0.9997  1.4456
11641TIP3   OH256337   5.248   5.276   3.949 -0.6341  0.2780  0.1335
11641TIP3    H156338   5.250   5.317   4.035  1.0935 -0.7287  0.6270
11641TIP3    H256339   5.228   5.184   3.966  1.2680 -0.2739 -0.3241
11642TIP3   OH256340   1.674   2.320  12.358 -0.0793  0.1196  0.3768
11642TIP3    H156341   1.631   2.406  12.351 -0.1420  0.0053 -0.8348
11642TIP3    H256342   1.629   2.266  12.293  1.3391 -0.2327 -0.3415
11643TIP3   OH256343   4.359   5.891  15.617 -0.1071 -1.3450  0.1232
11643TIP3    H156344   4.351   5.986  15.600  0.9066 -1.2067  0.3765
11643TIP3    H256345   4.332   5.880  15.708 -0.8091 -1.3924 -0.0844
11644TIP3   OH256346   6.113   5.494  14.347 -0.1493  0.0699  0.3074
11644TIP3    H156347   6.148   5.447  14.423 -0.2231 -1.4660 -0.5643
11644TIP3    H256348   6.020   5.470  14.345 -0.7641  2.1296  1.1575
11645TIP3   OH256349   6.217   0.088  17.026  0.4355  0.5009 -0.0188
11645TIP3    H156350   6.214   0.046  16.940  0.0869  1.0047 -0.2575
11645TIP3    H256351   6.291   0.048  17.070 -0.1906 -0.7261 -0.0507
11646TIP3   OH256352   1.661   2.626  15.181 -0.3091 -0.4596 -0.2692
11646TIP3    H156353   1.576   2.590  15.206 -0.2945 -0.4317 -0.1803
11646TIP3    H256354   1.690   2.676  15.257 -1.1848  1.3157 -1.0305
11647TIP3   OH256355   3.882   5.426  13.892  0.1775 -0.4159  0.4903
11647TIP3    H156356   3.837   5.489  13.949  0.4658 -1.4262  1.8886
11647TIP3    H256357   3.975   5.447  13.903  0.2361 -0.6497  0.4371
11648TIP3   OH256358   6.199   5.969   2.093  0.9463 -0.2868 -0.1582
11648TIP3    H156359   6.204   6.065   2.101 -1.6261 -0.1367  0.5879
11648TIP3    H256360   6.137   5.943   2.161 -0.3444 -2.2151 -1.9844
11649TIP3   OH256361   1.907   5.703   1.193 -0.0693  0.2715  0.7993
11649TIP3    H156362   1.954   5.693   1.275 -1.5434  0.0140  1.6472
11649TIP3    H256363   1.872   5.616   1.174  1.8312 -0.1599 -1.1472
11650TIP3   OH256364   5.130   2.066  16.403  0.1587 -0.0714 -0.3491
11650TIP3    H156365   5.048   2.112  16.422 -0.1510 -1.0991  0.9222
11650TIP3    H256366   5.129   2.055  16.308  0.3579  2.6894 -0.7580
11651TIP3   OH256367   6.175   2.138  13.519  0.0550 -0.1460 -0.1721
11651TIP3    H156368   6.106   2.072  13.527 -0.9621  1.0203  1.3829
11651TIP3    H256369   6.129   2.221  13.524  1.3772  0.7097 -1.3890
11652TIP3   OH256370   0.475   1.399  14.048  0.0755  0.1724  0.5705
11652TIP3    H156371   0.467   1.491  14.022 -0.7238 -0.2296 -0.6645
11652TIP3    H256372   0.438   1.350  13.975  0.5916 -1.1466  1.1708
11653TIP3   OH256373   1.557   5.817  15.410  0.4746  0.1203  0.1094
11653TIP3    H156374   1.470   5.777  15.418  1.0634 -1.2992 -0.3436
11653TIP3    H256375   1.557   5.886  15.476 -0.2433 -1.2316  1.5954
11654TIP3   OH256376   1.208   4.724  12.621  0.3586  0.3965 -0.0558
11654TIP3    H156377   1.238   4.740  12.532 -3.2931 -0.8238 -1.6977
11654TIP3    H256378   1.261   4.651  12.652  1.9961  1.1380 -0.9902
11655TIP3   OH256379   2.265   2.458   1.655  0.1361  0.4897 -0.5838
11655TIP3    H156380   2.355   2.444   1.684  0.0364  1.3143  0.1663
11655TIP3    H256381   2.214   2.464   1.736 -0.1905  2.6074 -0.8809
11656TIP3   OH256382   5.767   0.319   5.103 -0.0806 -0.3349 -0.6092
11656TIP3    H156383   5.786   0.260   5.176  1.6904  0.8470 -0.0597
11656TIP3    H256384   5.747   0.403   5.144  2.0935  0.6601 -1.4612
11657TIP3   OH256385   0.341   0.873   3.926 -0.7948  0.0770 -0.0921
11657TIP3    H156386   0.349   0.969   3.928 -1.3583  0.1207  0.4158
11657TIP3    H256387   0.367   0.845   4.013 -1.6429 -0.1408  0.1010
11658TIP3   OH256388   6.393   1.134  14.662  0.0480 -0.8316 -0.6585
11658TIP3    H156389   6.328   1.195  14.697 -2.1893 -2.0574 -2.3765
11658TIP3    H256390   6.477   1.179  14.672 -1.1880  1.3653  0.5532
11659TIP3   OH256391   3.235   4.606   5.143  0.2726 -0.1509 -0.0658
11659TIP3    H156392   3.225   4.624   5.236  0.4218  0.3625 -0.1433
11659TIP3    H256393   3.326   4.578   5.133 -0.1754 -1.7660  0.1739
11660TIP3   OH256394   6.413   4.442   2.523  0.4494 -0.1651  0.1478
11660TIP3    H156395   6.499   4.421   2.559  0.4127 -0.6823 -0.0573
11660TIP3    H256396   6.379   4.510   2.581  0.5904 -0.6523  0.8154
11661TIP3   OH256397   1.754   2.375   5.136  0.0894 -0.0273  0.6179
11661TIP3    H156398   1.808   2.326   5.073 -1.7723 -1.9684  0.4109
11661TIP3    H256399   1.817   2.406   5.201  1.8230  0.4429 -1.1748
11662TIP3   OH256400   2.214   5.943  11.879 -0.2048 -0.2675  0.0306
11662TIP3    H156401   2.153   5.916  11.948  0.0083  1.4825  0.9655
11662TIP3    H256402   2.256   6.022  11.914  0.1843  0.4553 -1.9474
11663TIP3   OH256403   5.866   1.333  14.101 -0.4971 -0.1496 -0.2258
11663TIP3    H156404   5.921   1.411  14.096  0.2143 -0.5143  1.3190
11663TIP3    H256405   5.792   1.359  14.156 -1.0569 -0.1243 -0.9804
11664TIP3   OH256406   0.812   4.703   1.738  0.3560  0.2121  0.4491
11664TIP3    H156407   0.775   4.649   1.669  2.3120  1.1768 -1.4831
11664TIP3    H256408   0.796   4.653   1.818 -1.0665 -1.4611 -0.7756
11665TIP3   OH256409   4.352   2.064  15.185 -0.2804  0.0942  0.2231
11665TIP3    H156410   4.321   2.036  15.099 -0.3529 -0.5203  0.4461
11665TIP3    H256411   4.417   2.132  15.165  0.3975 -0.6913 -0.3689
11666TIP3   OH256412   5.381   4.084  13.058  0.3875 -0.0676 -0.0240
11666TIP3    H156413   5.446   4.074  12.988  0.1044  1.6775 -0.5793
11666TIP3    H256414   5.308   4.129  13.017 -0.7797 -1.0888  0.8517
11667TIP3   OH256415   3.982   6.345  16.989 -0.7512  0.3606 -0.4773
11667TIP3    H156416   3.989   6.363  17.083 -1.0234 -0.5099 -0.2802
11667TIP3    H256417   4.005   6.428  16.947  1.7525  0.1531  0.2907
11668TIP3   OH256418   0.719   5.553  12.655 -0.2162  0.2046  0.6036
11668TIP3    H156419   0.680   5.556  12.743 -1.6315 -0.8906  0.0547
11668TIP3    H256420   0.797   5.498  12.666  0.2800  1.0407  1.3928
11669TIP3   OH256421   6.358   3.815   4.415 -0.5807 -0.0945  0.6150
11669TIP3    H156422   6.340   3.813   4.509 -3.5748  2.4694  0.2849
11669TIP3    H256423   6.337   3.727   4.384 -0.7825 -0.6224  2.1733
11670TIP3   OH256424   5.058   0.220   1.704 -0.5832 -0.1168 -0.7323
11670TIP3    H156425   4.985   0.234   1.764 -1.6257 -0.2514 -1.9063
11670TIP3    H256426   5.026   0.155   1.642  0.7497 -0.5841 -0.9652
11671TIP3   OH256427   6.257   2.650  17.136 -0.1210 -0.2885  0.4288
11671TIP3    H156428   6.348   2.679  17.133  0.0241 -0.6449 -2.8179
11671TIP3    H256429   6.208   2.718  17.090 -0.9501 -1.5400 -0.6268
11672TIP3   OH256430   0.783   3.193   0.515 -0.2975 -0.3994  0.3276
11672TIP3    H156431   0.810   3.158   0.430 -1.5564  0.8960 -0.6539
11672TIP3    H256432   0.788   3.288   0.505 -0.7478 -0.2187  1.6149
11673TIP3   OH256433   0.779   0.307  15.471 -0.2697 -0.4419 -0.3110
11673TIP3    H156434   0.784   0.229  15.416 -0.1688 -1.9469  1.7512
11673TIP3    H256435   0.870   0.329  15.489 -0.3066 -0.0443 -0.5969
11674TIP3   OH256436   1.735   3.517  13.911  0.0196 -0.1946 -0.2940
11674TIP3    H156437   1.827   3.511  13.886 -0.1995 -1.8889 -0.7730
11674TIP3    H256438   1.687   3.504  13.830 -0.6598  0.5169 -0.0172
11675TIP3   OH256439   2.643   3.447   3.816 -0.6135 -0.2076  0.2944
11675TIP3    H156440   2.586   3.447   3.893  0.6016 -1.0934  1.2253
11675TIP3    H256441   2.721   3.400   3.844  0.5454  0.8737 -0.9789
11676TIP3   OH256442   5.563   3.010   5.977 -0.3242 -0.0636 -0.4608
11676TIP3    H156443   5.591   2.993   6.067 -1.7658 -0.2759 -0.0281
11676TIP3    H256444   5.504   3.085   5.985  0.0527  0.3395 -1.3408
11677TIP3   OH256445   2.693   0.387  15.474  0.0940 -0.1086  0.8535
11677TIP3    H156446   2.671   0.346  15.390  0.3350 -2.0702  1.6895
11677TIP3    H256447   2.766   0.445  15.453 -0.5920  0.3130 -0.4860
11678TIP3   OH256448   0.524   3.911  16.611 -0.3475  0.4336 -0.2377
11678TIP3    H156449   0.498   3.984  16.667 -0.2204 -0.0629  0.4828
11678TIP3    H256450   0.616   3.928  16.590 -0.0560  0.0341  0.6606
11679TIP3   OH256451   6.507   5.166  15.807  0.0796 -0.2658  0.2684
11679TIP3    H156452   6.445   5.238  15.803  0.7367  0.3381  0.6146
11679TIP3    H256453   6.535   5.153  15.716  1.1013  0.9662  0.3696
11680TIP3   OH256454   4.127   4.562   3.440  0.0938  0.4129  0.0114
11680TIP3    H156455   4.167   4.478   3.462 -1.6091 -0.4086  0.0610
11680TIP3    H256456   4.199   4.613   3.403  0.9711 -1.3836 -0.8887
11681TIP3   OH256457   4.888   4.497  16.009  0.3111 -0.5027 -0.5963
11681TIP3    H156458   4.935   4.513  15.928 -3.5633  0.6135 -2.9052
11681TIP3    H256459   4.848   4.582  16.031 -3.3505 -1.9364 -0.9314
11682TIP3   OH256460   1.748   0.731  12.577  0.2777 -0.6073 -0.0089
11682TIP3    H156461   1.766   0.647  12.619  1.1611  0.9249  2.9020
11682TIP3    H256462   1.826   0.749  12.525  0.4148 -1.2156 -0.0244
11683TIP3   OH256463   0.233   4.329   3.269 -0.0381 -0.5971 -0.3151
11683TIP3    H156464   0.319   4.319   3.309  0.1745  1.7328 -0.0119
11683TIP3    H256465   0.248   4.318   3.175  0.7853  0.6414 -0.3457
11684TIP3   OH256466   0.359   6.373   4.852 -0.2212 -0.4641  0.5145
11684TIP3    H156467   0.294   6.441   4.870  3.0803  2.5671  2.3241
11684TIP3    H256468   0.370   6.327   4.935  0.5386 -0.3286  0.4976
11685TIP3   OH256469   2.735   0.854   0.356  0.0979  0.4883 -0.0592
11685TIP3    H156470   2.647   0.816   0.366 -0.7676  1.5879 -2.6145
11685TIP3    H256471   2.794   0.789   0.395 -1.6362 -1.5368 -0.6098
11686TIP3   OH256472   5.676   5.067  13.133  0.7040  0.1098  0.3451
11686TIP3    H156473   5.691   5.124  13.209 -0.9306  1.0474  0.0073
11686TIP3    H256474   5.661   5.127  13.061 -0.2626 -0.7588 -0.2008
11687TIP3   OH256475   2.510   1.584   0.756  0.0355 -0.1676  0.4226
11687TIP3    H156476   2.591   1.597   0.708 -0.5184 -1.5451 -0.9835
11687TIP3    H256477   2.516   1.494   0.788 -1.0855 -0.4295 -0.0486
11688TIP3   OH256478   0.389   1.137   0.934 -0.5355 -0.2961 -0.5159
11688TIP3    H156479   0.367   1.229   0.950  1.9344  0.1344  1.1531
11688TIP3    H256480   0.336   1.112   0.859 -1.5116  2.4095 -0.8598
11689TIP3   OH256481   6.092   2.881   1.944  0.1821 -0.6634 -0.2238
11689TIP3    H156482   6.080   2.844   1.857  1.2077 -0.5932 -0.4106
11689TIP3    H256483   6.125   2.970   1.928  2.2447 -1.3014  0.2047
11690TIP3   OH256484   1.353   6.125   0.906 -0.2757 -0.1640 -0.2904
11690TIP3    H156485   1.276   6.174   0.936  0.1666 -0.0747  0.7232
11690TIP3    H256486   1.416   6.133   0.977  0.1006 -1.5564 -0.4457
11691TIP3   OH256487   1.824   2.078  15.328 -0.4871  0.4597  0.0173
11691TIP3    H156488   1.904   2.072  15.275 -0.4334  0.3514  0.1101
11691TIP3    H256489   1.826   2.000  15.383 -0.9729  0.1304 -0.4179
11692TIP3   OH256490   6.769   5.005  16.526 -0.0520 -0.2626 -0.4458
11692TIP3    H156491   6.774   5.034  16.435 -1.0469 -2.0262 -1.1114
11692TIP3    H256492   6.852   4.960  16.541 -0.5228 -1.3930 -1.0533
11693TIP3   OH256493   4.342   0.625   5.904  0.2632  0.4999  0.1171
11693TIP3    H156494   4.402   0.689   5.942  1.3684  0.0050 -0.7491
11693TIP3    H256495   4.396   0.573   5.846 -1.3084  1.1013 -2.0118
11694TIP3   OH256496   1.241   0.204   1.627  0.4147  0.1680  0.2950
11694TIP3    H156497   1.216   0.152   1.703 -0.7294 -0.4806 -0.4808
11694TIP3    H256498   1.246   0.140   1.555  1.6663  0.7304 -0.1347
11695TIP3   OH256499   1.717   1.907  14.408  0.2142  0.0206  0.0507
11695TIP3    H156500   1.758   1.993  14.400  0.6745 -0.2645 -0.7915
11695TIP3    H256501   1.778   1.848  14.364 -1.4652 -0.3008 -1.9969
11696TIP3   OH256502   5.179   0.666  12.686 -0.5123  0.3550 -0.4260
11696TIP3    H156503   5.166   0.724  12.761  0.1526  0.9429 -0.7622
11696TIP3    H256504   5.141   0.582  12.714  0.2842  0.3786  0.8074
11697TIP3   OH256505   4.134   6.053  11.527 -0.5553  0.9215  0.5112
11697TIP3    H156506   4.070   6.039  11.597  1.3717 -0.0721  2.2042
11697TIP3    H256507   4.160   5.964  11.501 -0.0034  1.2937 -0.2357
11698TIP3   OH256508   3.666   6.047   5.811  0.3731 -0.0826 -0.3775
11698TIP3    H156509   3.576   6.027   5.786  0.6049  0.3189 -1.6595
11698TIP3    H256510   3.717   5.972   5.781  0.5786  0.1026 -0.4981
11699TIP3   OH256511   4.585   4.216   1.288  0.5115  0.2804 -0.1271
11699TIP3    H156512   4.562   4.283   1.353 -1.2235 -1.2510  0.9317
11699TIP3    H256513   4.642   4.155   1.336 -0.5729 -0.7219 -0.0692
11700TIP3   OH256514   3.421   3.527   2.716  0.5795 -0.4633 -0.0043
11700TIP3    H156515   3.362   3.579   2.770  0.2641 -1.4776  0.6551
11700TIP3    H256516   3.391   3.543   2.626  1.1520  1.2815  0.0754
11701TIP3   OH256517   5.547   2.897   2.225  0.4590  0.2874  0.0533
11701TIP3    H156518   5.536   2.812   2.183 -0.0853  0.0635  0.6441
11701TIP3    H256519   5.486   2.896   2.299 -0.4725  1.6570 -0.6447
11702TIP3   OH256520   0.708   2.618  16.836 -0.4721 -0.2614  0.2382
11702TIP3    H156521   0.791   2.632  16.881 -1.2359  0.6860  1.3886
11702TIP3    H256522   0.733   2.578  16.753  0.8929 -3.4957  2.0396
11703TIP3   OH256523   3.878   1.776   3.179  0.0192 -0.3910 -0.0897
11703TIP3    H156524   3.878   1.681   3.173 -1.8665 -0.3629 -3.6627
11703TIP3    H256525   3.970   1.801   3.172  0.4320 -1.9197 -0.3580
11704TIP3   OH256526   5.936   2.769  13.110  0.7922  0.3170 -0.1738
11704TIP3    H156527   5.878   2.827  13.159  1.9383  1.2982  0.0761
11704TIP3    H256528   5.940   2.807  13.022  1.1215  0.3176 -0.1607
11705TIP3   OH256529   0.575   3.417  14.060  0.1094 -0.0503  0.5067
11705TIP3    H156530   0.530   3.499  14.040  0.8542 -0.2743 -2.4607
11705TIP3    H256531   0.667   3.435  14.041  0.3851 -1.3650  0.4992
11706TIP3   OH256532   2.442   0.044  12.946  0.0303 -0.4063  0.5115
11706TIP3    H156533   2.532   0.034  12.976  0.4241 -0.4327 -0.6268
11706TIP3    H256534   2.449   0.047  12.850 -0.9762  1.5589  0.4442
11707TIP3   OH256535   1.879   5.437   0.220  0.6017  0.1723  1.2675
11707TIP3    H156536   1.868   5.521   0.177  0.4912 -0.5238 -0.1047
11707TIP3    H256537   1.906   5.377   0.150  0.3938 -0.9993  2.1609
11708TIP3   OH256538   5.226   5.985  12.525 -0.5440 -0.0799 -0.1362
11708TIP3    H156539   5.203   5.894  12.545 -0.3561 -0.0786  0.0963
11708TIP3    H256540   5.250   5.984  12.432 -0.2354 -0.3329 -0.0573
11709TIP3   OH256541   0.403   5.045   2.918  0.1437 -0.1610  0.2168
11709TIP3    H156542   0.491   5.018   2.890  0.8882  1.1305  1.2240
11709TIP3    H256543   0.412   5.062   3.012 -1.5162 -1.2604  0.6188
11710TIP3   OH256544   5.898   5.702   5.087  0.1035 -0.0182 -0.0001
11710TIP3    H156545   5.821   5.737   5.044  1.4732  1.2054 -1.5870
11710TIP3    H256546   5.946   5.656   5.018  0.8408 -0.7125  0.9418
11711TIP3   OH256547   4.376   2.618   5.382  0.0683 -0.3504  0.1615
11711TIP3    H156548   4.447   2.564   5.347  0.3917  1.6171 -2.5457
11711TIP3    H256549   4.356   2.679   5.312 -2.8988  0.5644  1.6488
11712TIP3   OH256550   3.607   3.341  10.679 -0.2171  0.0673 -0.2815
11712TIP3    H156551   3.583   3.294  10.599  0.4647 -0.2602 -0.2998
11712TIP3    H256552   3.575   3.285  10.750  0.2843 -0.2593 -0.3091
11713TIP3   OH256553   0.781   2.075  14.038 -0.3432  0.6573 -0.2153
11713TIP3    H156554   0.807   2.102  14.125 -0.4391  0.7727 -0.2224
11713TIP3    H256555   0.863   2.060  13.991 -0.2830 -0.4156  0.2074
11714TIP3   OH256556   6.182   3.910  14.611 -0.5793  0.0839 -0.1975
11714TIP3    H156557   6.157   3.818  14.610 -0.7572  0.1255  0.1343
11714TIP3    H256558   6.212   3.925  14.701  0.2705  0.1306 -0.4819
11715TIP3   OH256559   4.016   4.632  12.329 -0.0869  0.1249 -0.3020
11715TIP3    H156560   4.046   4.572  12.398 -0.3108  0.3437 -0.0133
11715TIP3    H256561   3.921   4.629  12.334 -0.1043  0.1601 -0.5889
11716TIP3   OH256562   5.126   1.973   1.540 -0.1270 -0.5143  0.6740
11716TIP3    H156563   5.103   2.047   1.484  1.1319  0.4557  1.4184
11716TIP3    H256564   5.210   1.942   1.506  0.0923 -0.6330  1.3186
11717TIP3   OH256565   1.881   5.546   6.047  0.3572  0.2742  0.2071
11717TIP3    H156566   1.853   5.461   6.014  0.4253  0.1310  0.5125
11717TIP3    H256567   1.818   5.608   6.011  0.6130  0.1645 -0.4437
11718TIP3   OH256568   5.181   5.252   5.617 -0.6033 -0.4493 -0.5420
11718TIP3    H156569   5.222   5.338   5.603 -1.9134  0.1481 -0.8160
11718TIP3    H256570   5.092   5.272   5.644 -1.0074 -1.7428 -0.8599
11719TIP3   OH256571   4.782   2.255  15.776 -0.2531  0.9310 -0.0542
11719TIP3    H156572   4.772   2.206  15.857 -0.5963  0.6067 -0.2886
11719TIP3    H256573   4.714   2.220  15.718  1.9546 -1.1684 -1.6057
11720TIP3   OH256574   2.274   1.370   3.954 -0.3728  0.0957 -0.2004
11720TIP3    H156575   2.329   1.442   3.922  2.9799 -2.2849 -0.3214
11720TIP3    H256576   2.244   1.400   4.040  2.4360  1.0516  0.5687
11721TIP3   OH256577   5.870   1.513   3.244 -0.0014  0.8847  0.1393
11721TIP3    H156578   5.781   1.504   3.279  0.5832  1.4354  1.8732
11721TIP3    H256579   5.897   1.424   3.223 -0.2600  0.4589  1.5064
11722TIP3   OH256580   1.417   2.371  15.131  0.1595  0.1190 -0.0441
11722TIP3    H156581   1.399   2.316  15.054 -0.7776 -0.1854  0.3726
11722TIP3    H256582   1.488   2.326  15.177 -0.4219 -0.6135  0.1515
11723TIP3   OH256583   4.313   5.027  14.592  0.1813 -0.0311  0.6352
11723TIP3    H156584   4.269   5.090  14.534  4.9146  3.1476 -0.0510
11723TIP3    H256585   4.295   5.061  14.680  0.6270  0.8328  0.4099
11724TIP3   OH256586   6.483   4.114  10.983 -0.3599  0.7007  0.0241
11724TIP3    H156587   6.394   4.092  10.957 -0.7935  0.9627  1.2688
11724TIP3    H256588   6.519   4.161  10.907 -1.0248 -0.0311 -0.7634
11725TIP3   OH256589   4.740   1.346   0.184 -0.1870  0.3785 -0.3377
11725TIP3    H156590   4.815   1.296   0.217  1.0848  2.8799  0.7811
11725TIP3    H256591   4.684   1.358   0.260 -0.5649  0.5457 -0.6406
11726TIP3   OH256592   5.391   2.931   1.422  0.5900 -0.0918  0.1130
11726TIP3    H156593   5.370   2.933   1.516  1.5152 -2.8624  0.4818
11726TIP3    H256594   5.460   2.996   1.411  1.2427 -0.4859  1.6052
11727TIP3   OH256595   1.796   6.512  10.593  0.4086 -0.6026  0.6851
11727TIP3    H156596   1.758   6.438  10.545  0.6326  0.0526 -0.5354
11727TIP3    H256597   1.890   6.507  10.574  0.5237 -0.4224  1.1963
11728TIP3   OH256598   1.234   2.881   3.827 -0.5752 -0.6813  0.4939
11728TIP3    H156599   1.200   2.802   3.868 -1.1332 -0.3268  0.7254
11728TIP3    H256600   1.201   2.952   3.881  1.7287 -0.3718  1.6153
11729TIP3   OH256601   0.800   2.967  12.172  0.5876  0.1262  0.6914
11729TIP3    H156602   0.714   2.929  12.185  1.0555 -1.1933  0.0557
11729TIP3    H256603   0.784   3.061  12.163 -0.7477 -0.0846  0.7493
11730TIP3   OH256604   3.493   3.907   5.246 -0.2596 -0.3039  0.1724
11730TIP3    H156605   3.465   3.889   5.335 -0.8778  1.3756  0.3462
11730TIP3    H256606   3.571   3.852   5.234  0.2090 -0.0855  1.9523
11731TIP3   OH256607   6.019   2.825  12.010 -0.2576  0.0924  0.1577
11731TIP3    H156608   5.937   2.841  12.057  0.1229 -0.8765  1.2002
11731TIP3    H256609   6.008   2.738  11.973 -0.2503  0.5449 -0.9243
11732TIP3   OH256610   1.584   5.296  11.895 -0.3981 -0.8172 -0.3743
11732TIP3    H156611   1.543   5.211  11.911 -1.7425 -0.0263  0.6059
11732TIP3    H256612   1.653   5.302  11.961 -3.2559  0.6868  2.7547
11733TIP3   OH256613   4.936   3.872   5.617  0.2152 -0.2518  0.0771
11733TIP3    H156614   4.934   3.888   5.523 -1.6725 -2.1241 -0.2841
11733TIP3    H256615   4.961   3.780   5.626  0.9583  0.0586  1.4398
11734TIP3   OH256616   6.117   2.003   4.604 -0.0140  0.5792  0.2234
11734TIP3    H156617   6.145   2.087   4.639  0.3455  0.6640 -0.2685
11734TIP3    H256618   6.191   1.944   4.621 -0.5377  0.1798  1.2103
11735TIP3   OH256619   2.850   4.373   6.334 -0.2204  0.1384  0.1312
11735TIP3    H156620   2.754   4.378   6.338 -0.1554  1.0128  1.0133
11735TIP3    H256621   2.871   4.299   6.392 -0.2711  1.2779  1.6549
11736TIP3   OH256622   3.715   4.310  11.212  0.2804 -0.0683  0.8349
11736TIP3    H156623   3.800   4.279  11.181 -0.1370 -1.8314  1.3782
11736TIP3    H256624   3.671   4.342  11.133  1.2864  0.5590  0.4955
11737TIP3   OH256625   0.746   6.349   2.893  0.1469  0.3926 -0.3202
11737TIP3    H156626   0.668   6.309   2.932  0.8314  0.1136  0.8217
11737TIP3    H256627   0.722   6.441   2.882 -0.4976  0.2178 -0.3869
11738TIP3   OH256628   4.865   1.635   2.551 -0.5364 -0.6041  0.5547
11738TIP3    H156629   4.932   1.587   2.601  0.7040  1.3443  0.8770
11738TIP3    H256630   4.889   1.622   2.459  0.3595  0.1300  0.6706
11739TIP3   OH256631   3.309   0.813   4.306  0.1919 -0.2703  0.2859
11739TIP3    H156632   3.398   0.825   4.274  0.2491  0.5581  0.7265
11739TIP3    H256633   3.310   0.727   4.348 -0.1027 -1.7810 -2.5576
11740TIP3   OH256634   1.419   5.627   1.338 -0.6806 -0.1498 -0.4578
11740TIP3    H156635   1.362   5.685   1.389 -1.7501 -1.1250 -0.5008
11740TIP3    H256636   1.492   5.682   1.312 -0.4581  0.5729  1.5172
11741TIP3   OH256637   3.620   2.606   3.731  0.3560  0.0193 -0.6601
11741TIP3    H156638   3.708   2.570   3.725  0.4684  0.0500  0.5266
11741TIP3    H256639   3.630   2.697   3.702  0.7959  0.1369 -0.1497
11742TIP3   OH256640   5.286   0.525  15.997 -0.3731 -0.0450  0.7315
11742TIP3    H156641   5.216   0.480  16.044 -0.1428 -1.1385  0.0606
11742TIP3    H256642   5.365   0.506  16.047 -0.4376  0.6180  1.1026
11743TIP3   OH256643   4.946   6.640   0.584 -0.0582 -0.0957 -0.4122
11743TIP3    H156644   4.864   6.652   0.535 -1.6544 -1.3202  1.7817
11743TIP3    H256645   4.984   6.560   0.548 -0.3387 -0.0677 -0.7762
11744TIP3   OH256646   5.415   0.335  14.539  0.2436 -0.0514  0.3381
11744TIP3    H156647   5.341   0.318  14.480 -0.1257  0.0823  0.7616
11744TIP3    H256648   5.452   0.417  14.507  1.1152 -0.8533 -0.7833
11745TIP3   OH256649   3.981   1.379  14.844 -0.1798  0.0652 -0.4884
11745TIP3    H156650   4.026   1.430  14.777  1.2042 -1.0084 -0.4342
11745TIP3    H256651   3.999   1.425  14.926  1.2575 -0.5644 -0.4104
11746TIP3   OH256652   2.247   3.294   5.079 -0.0456 -0.2185 -0.0364
11746TIP3    H156653   2.321   3.354   5.088 -0.6687  0.2951  2.3044
11746TIP3    H256654   2.182   3.327   5.140 -0.9015 -2.5888  0.4176
11747TIP3   OH256655   1.460   4.850  13.894  0.6991  0.6537  0.2360
11747TIP3    H156656   1.489   4.929  13.939  1.6432  0.5447 -0.1529
11747TIP3    H256657   1.444   4.878  13.804  1.6178  0.2911 -0.0512
11748TIP3   OH256658   0.961   0.684  16.537  0.2557  0.2128 -0.9241
11748TIP3    H156659   0.913   0.674  16.455  0.2515  2.0927 -1.2094
11748TIP3    H256660   1.045   0.721  16.510  0.1765  1.0404 -0.0757
11749TIP3   OH256661   1.604   0.949   6.199  0.3915  0.0645 -0.3014
11749TIP3    H156662   1.643   1.022   6.248 -1.0924  0.8801 -0.2753
11749TIP3    H256663   1.540   0.911   6.260  0.3081 -0.5149 -0.7411
11750TIP3   OH256664   5.338   1.316   1.280 -0.2081  0.1661  0.2500
11750TIP3    H156665   5.282   1.242   1.301  0.4976 -0.7963 -1.1010
11750TIP3    H256666   5.390   1.330   1.359  0.9419 -1.9974 -0.0421
11751TIP3   OH256667   5.479   0.839  12.744 -0.5413  1.3400  0.1486
11751TIP3    H156668   5.423   0.861  12.669 -1.3719 -0.1236  0.3075
11751TIP3    H256669   5.424   0.856  12.821 -1.5029 -1.7201  0.2733
11752TIP3   OH256670   3.079   4.945   4.450  0.4465 -0.2762 -0.7411
11752TIP3    H156671   3.092   4.865   4.501  1.4965 -0.3598 -1.1057
11752TIP3    H256672   3.006   4.990   4.493  0.7492 -0.7557  0.3141
11753TIP3   OH256673   3.924   1.991  16.625  0.2368  0.4213  0.3073
11753TIP3    H156674   4.009   2.006  16.667  0.4478 -0.6824  0.3020
11753TIP3    H256675   3.866   1.966  16.697 -0.4325  2.4127  0.5052
11754TIP3   OH256676   4.108   5.274   4.412 -0.0914  0.1185  0.5057
11754TIP3    H156677   4.096   5.289   4.318 -1.2988  1.7865  0.8878
11754TIP3    H256678   4.044   5.330   4.454 -0.2104 -1.2840  2.3357
11755TIP3   OH256679   5.577   1.327   0.263 -0.1096  0.0047 -0.2030
11755TIP3    H156680   5.527   1.289   0.191  0.9501 -0.3382 -0.7665
11755TIP3    H256681   5.662   1.350   0.224  0.1718  0.5973  0.7331
11756TIP3   OH256682   0.262   6.068  10.541  0.5836  0.0985 -0.1040
11756TIP3    H156683   0.215   6.146  10.570 -1.3476  0.4965 -3.6968
11756TIP3    H256684   0.200   5.996  10.557 -0.0344  0.1763 -1.9544
11757TIP3   OH256685   3.661   1.814   5.439  0.1959 -0.1710  0.2581
11757TIP3    H156686   3.720   1.870   5.490  0.8110 -0.5317 -0.0390
11757TIP3    H256687   3.647   1.737   5.493  0.7079 -0.4750 -0.0274
11758TIP3   OH256688   3.675   1.782  17.128 -0.0502 -0.2199 -0.1401
11758TIP3    H156689   3.642   1.701  17.090 -0.2000  0.2009 -0.9340
11758TIP3    H256690   3.622   1.851  17.087 -0.6312  0.2188  1.2922
11759TIP3   OH256691   5.918   3.117  15.455 -0.0487 -0.2903 -0.0385
11759TIP3    H156692   5.848   3.098  15.392  0.6970  0.1428 -1.0391
11759TIP3    H256693   5.910   3.048  15.521 -1.9992  0.3002  0.4028
11760TIP3   OH256694   0.209   0.457  11.906 -0.1288  1.0154 -0.4870
11760TIP3    H156695   0.125   0.492  11.874 -0.4179  0.3077 -0.5221
11760TIP3    H256696   0.217   0.372  11.863  0.4182  0.9009 -0.1661
11761TIP3   OH256697   3.135   4.677  14.479 -0.1949  0.0347  0.7032
11761TIP3    H156698   3.159   4.605  14.538 -0.3292 -1.3479 -0.8618
11761TIP3    H256699   3.044   4.696  14.499  0.7108  2.1675  3.4721
11762TIP3   OH256700   4.412   4.759   0.664 -0.0315 -0.0035 -0.0568
11762TIP3    H156701   4.464   4.685   0.632  0.1989 -0.1591  0.6633
11762TIP3    H256702   4.422   4.756   0.759 -3.7870 -1.9181  0.4721
11763TIP3   OH256703   0.884   5.923  13.100 -0.9367 -0.5439 -0.0970
11763TIP3    H156704   0.822   5.850  13.102 -0.8849 -0.5774  0.4535
11763TIP3    H256705   0.923   5.918  13.013 -2.6316  0.2716 -0.9483
11764TIP3   OH256706   0.536   1.185  10.344 -0.0262 -0.0533 -0.1440
11764TIP3    H156707   0.625   1.189  10.379 -0.6077 -1.4805  1.6986
11764TIP3    H256708   0.536   1.107  10.288 -0.1402 -0.1476 -0.0153
11765TIP3   OH256709   4.649   5.487   2.567 -0.2313  0.4234  0.3607
11765TIP3    H156710   4.726   5.467   2.620  0.4447  0.8480 -0.4285
11765TIP3    H256711   4.612   5.566   2.607 -1.2071 -0.6762  1.7063
11766TIP3   OH256712   2.822   3.571  11.765  0.0511  0.3959  0.9360
11766TIP3    H156713   2.903   3.611  11.733 -0.5209  0.7382 -0.1004
11766TIP3    H256714   2.850   3.488  11.803  0.7347 -0.1431 -0.6794
11767TIP3   OH256715   3.177   6.775  10.678  0.1695  0.1119 -0.0434
11767TIP3    H156716   3.245   6.770  10.744 -0.0636  1.6578  0.3321
11767TIP3    H256717   3.196   6.854  10.628 -0.5460 -0.1885 -0.8331
11768TIP3   OH256718   4.156   6.543   0.470  0.0070  0.6497  0.6761
11768TIP3    H156719   4.100   6.582   0.403 -0.7519 -1.7569 -0.1997
11768TIP3    H256720   4.224   6.609   0.486  0.0261  1.4726 -2.1958
11769TIP3   OH256721   1.837   4.785   2.278 -0.2377 -0.1621  0.0789
11769TIP3    H156722   1.817   4.875   2.302  0.6774 -0.4368  2.0882
11769TIP3    H256723   1.783   4.768   2.201 -1.8093  1.5012  0.7395
11770TIP3   OH256724   0.043   1.231  11.167 -0.3882 -1.0358  0.0833
11770TIP3    H156725   0.047   1.324  11.144  1.0156 -1.7302 -3.0887
11770TIP3    H256726   0.004   1.229  11.254 -0.1725  2.5250  0.4055
11771TIP3   OH256727   6.379   5.456  15.984 -0.4943  0.2330 -0.5985
11771TIP3    H156728   6.372   5.541  16.027  0.4731  0.1236 -0.1900
11771TIP3    H256729   6.434   5.404  16.043 -1.8600 -1.0103 -0.3471
11772TIP3   OH256730   5.101   1.268   3.268 -0.0582  0.5088 -0.3746
11772TIP3    H156731   5.181   1.216   3.274 -0.2991  0.2404  0.5488
11772TIP3    H256732   5.068   1.273   3.357 -1.2073  0.4052 -0.7732
11773TIP3   OH256733   0.076   4.948   4.486  0.5645  0.6853 -0.4784
11773TIP3    H156734   0.069   4.880   4.552 -0.1613 -0.3881 -1.6082
11773TIP3    H256735   0.170   4.966   4.480  0.7259  0.0806  0.1388
11774TIP3   OH256736   3.764   5.407  15.291  0.3776 -0.0896 -0.0441
11774TIP3    H156737   3.819   5.486  15.287 -0.1837  0.2578 -1.5307
11774TIP3    H256738   3.720   5.404  15.206 -1.5786 -0.5988  0.9266
11775TIP3   OH256739   2.545   0.806  16.788  0.3752  0.2192  0.6955
11775TIP3    H156740   2.456   0.840  16.783  0.4278  0.2008 -0.6314
11775TIP3    H256741   2.550   0.742  16.718  2.4404  2.6729 -1.6186
11776TIP3   OH256742   3.535   3.387  14.023  0.5257  0.1071 -0.0288
11776TIP3    H156743   3.604   3.335  14.063  0.7721  0.7792  0.4507
11776TIP3    H256744   3.504   3.444  14.094 -1.0747 -0.7263 -0.0134
11777TIP3   OH256745   2.704   2.190   4.143 -0.1821 -0.6748 -0.8563
11777TIP3    H156746   2.743   2.208   4.058  0.4309  0.3612 -0.3724
11777TIP3    H256747   2.710   2.095   4.153 -0.7862 -0.8742 -2.2056
11778TIP3   OH256748   6.425   1.173  17.003  0.5269 -0.6181 -0.2874
11778TIP3    H156749   6.464   1.190  17.088  1.1380 -0.6411 -0.5613
11778TIP3    H256750   6.494   1.193  16.940 -0.1204  0.0146 -0.8111
11779TIP3   OH256751   2.837   0.505  13.431  0.4104 -0.0040  0.1760
11779TIP3    H156752   2.861   0.581  13.379 -0.2026 -0.5225 -0.8909
11779TIP3    H256753   2.742   0.508  13.435  0.3740 -0.7822  0.0079
11780TIP3   OH256754   2.646   6.032  15.870 -0.0752 -0.8018  0.5193
11780TIP3    H156755   2.715   6.091  15.842  1.9341 -3.3041 -0.1714
11780TIP3    H256756   2.573   6.050  15.811  1.1807 -0.3840 -0.9549
11781TIP3   OH256757   6.490   1.177   4.940  0.6107 -0.1626 -0.0160
11781TIP3    H156758   6.482   1.133   4.855 -0.9390  1.5749 -0.8576
11781TIP3    H256759   6.424   1.136   4.995 -2.2219  2.1442 -1.3856
11782TIP3   OH256760   6.695   6.105  10.806  0.4157 -0.0280  0.1265
11782TIP3    H156761   6.630   6.174  10.822 -0.4587 -0.9372  0.5776
11782TIP3    H256762   6.769   6.151  10.767 -0.0155  1.2270  0.7235
11783TIP3   OH256763   4.811   1.562   1.129  0.3214  0.5166 -0.0880
11783TIP3    H156764   4.753   1.489   1.151  1.6593 -0.6368 -0.2746
11783TIP3    H256765   4.850   1.538   1.045  0.7942  1.4441 -0.1500
11784TIP3   OH256766   3.762   3.546  10.768 -0.2744  0.1349 -0.6264
11784TIP3    H156767   3.831   3.494  10.809 -0.8106  0.2251  0.4157
11784TIP3    H256768   3.719   3.485  10.709  0.6145  0.0447 -1.2057
11785TIP3   OH256769   3.995   6.315   1.357 -0.7241  0.2527 -0.1020
11785TIP3    H156770   4.032   6.350   1.438  1.8186  1.4782 -1.6646
11785TIP3    H256771   4.067   6.320   1.294 -1.5741 -3.7033 -1.6564
11786TIP3   OH256772   3.519   1.235  16.930  0.3737 -0.0206 -0.2787
11786TIP3    H156773   3.454   1.180  16.974 -0.3480  0.7478 -0.3794
11786TIP3    H256774   3.500   1.224  16.837 -0.2245  0.9390 -0.2764
11787TIP3   OH256775   4.055   5.900   2.476 -0.0065  0.3204 -0.3780
11787TIP3    H156776   4.130   5.945   2.514 -1.3017  0.0463  2.7981
11787TIP3    H256777   4.094   5.839   2.412  2.0724  2.8691 -1.7485
11788TIP3   OH256778   2.341   2.407   4.697  0.0569 -0.4877 -0.2566
11788TIP3    H156779   2.404   2.460   4.745  0.8437 -1.5947 -0.0313
11788TIP3    H256780   2.343   2.321   4.739 -0.6474 -0.9242 -1.0597
11789TIP3   OH256781   0.398   5.415  15.827 -0.2374 -0.2502  0.2223
11789TIP3    H156782   0.311   5.384  15.849 -0.0062  0.7423  2.9539
11789TIP3    H256783   0.455   5.339  15.844 -0.2719 -0.0232  1.4500
11790TIP3   OH256784   2.034   3.358   3.463  0.4402 -0.1764  0.0191
11790TIP3    H156785   2.024   3.321   3.375  0.2751 -0.1341  0.0189
11790TIP3    H256786   2.115   3.409   3.458  0.5464 -0.3474 -0.0465
11791TIP3   OH256787   1.162   4.494  15.944 -0.0147  0.1935  0.1893
11791TIP3    H156788   1.131   4.534  16.025  0.1642 -1.5051  1.1218
11791TIP3    H256789   1.100   4.524  15.877 -3.5842 -2.6529  1.8795
11792TIP3   OH256790   1.916   1.875  12.380  0.0985 -0.1493 -0.9355
11792TIP3    H156791   1.906   1.848  12.289  0.4476  0.8397 -1.2789
11792TIP3    H256792   1.887   1.966  12.381 -0.2386 -0.2544  0.0202
11793TIP3   OH256793   0.945   5.882   2.839 -0.2870  0.2144  0.3726
11793TIP3    H156794   0.857   5.919   2.835  0.4466  1.9447 -2.3328
11793TIP3    H256795   0.947   5.816   2.770 -0.0105 -1.3132  1.7743
11794TIP3   OH256796   4.443   2.048   6.326 -0.6307 -0.7465  0.0524
11794TIP3    H156797   4.489   2.038   6.409  0.7466  0.3398 -0.5565
11794TIP3    H256798   4.389   1.969   6.320 -0.9650 -0.7320  2.0783
11795TIP3   OH256799   4.433   6.083  12.969  0.1543 -0.7516 -0.5476
11795TIP3    H156800   4.480   6.166  12.964 -0.8910 -0.0439  0.6156
11795TIP3    H256801   4.403   6.078  13.060 -0.0031 -2.2958 -0.6557
11796TIP3   OH256802   0.453   0.430   4.851 -0.7381 -0.0821  0.7168
11796TIP3    H156803   0.429   0.375   4.925 -1.0087 -1.4384 -0.3274
11796TIP3    H256804   0.539   0.397   4.823 -0.9978 -0.1465 -0.0511
11797TIP3   OH256805   2.679   4.557  13.869  0.3448  0.8713  1.0299
11797TIP3    H156806   2.680   4.599  13.956  2.9684  0.6760  1.1718
11797TIP3    H256807   2.629   4.477  13.882  0.5306  0.9426  2.3422
11798TIP3   OH256808   5.693   4.811  11.671 -0.3816 -0.1217  0.3397
11798TIP3    H156809   5.640   4.746  11.716 -2.5084 -0.3050 -2.1613
11798TIP3    H256810   5.740   4.762  11.604 -0.1907  0.5798 -0.0524
11799TIP3   OH256811   3.212   2.402   1.126  0.6178  0.5898 -0.0444
11799TIP3    H156812   3.230   2.346   1.050  1.7501  1.4531 -0.4581
11799TIP3    H256813   3.131   2.448   1.103  0.1437 -0.2420 -0.0698
11800TIP3   OH256814   3.465   1.103   4.410 -0.6817  0.0346  0.7301
11800TIP3    H156815   3.423   1.090   4.326 -0.5540 -1.0142  0.8143
11800TIP3    H256816   3.425   1.038   4.468 -1.3215  1.2453  1.6977
11801TIP3   OH256817   5.513   6.349   3.912 -0.0356 -0.3673  0.0873
11801TIP3    H156818   5.504   6.310   3.999  0.6800 -0.7861 -0.0171
11801TIP3    H256819   5.479   6.438   3.923  2.4029  0.4914  1.4888
11802TIP3   OH256820   0.297   1.881   1.780 -0.1832  0.4409 -0.3955
11802TIP3    H156821   0.378   1.877   1.730 -0.1154 -0.2224 -0.2357
11802TIP3    H256822   0.288   1.974   1.804  0.3416  0.5727 -0.7096
11803TIP3   OH256823   5.544   4.548   2.249 -0.7125 -0.0448 -0.2346
11803TIP3    H156824   5.554   4.572   2.341 -1.4690  0.4947 -0.2846
11803TIP3    H256825   5.522   4.630   2.205  0.7554 -0.0709 -1.0936
11804TIP3   OH256826   2.456   0.645   3.487 -0.6867 -0.0442 -0.1531
11804TIP3    H156827   2.389   0.586   3.452 -0.3276 -1.6718  1.7484
11804TIP3    H256828   2.536   0.593   3.486 -0.1433  0.7569  0.6031
11805TIP3   OH256829   4.342   4.553   2.641 -0.3742 -0.1911  0.4150
11805TIP3    H156830   4.418   4.498   2.620 -0.5076 -0.6321  1.0885
11805TIP3    H256831   4.363   4.638   2.601  1.3149  0.2547  2.1234
11806TIP3   OH256832   0.412   5.673   4.842 -0.2675  0.2931 -0.4629
11806TIP3    H156833   0.392   5.586   4.805  1.4455 -0.6714  0.7197
11806TIP3    H256834   0.506   5.683   4.829 -0.0468  0.9944  1.3855
11807TIP3   OH256835   6.058   2.163   2.385 -0.2906  0.6668  0.1142
11807TIP3    H156836   6.062   2.259   2.394  1.6762  0.5810  0.4870
11807TIP3    H256837   5.974   2.139   2.425 -0.5011  2.1669  0.6331
11808TIP3   OH256838   6.692   1.577  14.785  0.1352  0.5030  0.0600
11808TIP3    H156839   6.619   1.582  14.846 -1.0397  0.2854 -1.2796
11808TIP3    H256840   6.770   1.586  14.840 -0.7790 -1.6556  1.8395
11809TIP3   OH256841   6.150   6.179   4.088  0.1567  0.2155 -0.2206
11809TIP3    H156842   6.079   6.187   4.024 -0.6944  3.0490  0.9081
11809TIP3    H256843   6.223   6.228   4.049  0.9957 -1.3449 -0.6764
11810TIP3   OH256844   0.518   6.656  12.497 -0.2422  0.4662 -0.2292
11810TIP3    H156845   0.597   6.616  12.531 -0.4632  0.4351  0.2640
11810TIP3    H256846   0.447   6.615  12.547 -0.7471 -0.9299 -1.9768
11811TIP3   OH256847   6.023   6.291   2.285  0.1228  0.3531  0.0915
11811TIP3    H156848   6.008   6.196   2.285 -0.3388  0.3801 -1.9634
11811TIP3    H256849   6.066   6.308   2.369 -0.3751 -1.5656  0.7991
11812TIP3   OH256850   0.648   0.719   2.482  0.4151  0.0999 -0.2715
11812TIP3    H156851   0.671   0.804   2.446  0.9487  0.1488  0.1795
11812TIP3    H256852   0.721   0.662   2.458  0.4741 -0.0169  0.1741
11813TIP3   OH256853   6.580   5.038  16.991 -0.7379  0.5557  0.9354
11813TIP3    H156854   6.658   5.043  16.937 -0.1881 -3.6888  1.0518
11813TIP3    H256855   6.517   4.988  16.939 -1.0847 -1.4653  3.1438
11814TIP3   OH256856   4.052   2.231  15.925  0.3858 -0.2911  0.5069
11814TIP3    H156857   3.962   2.207  15.948  0.2635  1.4751  2.0632
11814TIP3    H256858   4.100   2.229  16.008  1.2445  0.9314  0.0727
11815TIP3   OH256859   3.055   0.207  16.697 -0.0228  0.5798  0.1042
11815TIP3    H156860   3.000   0.176  16.769 -0.1551  0.9631  0.1693
11815TIP3    H256861   2.994   0.241  16.632 -0.0126 -1.1244 -0.8743
11816TIP3   OH256862   1.528   1.391  14.597  0.1551 -0.8612  0.1254
11816TIP3    H156863   1.585   1.343  14.537 -0.5542 -1.4050 -0.1203
11816TIP3    H256864   1.462   1.327  14.625 -1.7890  0.3345 -1.4504
11817TIP3   OH256865   3.852   1.900  15.649 -0.8686 -0.1665 -0.1576
11817TIP3    H156866   3.912   1.851  15.592 -2.0130 -1.7727 -0.0667
11817TIP3    H256867   3.810   1.963  15.591  1.1262  1.2517 -0.1443
11818TIP3   OH256868   3.422   0.844  16.722 -0.1864 -0.2701  0.0103
11818TIP3    H156869   3.388   0.854  16.811 -1.1081  0.0016 -0.3620
11818TIP3    H256870   3.497   0.903  16.719  0.8003 -1.3886  1.0557
11819TIP3   OH256871   2.906   2.348  15.043  0.0648 -0.1298  0.2345
11819TIP3    H156872   2.911   2.305  14.958 -1.3146 -0.5135  0.3197
11819TIP3    H256873   2.882   2.278  15.104 -1.6048  0.6101  0.4795
11820TIP3   OH256874   0.811   4.757   0.655 -0.2641  1.2650  0.3335
11820TIP3    H156875   0.822   4.693   0.726  0.1694  1.0399  0.0684
11820TIP3    H256876   0.780   4.836   0.699 -1.2492  0.7458  0.6165
11821TIP3   OH256877   6.468   5.928   2.527  0.0312  1.1950 -0.5555
11821TIP3    H156878   6.513   6.012   2.540 -0.0194  1.0206  0.8031
11821TIP3    H256879   6.456   5.923   2.432  1.1173  2.1609 -0.7716
11822TIP3   OH256880   1.843   4.301   2.072  0.0917 -0.0897 -0.3320
11822TIP3    H156881   1.794   4.382   2.080  0.4063  0.0322  0.3557
11822TIP3    H256882   1.780   4.232   2.092  0.0058  0.0193 -0.2318
11823TIP3   OH256883   0.102   3.918  15.872  0.4498  0.1984  0.0389
11823TIP3    H156884   0.046   3.856  15.827  1.7146 -0.0201 -1.3076
11823TIP3    H256885   0.128   3.981  15.805  1.9969  0.1422  0.5289
11824TIP3   OH256886   3.147   0.084  12.854  0.4502  0.2656 -0.4795
11824TIP3    H156887   3.075   0.143  12.832  1.4027  1.8551  0.5511
11824TIP3    H256888   3.103   0.001  12.875 -0.8378  0.2155 -2.9879
11825TIP3   OH256889   0.656   1.380   3.120 -0.2099  0.1181 -0.1946
11825TIP3    H156890   0.671   1.407   3.211  0.3343 -1.2073  0.1336
11825TIP3    H256891   0.561   1.376   3.112 -0.2528 -0.4528  0.5395
11826TIP3   OH256892   3.625   0.352   0.594  0.2868  0.0083  0.8893
11826TIP3    H156893   3.678   0.362   0.673 -0.5838 -2.0651  1.8265
11826TIP3    H256894   3.609   0.257   0.588 -0.1403  0.1670 -1.4739
11827TIP3   OH256895   6.384   5.708  16.129 -0.2585 -0.5027 -0.0307
11827TIP3    H156896   6.445   5.775  16.161  1.0701 -1.5178 -0.4039
11827TIP3    H256897   6.322   5.697  16.202 -1.1932  1.8948 -0.3705
11828TIP3   OH256898   3.999   0.963   6.155  0.3473  1.1501 -0.3011
11828TIP3    H156899   3.938   0.890   6.148  0.3981  1.1346 -0.5896
11828TIP3    H256900   3.988   1.011   6.074  0.6572  1.1951 -0.3183
11829TIP3   OH256901   6.413   5.267   2.975 -0.5959 -0.0596  0.0692
11829TIP3    H156902   6.381   5.350   2.940 -0.9282 -0.7748 -1.4209
11829TIP3    H256903   6.404   5.205   2.902  1.6076 -0.9435  0.4609
11830TIP3   OH256904   5.336   4.287  16.214  0.3077 -0.5771 -0.2875
11830TIP3    H156905   5.335   4.225  16.141 -2.6582  0.6233 -1.4309
11830TIP3    H256906   5.418   4.335  16.205  0.7379 -1.5521 -1.8416
11831TIP3   OH256907   0.775   3.702  11.124  0.0282 -0.5234  0.2437
11831TIP3    H156908   0.846   3.673  11.065  1.0337  2.0309  0.0832
11831TIP3    H256909   0.813   3.774  11.174 -1.8162 -0.5321  1.7721
11832TIP3   OH256910   3.144   5.759   4.537  0.1652  0.5917  0.3173
11832TIP3    H156911   3.055   5.731   4.513  0.2421  0.3828  0.2758
11832TIP3    H256912   3.151   5.847   4.502 -0.6912  1.3520  1.9241
11833TIP3   OH256913   0.410   2.501   4.016 -0.5355  0.3085 -0.2181
11833TIP3    H156914   0.489   2.470   4.061 -1.7312 -0.4906  1.4462
11833TIP3    H256915   0.440   2.524   3.928  1.2845 -1.3523 -0.1125
11834TIP3   OH256916   2.111   5.073   1.543 -0.5385 -0.0909 -0.5983
11834TIP3    H156917   2.117   5.118   1.627  1.2266 -0.2302 -0.6112
11834TIP3    H256918   2.075   5.139   1.483  0.1598  0.6702 -0.1971
11835TIP3   OH256919   2.996   3.126   5.520 -0.9535 -0.4473 -0.3008
11835TIP3    H156920   2.979   3.158   5.431 -0.4098  1.2562  0.1618
11835TIP3    H256921   3.069   3.066   5.511  0.1165  0.8854 -0.8432
11836TIP3   OH256922   1.782   0.105  10.889 -1.1241 -0.5265 -0.4101
11836TIP3    H156923   1.851   0.115  10.824 -0.1072  0.1208  0.7305
11836TIP3    H256924   1.781   0.188  10.936 -2.6222 -0.5648 -0.3236
11837TIP3   OH256925   2.682   5.473  17.018 -0.1792  0.4181 -0.0289
11837TIP3    H156926   2.686   5.504  16.927 -1.3411 -0.8235 -0.5436
11837TIP3    H256927   2.723   5.387  17.015 -1.4960 -0.2378  0.3153
11838TIP3   OH256928   3.618   1.258  15.198  0.4848 -0.5680 -0.4257
11838TIP3    H156929   3.551   1.223  15.257 -1.1662 -0.4512 -2.1158
11838TIP3    H256930   3.653   1.334  15.244 -1.6355  0.2724 -0.0589
11839TIP3   OH256931   4.460   6.019  16.814 -0.5326  0.4037 -0.1242
11839TIP3    H156932   4.498   5.973  16.888 -0.7776  0.1603 -0.1452
11839TIP3    H256933   4.379   5.971  16.796 -1.4392  1.5890  0.6475
11840TIP3   OH256934   4.464   0.183  15.405  0.5099 -0.3292  0.4539
11840TIP3    H156935   4.375   0.187  15.372 -0.3257  0.8994  2.6388
11840TIP3    H256936   4.468   0.100  15.453  0.3548 -0.1388  0.8016
11841TIP3   OH256937   5.132   2.195  12.599  0.1800 -0.0401 -0.1043
11841TIP3    H156938   5.153   2.269  12.656 -0.2456  0.4709 -0.6026
11841TIP3    H256939   5.041   2.209  12.574 -0.1297 -1.1073  0.3497
11842TIP3   OH256940   6.566   5.091  15.538 -0.1945  0.0985 -0.3877
11842TIP3    H156941   6.644   5.073  15.484 -1.7505 -1.5925 -2.2653
11842TIP3    H256942   6.496   5.042  15.495 -2.0036  0.2988  2.1062
11843TIP3   OH256943   1.763   6.543  13.740 -0.4156 -0.0913 -0.2288
11843TIP3    H156944   1.700   6.482  13.777  1.5135 -1.3078  1.2887
11843TIP3    H256945   1.847   6.497  13.746  0.6835  1.5645 -1.8552
11844TIP3   OH256946   0.651   6.032   1.410 -0.1822  0.1509  0.4120
11844TIP3    H156947   0.731   6.034   1.358  0.1350  0.1773  0.8950
11844TIP3    H256948   0.632   5.938   1.421 -0.5453  0.1480 -0.1917
11845TIP3   OH256949   5.909   4.427  12.293 -0.2576  0.6024 -0.0939
11845TIP3    H156950   5.941   4.487  12.226 -1.2629  1.0174 -0.2105
11845TIP3    H256951   5.989   4.389  12.330  0.3701 -1.3861 -3.0691
11846TIP3   OH256952   5.581   3.265   3.459 -0.6660  0.8987  0.1391
11846TIP3    H156953   5.633   3.276   3.539 -3.5394 -0.0025  2.2822
11846TIP3    H256954   5.601   3.175   3.431  1.4819  1.7066 -1.1104
11847TIP3   OH256955   0.173   2.866   3.361  0.4399  0.0539  0.3197
11847TIP3    H156956   0.223   2.840   3.283 -1.6921  1.2845 -1.5713
11847TIP3    H256957   0.099   2.916   3.327 -0.2342  1.2450  3.2137
11848TIP3   OH256958   5.650   2.855  13.985  0.3915 -0.1341  0.2531
11848TIP3    H156959   5.736   2.811  13.987  0.6770  0.4058  1.8065
11848TIP3    H256960   5.592   2.792  13.943  1.0356 -1.5556  1.3874
11849TIP3   OH256961   4.351   4.438   0.106 -0.3230 -0.6258  0.3311
11849TIP3    H156962   4.377   4.518   0.061 -2.8927  0.0618 -0.1232
11849TIP3    H256963   4.296   4.392   0.042 -3.1864 -0.1524  2.2383
11850TIP3   OH256964   1.371   4.749   3.908 -0.6507 -0.0168  0.2546
11850TIP3    H156965   1.313   4.697   3.853 -2.4462  0.9017  1.1798
11850TIP3    H256966   1.390   4.692   3.983 -0.6725 -0.1874  0.1313
11851TIP3   OH256967   0.205   4.614  14.569  0.6907  0.3798 -0.6535
11851TIP3    H156968   0.136   4.610  14.502  0.2534  0.8558 -0.2383
11851TIP3    H256969   0.245   4.528  14.566  0.7926  0.4477 -1.6530
11852TIP3   OH256970   5.611   0.754  11.277 -0.4830  0.9090  0.0916
11852TIP3    H156971   5.565   0.731  11.196  1.0480 -0.8878 -0.3208
11852TIP3    H256972   5.638   0.845  11.263 -0.6366  0.7845 -1.2300
11853TIP3   OH256973   2.795   0.966  13.648  0.4094 -0.1931 -0.1048
11853TIP3    H156974   2.828   0.878  13.667  1.3727  0.3916  1.0793
11853TIP3    H256975   2.755   0.958  13.562  3.2372 -1.0917 -1.4558
11854TIP3   OH256976   6.728   4.570   1.086 -0.0372  0.4222 -0.7800
11854TIP3    H156977   6.822   4.581   1.103 -0.1206 -0.2720  0.2036
11854TIP3    H256978   6.687   4.639   1.138 -0.1221  0.1274 -0.4521
11855TIP3   OH256979   6.117   2.435   2.340 -0.0487 -0.0411 -0.2097
11855TIP3    H156980   6.189   2.461   2.283 -0.3906  0.1282 -0.5734
11855TIP3    H256981   6.135   2.477   2.423  1.1361 -1.3152  0.2212
11856TIP3   OH256982   1.146   1.255  16.399  0.0084 -0.2979  0.3919
11856TIP3    H156983   1.189   1.325  16.351  1.1828 -0.7452  0.7722
11856TIP3    H256984   1.055   1.257  16.367  0.5462 -0.0487 -1.2275
11857TIP3   OH256985   4.032   1.756  14.377 -0.5007 -0.4539 -0.2226
11857TIP3    H156986   4.126   1.754  14.398  0.0024 -0.6614 -2.2709
11857TIP3    H256987   3.992   1.802  14.451  1.4065  0.8749  0.0568
11858TIP3   OH256988   4.546   4.854   4.535 -0.6325  0.4802  0.2246
11858TIP3    H156989   4.601   4.916   4.487  2.8735 -1.0210  1.9676
11858TIP3    H256990   4.521   4.788   4.470  0.4373  0.7110 -0.4426
11859TIP3   OH256991   1.305   1.987   5.344  0.6017 -0.0698 -0.3528
11859TIP3    H156992   1.253   1.986   5.264  1.6231  0.7320 -1.0370
11859TIP3    H256993   1.261   2.051   5.400  1.0849  0.9510 -1.1114
11860TIP3   OH256994   4.822   3.010   4.370 -0.0901 -0.2141  0.0313
11860TIP3    H156995   4.785   2.976   4.289  0.2609 -1.4959  0.3945
11860TIP3    H256996   4.770   2.970   4.439 -1.1699  1.8005  0.4502
11861TIP3   OH256997   1.152   4.176  10.713 -0.4838  0.6012  0.3563
11861TIP3    H156998   1.197   4.161  10.630 -1.0719 -0.3508  0.2046
11861TIP3    H256999   1.223   4.188  10.777  0.0293  3.6104 -0.6091
11862TIP3   OH257000   3.872   2.062  17.220 -0.8103  0.1229  0.1568
11862TIP3    H157001   3.956   2.079  17.178  0.1837  1.5619  2.5549
11862TIP3    H257002   3.871   1.967  17.235 -1.0228 -0.3882 -2.5200
11863TIP3   OH257003   4.096   3.758  10.716  0.4561 -0.4148  0.2081
11863TIP3    H157004   4.098   3.845  10.675 -1.3358 -0.1297  0.6757
11863TIP3    H257005   4.183   3.749  10.755  0.6563  1.2197  0.2331
11864TIP3   OH257006   5.502   3.905   4.126  0.4999  0.6333  0.0337
11864TIP3    H157007   5.537   3.821   4.094 -1.2753 -0.1996  0.1595
11864TIP3    H257008   5.575   3.945   4.173  0.7941 -1.8710  1.9246
11865TIP3   OH257009   1.573   6.686  10.606  0.5157 -0.6926 -0.2691
11865TIP3    H157010   1.662   6.651  10.609  0.9713  0.3947 -0.7791
11865TIP3    H257011   1.517   6.608  10.605  1.5384 -1.4973 -2.5468
11866TIP3   OH257012   6.027   6.606  15.338  0.3183  0.0573  0.5811
11866TIP3    H157013   6.047   6.699  15.324 -1.4987  0.2457 -1.3255
11866TIP3    H257014   5.954   6.606  15.399 -0.7186  0.0126 -0.6232
11867TIP3   OH257015   0.980   3.708  11.847  0.1923  0.4149  0.0914
11867TIP3    H157016   1.014   3.743  11.929 -1.0109 -2.0846  1.7911
11867TIP3    H257017   0.927   3.778  11.810 -0.8751  0.9798  2.5118
11868TIP3   OH257018   4.097   3.979  15.875  0.3615  0.1372 -0.3430
11868TIP3    H157019   4.048   3.901  15.848  1.0146 -0.9131  1.3182
11868TIP3    H257020   4.062   4.049  15.820 -2.7886 -0.6094  0.4819
11869TIP3   OH257021   6.190   6.548   5.063 -0.2493 -0.3217  0.6288
11869TIP3    H157022   6.152   6.577   5.146  1.6831 -1.6983  2.0803
11869TIP3    H257023   6.212   6.456   5.077 -0.5258 -0.8090 -1.6880
11870TIP3   OH257024   1.091   1.329   6.466 -0.1530 -0.4876 -0.4477
11870TIP3    H157025   1.051   1.254   6.510  1.0713 -1.7348 -1.3850
11870TIP3    H257026   1.073   1.403   6.525  0.6369 -1.9093  1.7163
11871TIP3   OH257027   4.594   5.716   1.228  0.4644  0.0221  0.2247
11871TIP3    H157028   4.673   5.761   1.259  0.7955  1.0503 -1.8836
11871TIP3    H257029   4.533   5.723   1.301  0.7626  3.3559  0.3411
11872TIP3   OH257030   2.340   1.857   6.483  0.2007  0.0399  0.3789
11872TIP3    H157031   2.279   1.884   6.413 -1.1746 -1.1272  1.0718
11872TIP3    H257032   2.407   1.925   6.483 -0.1445  0.4570 -1.5913
11873TIP3   OH257033   0.359   4.729   1.843  0.0106 -0.3810  0.4427
11873TIP3    H157034   0.306   4.721   1.922 -4.1333  0.9523 -1.8889
11873TIP3    H257035   0.325   4.662   1.784  1.4742  0.0600 -0.9864
11874TIP3   OH257036   5.053   5.046  15.264  0.2895 -0.5271  0.0840
11874TIP3    H157037   4.958   5.032  15.271  0.3118 -0.1895  1.1051
11874TIP3    H257038   5.067   5.136  15.292  0.7409 -0.0188 -1.6629
11875TIP3   OH257039   0.778   1.084  15.674 -0.2411  0.0095 -0.5286
11875TIP3    H157040   0.727   1.163  15.694 -2.0934 -0.7347 -2.0176
11875TIP3    H257041   0.749   1.058  15.587  1.5903 -1.3809 -0.7909
11876TIP3   OH257042   5.737   6.299  16.171  0.0581  0.6254  0.2295
11876TIP3    H157043   5.689   6.217  16.167  1.7312 -0.3404 -1.7068
11876TIP3    H257044   5.744   6.318  16.264  1.4977 -2.6033  0.9028
11877TIP3   OH257045   2.162   1.362  10.775  0.1326 -0.6310 -0.3397
11877TIP3    H157046   2.150   1.289  10.715 -0.6760 -0.0450 -0.9042
11877TIP3    H257047   2.112   1.434  10.736 -2.4000 -0.8537  2.1769
11878TIP3   OH257048   3.246   0.697   2.281  0.0528 -0.1278 -0.2493
11878TIP3    H157049   3.256   0.721   2.189  1.3448  2.0478  0.3914
11878TIP3    H257050   3.267   0.777   2.329  0.0978 -1.4018  1.9801
11879TIP3   OH257051   1.113   1.559   1.943  0.5971 -0.0406  0.0176
11879TIP3    H157052   1.109   1.648   1.907 -0.3133 -0.3665 -0.7617
11879TIP3    H257053   1.023   1.526   1.934  0.4093 -0.3019  2.2542
11880TIP3   OH257054   5.617   4.480  15.491  0.2225  0.0219 -0.5173
11880TIP3    H157055   5.614   4.540  15.416 -1.0613  0.6169 -0.0164
11880TIP3    H257056   5.625   4.538  15.567  0.2477 -0.5089 -0.1118
11881TIP3   OH257057   2.824   4.894   3.931  0.1263 -0.0303 -0.0627
11881TIP3    H157058   2.883   4.834   3.977  1.1720  0.9974 -0.0230
11881TIP3    H257059   2.880   4.938   3.867 -0.1120  2.3976  1.2811
11882TIP3   OH257060   5.585   3.620  12.876 -0.2028 -0.4300 -0.3206
11882TIP3    H157061   5.583   3.713  12.897 -1.6497 -0.5266  0.1072
11882TIP3    H257062   5.674   3.592  12.898  0.3511  0.9009 -0.7610
11883TIP3   OH257063   3.823   0.761  16.607 -0.3121  0.2039  0.5066
11883TIP3    H157064   3.762   0.772  16.534  0.4825 -0.9345 -0.3764
11883TIP3    H257065   3.791   0.822  16.674 -0.7557  1.7181 -0.9783
11884TIP3   OH257066   5.988   6.732   0.246 -0.0570  0.2524 -0.2318
11884TIP3    H157067   6.061   6.756   0.189 -1.1869  1.4671 -1.2139
11884TIP3    H257068   6.022   6.744   0.335  1.2968 -0.3769 -0.6277
11885TIP3   OH257069   2.389   3.890   5.927  0.5182  0.2971 -0.1820
11885TIP3    H157070   2.303   3.891   5.969  1.1552  1.2030  1.1847
11885TIP3    H257071   2.382   3.951   5.855 -0.2599 -0.3943 -0.7097
11886TIP3   OH257072   5.981   0.294   4.465 -0.0485  0.3637  0.2151
11886TIP3    H157073   6.010   0.309   4.555  0.9522  0.7317 -0.1610
11886TIP3    H257074   5.915   0.225   4.473  0.8500 -0.4205  1.0991
11887TIP3   OH257075   2.543   1.653  15.900 -0.0189 -0.4906 -0.4017
11887TIP3    H157076   2.475   1.631  15.835  0.5691  2.3820 -2.1960
11887TIP3    H257077   2.511   1.735  15.939  1.4685 -0.1593  0.1492
11888TIP3   OH257078   4.691   3.913   6.376 -0.0137  0.8205 -0.4449
11888TIP3    H157079   4.767   3.911   6.318 -0.2394  2.1944 -0.8352
11888TIP3    H257080   4.618   3.937   6.318 -0.7420 -0.4011 -0.0657
11889TIP3   OH257081   5.099   3.569  16.853  0.1211 -0.0247 -0.1598
11889TIP3    H157082   5.121   3.496  16.911  0.3349 -0.1984 -0.4558
11889TIP3    H257083   5.009   3.592  16.876 -0.4231 -1.2518 -0.9765
11890TIP3   OH257084   2.526   2.157  12.488  0.0113 -0.4613  0.0082
11890TIP3    H157085   2.494   2.239  12.450 -0.3592 -1.4261 -1.9089
11890TIP3    H257086   2.503   2.090  12.423  0.4192 -2.0762  1.4517
11891TIP3   OH257087   3.897   0.420  14.598  0.0806  0.3907  0.2398
11891TIP3    H157088   3.881   0.440  14.505  0.9173 -0.3723 -0.0748
11891TIP3    H257089   3.872   0.328  14.608  0.2958  0.3810  0.7068
11892TIP3   OH257090   4.473   6.393   3.750 -0.5222  0.2759 -0.2786
11892TIP3    H157091   4.492   6.304   3.781 -1.0451  0.2600  0.0054
11892TIP3    H257092   4.413   6.380   3.676  1.6582  0.2374 -2.1560
11893TIP3   OH257093   2.894   5.930  16.243 -0.1584  0.2685  0.5687
11893TIP3    H157094   2.974   5.880  16.227 -0.4829 -0.0185 -0.2620
11893TIP3    H257095   2.895   5.997  16.175 -0.4193  0.5244  0.8188
11894TIP3   OH257096   3.464   6.397   4.438  0.3140 -0.8282 -0.1178
11894TIP3    H157097   3.373   6.381   4.412  0.6032 -0.0828 -1.7270
11894TIP3    H257098   3.464   6.486   4.473  0.3910 -0.8839  0.0231
11895TIP3   OH257099   4.604   1.760   2.522 -0.0291 -0.1219  0.3776
11895TIP3    H157100   4.573   1.691   2.464  1.1486  0.3069 -0.8211
11895TIP3    H257101   4.689   1.729   2.554  1.9824  1.9087 -2.5249
11896TIP3   OH257102   1.642   1.728   4.435 -0.0986 -0.1205 -0.2466
11896TIP3    H157103   1.688   1.647   4.414  1.1503  0.6473 -0.6443
11896TIP3    H257104   1.573   1.734   4.369 -0.2678 -0.9062 -0.1474
11897TIP3   OH257105   4.707   4.879   0.306 -0.6078  0.0297 -0.4148
11897TIP3    H157106   4.612   4.877   0.295 -0.5910 -1.8970 -0.5134
11897TIP3    H257107   4.720   4.892   0.400 -0.9559  0.6421 -0.4479
11898TIP3   OH257108   1.477   1.717   4.207 -0.3232  0.9598 -0.2473
11898TIP3    H157109   1.408   1.666   4.164 -0.0201  1.5200 -1.4261
11898TIP3    H257110   1.556   1.695   4.158  0.4434  0.0449  1.3120
11899TIP3   OH257111   4.785   0.675   5.546 -0.3010 -0.2382 -0.2650
11899TIP3    H157112   4.786   0.748   5.485 -0.1443 -1.2132 -1.4811
11899TIP3    H257113   4.785   0.715   5.633  1.1085  1.1757 -0.8846
11900TIP3   OH257114   2.185   6.693  12.630 -0.2650 -0.4259 -0.8192
11900TIP3    H157115   2.214   6.621  12.574 -0.6238 -2.0148  0.9446
11900TIP3    H257116   2.131   6.747  12.573  0.3678 -1.2906 -2.3155
11901TIP3   OH257117   1.244   3.057  14.358  0.6998 -0.5653 -0.2343
11901TIP3    H157118   1.186   3.040  14.283 -0.2345 -1.5424  0.6893
11901TIP3    H257119   1.260   2.971  14.396 -0.5757  0.0779  1.9461
11902TIP3   OH257120   4.087   1.714   0.628  0.0232 -0.4734 -0.3914
11902TIP3    H157121   4.177   1.684   0.638  0.6909  1.4519 -0.3807
11902TIP3    H257122   4.079   1.738   0.536 -0.5468 -0.7906 -0.4304
11903TIP3   OH257123   2.433   2.092   0.346  0.3420  0.3059  0.2852
11903TIP3    H157124   2.528   2.085   0.342  0.1982 -2.5580  0.0650
11903TIP3    H257125   2.411   2.079   0.439  0.1250  0.4888  0.2624
11904TIP3   OH257126   6.526   4.523   0.618 -0.5344 -0.0077  0.4881
11904TIP3    H157127   6.500   4.560   0.703  1.3994 -2.1714  2.1622
11904TIP3    H257128   6.512   4.429   0.627  0.9834 -0.4441 -1.0755
11905TIP3   OH257129   4.226   3.912   1.614 -0.6662  0.8506  0.3106
11905TIP3    H157130   4.319   3.923   1.634 -1.1755  0.9383  3.0034
11905TIP3    H257131   4.181   3.932   1.696 -3.0916  0.8894 -0.9300
11906TIP3   OH257132   4.036   5.388  16.283 -0.0036 -0.1709  0.3636
11906TIP3    H157133   4.029   5.311  16.226 -2.8581 -2.0057  2.9087
11906TIP3    H257134   3.981   5.454  16.240 -1.2790 -1.1697  0.3877
11907TIP3   OH257135   5.387   1.929   1.445  0.4195 -0.0734 -0.0925
11907TIP3    H157136   5.417   1.913   1.355 -2.2551 -2.2030 -0.7588
11907TIP3    H257137   5.445   1.876   1.499 -0.4796 -2.1559 -1.0589
11908TIP3   OH257138   1.311   2.160   6.873 -0.0426  0.2634 -0.3463
11908TIP3    H157139   1.252   2.230   6.901 -1.1966 -0.3237 -1.2062
11908TIP3    H257140   1.359   2.198   6.799 -0.8093  0.1126 -0.9396
11909TIP3   OH257141   3.816   5.643  16.886  0.4017  0.7177  0.4483
11909TIP3    H157142   3.732   5.673  16.921  0.9442  1.4508  1.1636
11909TIP3    H257143   3.867   5.723  16.874  0.4251  0.4523 -1.5882
11910TIP3   OH257144   0.441   6.019  13.399 -0.0935 -0.1317  0.3357
11910TIP3    H157145   0.406   6.089  13.453  0.3409 -0.0758  0.5392
11910TIP3    H257146   0.392   5.941  13.426 -0.6496  0.1057  0.0356
11911TIP3   OH257147   3.255   6.352   3.324  0.1166 -0.0810 -0.5708
11911TIP3    H157148   3.256   6.355   3.229 -1.3579  2.4876 -0.5849
11911TIP3    H257149   3.164   6.335   3.347 -0.3345  2.9575  0.3098
11912TIP3   OH257150   2.410   4.116   5.679  0.1577  0.1451 -0.4432
11912TIP3    H157151   2.326   4.129   5.635  0.5521 -0.7440 -1.5179
11912TIP3    H257152   2.451   4.044   5.630  1.4895  0.4833  0.1426
11913TIP3   OH257153   1.743   0.807  14.936 -0.1826  0.2895  0.4420
11913TIP3    H157154   1.813   0.750  14.967 -1.2786 -1.5786 -0.3264
11913TIP3    H257155   1.670   0.788  14.994 -1.1755 -0.6574 -1.0365
11914TIP3   OH257156   2.955   3.427   3.183  0.6744 -0.5784 -0.1016
11914TIP3    H157157   2.913   3.359   3.129 -2.4569 -0.2921  1.7221
11914TIP3    H257158   2.953   3.505   3.128  0.5741 -1.0188 -0.7475
11915TIP3   OH257159   3.715   4.176   3.080  0.5477  0.1878 -0.5382
11915TIP3    H157160   3.806   4.172   3.051  0.8618 -0.0733  0.4543
11915TIP3    H257161   3.710   4.112   3.151 -0.2926  0.5642 -0.2532
11916TIP3   OH257162   4.372   1.789   0.486  0.7567 -0.7646  0.1435
11916TIP3    H157163   4.398   1.740   0.408 -0.0021 -2.1163  0.7079
11916TIP3    H257164   4.354   1.722   0.552 -2.1417  0.1098  0.4004
11917TIP3   OH257165   1.658   0.372  16.062  0.7360 -0.0838 -0.0919
11917TIP3    H157166   1.687   0.394  16.151  3.2033  1.9906 -1.2870
11917TIP3    H257167   1.586   0.433  16.045  0.9961  0.2809  0.1008
11918TIP3   OH257168   6.580   3.264   1.288  0.3952  0.7976 -0.3974
11918TIP3    H157169   6.589   3.214   1.369 -1.3998  2.4833  0.9167
11918TIP3    H257170   6.522   3.210   1.233  1.0577 -0.0173 -0.3298
11919TIP3   OH257171   2.675   4.370   2.972  0.2685 -0.6430 -0.0405
11919TIP3    H157172   2.752   4.425   2.983  1.1972 -1.3961 -2.3773
11919TIP3    H257173   2.708   4.289   2.935 -1.5455 -1.3630 -0.1760
11920TIP3   OH257174   2.160   0.994   6.687 -0.2173  0.2935  0.2367
11920TIP3    H157175   2.130   1.067   6.741  0.6325  1.4344 -0.7737
11920TIP3    H257176   2.254   0.988   6.705 -0.4355 -1.2330  1.0502
11921TIP3   OH257177   3.043   4.914   2.325  0.2310  0.2927  0.0162
11921TIP3    H157178   2.999   4.921   2.240  3.0070  3.7002 -1.3751
11921TIP3    H257179   3.136   4.925   2.304  1.0533  0.9474  3.4915
11922TIP3   OH257180   5.144   6.414   0.939  0.3546  0.4816  0.3587
11922TIP3    H157181   5.163   6.366   1.019  0.8326  2.6117  1.5943
11922TIP3    H257182   5.109   6.348   0.879  0.8821 -1.3492  1.9734
11923TIP3   OH257183   4.864   2.084   4.415 -0.6191  0.2729 -0.3129
11923TIP3    H157184   4.945   2.035   4.406 -0.1807  0.3934  2.1910
11923TIP3    H257185   4.863   2.144   4.340 -0.3993 -2.3602 -2.5599
11924TIP3   OH257186   1.472   3.847  14.175 -0.3602 -0.3419 -0.5401
11924TIP3    H157187   1.489   3.754  14.159 -1.5922 -0.8682  0.8633
11924TIP3    H257188   1.409   3.872  14.107 -1.0829 -0.9465 -0.1234
11925TIP3   OH257189   4.757   4.170   3.475  0.0846 -0.8211 -0.6027
11925TIP3    H157190   4.847   4.137   3.480  0.1649 -0.9168 -2.0941
11925TIP3    H257191   4.762   4.243   3.413 -0.3786  1.0210  1.4160
11926TIP3   OH257192   1.462   3.225  12.453  0.3424 -0.2614  0.0619
11926TIP3    H157193   1.385   3.169  12.444 -0.0246  0.3401 -0.5765
11926TIP3    H257194   1.452   3.267  12.539  1.3650 -2.2583  1.2487
11927TIP3   OH257195   5.214   1.980  13.429 -0.0401 -0.0153 -0.2968
11927TIP3    H157196   5.298   1.938  13.411 -0.3174  0.1320 -2.2046
11927TIP3    H257197   5.216   2.061  13.378 -1.4094 -0.1148 -0.5500
11928TIP3   OH257198   1.798   2.902  10.564  0.0883 -0.0185 -0.9448
11928TIP3    H157199   1.884   2.897  10.606  1.3518  1.8560 -3.0316
11928TIP3    H257200   1.797   2.989  10.523 -3.4855  0.6506  0.2937
11929TIP3   OH257201   4.575   5.633  13.735  0.0893 -0.6141 -0.1874
11929TIP3    H157202   4.639   5.567  13.708  0.1573 -0.6725  0.1133
11929TIP3    H257203   4.564   5.618  13.829  1.3568  0.8631  0.2364
11930TIP3   OH257204   1.675   0.828  15.551  0.4464  0.1341 -0.3371
11930TIP3    H157205   1.627   0.903  15.587  1.0721  0.2579  0.2739
11930TIP3    H257206   1.646   0.754  15.605  1.1820  0.2718  0.2758
11931TIP3   OH257207   6.412   0.371   5.821  0.2696 -0.4105  0.0143
11931TIP3    H157208   6.401   0.323   5.903 -0.6883  0.4952  0.4374
11931TIP3    H257209   6.422   0.463   5.847  1.7403 -0.3158 -0.7960
11932TIP3   OH257210   2.264   4.065   5.200  0.1776 -0.1031  0.0046
11932TIP3    H157211   2.284   3.982   5.242 -0.5673  1.1274  3.0585
11932TIP3    H257212   2.340   4.120   5.218  0.4657  0.0490 -1.5745
11933TIP3   OH257213   6.472   1.422   2.833  0.5783 -1.0636 -0.2179
11933TIP3    H157214   6.525   1.353   2.873 -0.2935 -1.0701  0.9718
11933TIP3    H257215   6.409   1.447   2.901  0.8086  0.8404 -0.6424
11934TIP3   OH257216   4.477   3.581  13.846  0.3412  0.2003  0.0234
11934TIP3    H157217   4.471   3.608  13.937  0.8608  1.3029 -0.2487
11934TIP3    H257218   4.464   3.486  13.848 -2.4008  0.5057  0.9331
11935TIP3   OH257219   4.855   6.008   5.273  0.1251 -0.1666  0.7903
11935TIP3    H157220   4.905   5.980   5.196 -2.1760 -2.2622 -0.0865
11935TIP3    H257221   4.882   6.099   5.288  0.5467  0.4153 -2.6481
11936TIP3   OH257222   1.883   4.676   1.326  0.0991  0.0780  0.2552
11936TIP3    H157223   1.968   4.637   1.307 -0.7033 -2.9386  2.1472
11936TIP3    H257224   1.896   4.725   1.407  0.0691 -0.2966  0.4881
11937TIP3   OH257225   1.910   3.536  12.145 -0.1801  0.0781 -0.1178
11937TIP3    H157226   1.882   3.616  12.099  0.2204 -0.1826 -0.8344
11937TIP3    H257227   1.849   3.469  12.115 -0.4831  0.1045  0.4424
11938TIP3   OH257228   2.767   6.691  14.334  1.0314 -0.5974 -0.4664
11938TIP3    H157229   2.753   6.611  14.283 -0.7253  0.0383 -1.0665
11938TIP3    H257230   2.691   6.695  14.393 -0.5093  2.0011 -2.3913
11939TIP3   OH257231   5.682   1.792   2.378  0.1902 -0.2234  0.4484
11939TIP3    H157232   5.599   1.775   2.423  0.5390 -0.8975  0.8581
11939TIP3    H257233   5.732   1.845   2.439  0.0581  0.1991  0.1930
11940TIP3   OH257234   0.474   0.778   2.686  0.4021  0.0432  0.0059
11940TIP3    H157235   0.536   0.758   2.616  1.4273  0.7634  0.6848
11940TIP3    H257236   0.406   0.831   2.643  0.6851 -0.0603 -0.5811
11941TIP3   OH257237   5.686   3.712   6.262 -0.2262  0.1210  1.0972
11941TIP3    H157238   5.658   3.665   6.184 -0.9635  0.4130  1.1771
11941TIP3    H257239   5.633   3.674   6.333 -1.5326  1.6733  1.0232
11942TIP3   OH257240   3.977   1.289  16.437  0.2416  0.0028 -0.3908
11942TIP3    H157241   3.968   1.227  16.366  0.3283 -1.0385  0.4786
11942TIP3    H257242   4.013   1.238  16.510 -0.7953  0.7895  0.7282
11943TIP3   OH257243   2.357   1.903   4.012  0.5092  0.1920  0.0706
11943TIP3    H157244   2.332   1.829   4.067  0.1449  0.4274  0.2210
11943TIP3    H257245   2.288   1.908   3.946 -0.4853  1.5513  1.1628
11944TIP3   OH257246   6.198   1.637   1.065  0.9426  0.4633  0.1129
11944TIP3    H157247   6.284   1.679   1.064  0.7735  0.8089 -0.5763
11944TIP3    H257248   6.169   1.639   0.973  0.1039  0.5490  0.3709
11945TIP3   OH257249   0.135   2.389   0.022  0.2885  0.5660  0.2675
11945TIP3    H157250   0.146   2.484   0.027  0.3959  0.5985 -0.4411
11945TIP3    H257251   0.041   2.377   0.007  0.2684  0.5590  0.3995
11946TIP3   OH257252   4.783   5.218  15.059  0.4127  0.0775 -0.1578
11946TIP3    H157253   4.782   5.247  15.150 -0.0458  2.9529 -0.9838
11946TIP3    H257254   4.876   5.201  15.041  0.7737  1.4265  0.3175
11947TIP3   OH257255   6.321   0.820  13.130 -0.9800 -0.2919  0.2237
11947TIP3    H157256   6.267   0.756  13.176  1.3978 -1.1003  2.0882
11947TIP3    H257257   6.380   0.767  13.076 -1.7942  0.5658 -1.6003
11948TIP3   OH257258   3.867   2.864   3.923 -0.1337 -0.0514  0.0198
11948TIP3    H157259   3.781   2.847   3.885  0.0939 -1.0177 -0.0793
11948TIP3    H257260   3.928   2.850   3.850  0.0495  1.6512 -0.1941
11949TIP3   OH257261   4.543   5.646  15.993 -0.2247 -0.3625 -0.4141
11949TIP3    H157262   4.579   5.563  15.961 -0.6428 -0.5412 -0.4204
11949TIP3    H257263   4.484   5.621  16.064 -1.0691 -0.1491 -1.0292
11950TIP3   OH257264   4.155   0.012  12.440  0.1472  0.0589 -0.3483
11950TIP3    H157265   4.231   0.066  12.417  1.0455 -0.6590  0.8248
11950TIP3    H257266   4.191  -0.074  12.458 -1.0219 -0.4212 -0.2195
11951TIP3   OH257267   5.734   5.432   4.856  0.0639 -0.4463 -0.3681
11951TIP3    H157268   5.822   5.412   4.888 -0.1206  0.0539  0.4784
11951TIP3    H257269   5.685   5.459   4.934 -0.5232  0.3852 -0.9988
11952TIP3   OH257270   4.906   0.966   6.101  0.0605  0.3276  0.2269
11952TIP3    H157271   4.974   0.926   6.047 -0.1642 -1.1071  0.9703
11952TIP3    H257272   4.851   0.893   6.129  0.2221  0.9783  2.4573
11953TIP3   OH257273   0.862   1.377   6.338 -0.5298 -0.6799  0.4498
11953TIP3    H157274   0.952   1.346   6.352 -0.6833 -1.7009 -0.6801
11953TIP3    H257275   0.807   1.300   6.351 -1.2590 -0.0721  1.0888
11954TIP3   OH257276   6.115   1.408  12.235 -0.6618  0.5286  0.1517
11954TIP3    H157277   6.152   1.335  12.285  1.4555  0.6133 -1.1501
11954TIP3    H257278   6.187   1.471  12.228 -1.3987  1.2504 -1.5672
11955TIP3   OH257279   2.506   1.799   6.770  0.7921  0.1253  0.4717
11955TIP3    H157280   2.411   1.811   6.772  0.7644 -0.0956  0.5638
11955TIP3    H257281   2.518   1.705   6.764  1.0024 -0.0775  2.8181
11956TIP3   OH257282   6.751   5.771   6.158  0.1077 -0.2673  0.2619
11956TIP3    H157283   6.809   5.705   6.195  0.2969  0.8133  1.9970
11956TIP3    H257284   6.722   5.823   6.233  1.0256  2.4714 -1.1413
11957TIP3   OH257285   4.387   2.049  14.346 -0.4888 -0.7596  0.1789
11957TIP3    H157286   4.349   2.133  14.371  0.9179  0.4001 -1.3105
11957TIP3    H257287   4.479   2.055  14.371 -0.1377 -1.4296 -0.8475
11958TIP3   OH257288   5.144   1.393   2.165  0.5586  0.6357 -0.2010
11958TIP3    H157289   5.171   1.444   2.088 -0.0543  0.4312 -0.5603
11958TIP3    H257290   5.192   1.432   2.238  3.1650 -0.7756 -1.0392
11959TIP3   OH257291   2.079   6.101   2.036  0.5379  0.2470 -0.8318
11959TIP3    H157292   2.048   6.132   1.951 -0.1029 -1.5473 -1.3017
11959TIP3    H257293   2.112   6.013   2.019 -2.1381 -1.3140  1.1916
11960TIP3   OH257294   3.900   1.948   2.081 -0.0134  0.4695  0.4013
11960TIP3    H157295   3.957   2.022   2.059  0.4255 -0.2974 -1.2694
11960TIP3    H257296   3.956   1.890   2.132  0.7422 -0.2211 -1.1269
11961TIP3   OH257297   1.137   5.019  13.189 -0.1179  0.3246  0.5094
11961TIP3    H157298   1.076   4.945  13.190 -0.3131  0.4849  0.7862
11961TIP3    H257299   1.080   5.096  13.197 -0.1136  0.6653 -1.9076
11962TIP3   OH257300   1.976   0.649  15.529  0.1323  0.1143 -0.3242
11962TIP3    H157301   2.008   0.560  15.512  1.0926  0.0566  1.5523
11962TIP3    H257302   1.890   0.652  15.487 -0.0626 -1.8014 -0.1585
11963TIP3   OH257303   3.925   2.011   3.396  0.3166 -0.3327  0.0341
11963TIP3    H157304   3.991   2.033   3.330  0.5898 -1.0206  0.0755
11963TIP3    H257305   3.974   1.973   3.468 -0.2354 -2.3105 -0.5589
11964TIP3   OH257306   5.091   5.293  10.938  0.7079  1.1496  0.2070
11964TIP3    H157307   5.143   5.364  10.976  3.2612 -0.0668 -0.8048
11964TIP3    H257308   5.149   5.217  10.939 -1.0061 -0.2779 -1.2081
11965TIP3   OH257309   3.804   0.586  11.694  0.1677  0.7862  0.6235
11965TIP3    H157310   3.893   0.620  11.679  0.9009 -0.6392  1.5102
11965TIP3    H257311   3.814   0.525  11.767 -1.6817  1.0781  1.1576
11966TIP3   OH257312   1.416   4.715  14.847  0.3823  0.0421  0.2212
11966TIP3    H157313   1.469   4.660  14.789  0.8591 -0.6528  1.2849
11966TIP3    H257314   1.406   4.663  14.927 -1.6173  0.3086  0.1882
11967TIP3   OH257315   0.765   2.481  12.137 -0.2683  0.1101 -0.3343
11967TIP3    H157316   0.824   2.486  12.062 -0.5672  0.5272 -0.5487
11967TIP3    H257317   0.776   2.392  12.171  2.7524  1.0548  1.5029
11968TIP3   OH257318   3.181   6.392   0.907  0.0573 -0.3310 -0.6474
11968TIP3    H157319   3.243   6.466   0.910 -1.0598  0.6126  0.0736
11968TIP3    H257320   3.199   6.342   0.986  0.5567 -0.6313 -0.9432
11969TIP3   OH257321   2.336   1.111  15.649 -0.1246  0.2280  0.8090
11969TIP3    H157322   2.395   1.116  15.574 -0.6597  1.0345  0.4230
11969TIP3    H257323   2.309   1.020  15.653 -0.3307  0.2379 -0.1760
11970TIP3   OH257324   3.546   1.122  14.459 -0.5746 -0.2422 -0.4144
11970TIP3    H157325   3.546   1.083  14.546  0.3691  0.4284 -0.0907
11970TIP3    H257326   3.538   1.048  14.399 -1.4621 -0.6892  0.2423
11971TIP3   OH257327   2.616   0.535  13.985 -0.0247  0.0758  0.2666
11971TIP3    H157328   2.600   0.473  13.914  0.6899  2.0678 -1.8012
11971TIP3    H257329   2.694   0.501  14.030  0.5813 -0.3682 -1.0497
11972TIP3   OH257330   6.074   4.027   1.817 -0.0114 -0.1090 -0.1590
11972TIP3    H157331   6.169   4.025   1.832  0.5721 -1.7692 -3.3309
11972TIP3    H257332   6.061   4.096   1.752 -0.9544 -0.1403 -0.0211
11973TIP3   OH257333   3.855   2.416  16.689  0.3466  0.4513  0.0121
11973TIP3    H157334   3.929   2.388  16.742 -0.4800  1.9101  2.0895
11973TIP3    H257335   3.847   2.350  16.621  1.1119 -1.9003  2.0698
11974TIP3   OH257336   2.017   6.157   2.531 -0.9076  0.0774 -0.4244
11974TIP3    H157337   2.013   6.252   2.548 -1.2919 -0.0818  0.4725
11974TIP3    H257338   2.109   6.140   2.512 -0.7166  0.5359  0.0553
11975TIP3   OH257339   2.953   0.110  16.937  0.0390  0.4691  0.0994
11975TIP3    H157340   2.925   0.019  16.949 -2.2560  0.8392 -1.5850
11975TIP3    H257341   2.915   0.157  17.012 -0.2482  0.2822  0.0736
11976TIP3   OH257342   1.455   3.351  16.981 -0.1316 -0.3180  0.0028
11976TIP3    H157343   1.398   3.415  17.024  1.1024 -0.6715  2.2783
11976TIP3    H257344   1.521   3.403  16.936 -1.0980  0.0331 -1.0828
11977TIP3   OH257345   5.177   5.982   3.754  0.1891  0.2555  0.4860
11977TIP3    H157346   5.246   5.921   3.728  0.0002  0.2061  0.0920
11977TIP3    H257347   5.128   5.935   3.821 -2.5038 -1.7630 -2.6297
11978TIP3   OH257348   0.434   3.922   0.553 -0.5570 -0.1990 -0.0274
11978TIP3    H157349   0.399   4.000   0.510  0.5365  0.6494  0.5977
11978TIP3    H257350   0.492   3.882   0.487  0.9840  1.0069  0.5455
11979TIP3   OH257351   5.042   4.320  12.463  0.3930  0.2525 -0.1193
11979TIP3    H157352   5.129   4.285  12.445 -0.8381 -2.4901 -1.1473
11979TIP3    H257353   4.997   4.320  12.378 -2.1060 -2.9613  1.0070
11980TIP3   OH257354   3.336   3.093   6.034  0.2108 -0.1468 -0.3852
11980TIP3    H157355   3.320   2.999   6.037  0.7829 -0.2282  0.6016
11980TIP3    H257356   3.282   3.125   5.961 -0.0652 -1.2150 -0.6581
11981TIP3   OH257357   0.422   3.374   3.477  0.2845  0.1096 -0.1192
11981TIP3    H157358   0.405   3.414   3.562  2.9238  5.1068 -1.5755
11981TIP3    H257359   0.336   3.359   3.439 -0.9620 -2.0656  3.1168
11982TIP3   OH257360   1.767   5.020   0.389 -1.0558  0.2238 -1.2687
11982TIP3    H157361   1.811   5.060   0.315 -1.3160 -0.0216 -1.5596
11982TIP3    H257362   1.673   5.033   0.373 -1.1617 -0.7189 -1.5093
11983TIP3   OH257363   4.078   5.779  15.029  0.9148  0.0631 -0.3814
11983TIP3    H157364   4.096   5.816  15.115 -0.5751 -0.6170  0.2549
11983TIP3    H257365   4.094   5.685  15.040  2.3571  0.1744 -1.3280
11984TIP3   OH257366   2.872   5.629   5.466  0.1015  0.5840 -0.2335
11984TIP3    H157367   2.920   5.619   5.548 -0.1203  0.2731 -0.1393
11984TIP3    H257368   2.939   5.645   5.400  0.3654 -0.2894 -0.1798
11985TIP3   OH257369   6.336   2.595  13.352  0.6840  0.1199  0.9590
11985TIP3    H157370   6.255   2.610  13.401 -0.2821 -3.0291  0.5352
11985TIP3    H257371   6.389   2.672  13.370 -2.8586  3.0465  0.1650
11986TIP3   OH257372   6.413   0.843   0.639 -0.0740  0.0369  0.2340
11986TIP3    H157373   6.434   0.768   0.583  1.2842 -0.6242  1.5381
11986TIP3    H257374   6.332   0.878   0.603 -0.3829 -1.6455 -0.8403
11987TIP3   OH257375   4.131   6.225   2.270 -0.1302  0.3631 -0.6858
11987TIP3    H157376   4.202   6.256   2.214 -0.4210  0.2912 -1.1004
11987TIP3    H257377   4.092   6.305   2.306  1.5013  0.3705  1.2777
11988TIP3   OH257378   1.615   2.964   1.017  0.4454  0.2113 -0.7242
11988TIP3    H157379   1.574   2.975   0.931 -1.2661  0.0457  0.0206
11988TIP3    H257380   1.671   2.887   1.008  0.4199  0.2977 -1.7243
11989TIP3   OH257381   2.192   4.705   6.007 -0.2103 -1.1717  0.7763
11989TIP3    H157382   2.263   4.677   5.951 -0.2733 -0.1165  0.1418
11989TIP3    H257383   2.166   4.626   6.055  0.6571 -1.8014  0.2276
11990TIP3   OH257384   0.141   3.772   3.891  0.4794  0.2796 -0.5749
11990TIP3    H157385   0.234   3.789   3.874  0.3833 -0.1743 -1.5855
11990TIP3    H257386   0.141   3.721   3.972  1.1384 -0.0732 -0.7887
11991TIP3   OH257387   2.363   3.914  11.771  0.2192 -0.6254  0.1028
11991TIP3    H157388   2.291   3.973  11.749  1.3100  0.8858  0.3981
11991TIP3    H257389   2.333   3.868  11.849  0.1665  1.2029  1.2260
11992TIP3   OH257390   0.926   4.495   3.528  0.1879  0.7021  0.4723
11992TIP3    H157391   0.882   4.521   3.447 -0.9163 -1.6223  0.2375
11992TIP3    H257392   0.854   4.481   3.590  0.9289  0.9999  1.4280
11993TIP3   OH257393   0.895   2.891   4.503 -0.1923 -0.0046 -0.1098
11993TIP3    H157394   0.844   2.818   4.537 -2.1985  0.8962 -0.9753
11993TIP3    H257395   0.877   2.890   4.409 -0.1647  1.4911 -0.1564
11994TIP3   OH257396   2.947   3.945  13.654 -0.3220  0.3856 -0.3065
11994TIP3    H157397   2.958   3.858  13.616 -1.0011  0.1899 -0.0623
11994TIP3    H257398   2.974   3.936  13.745  0.2834  0.6054 -0.4566
11995TIP3   OH257399   6.625   3.788   1.167 -0.3741  0.2727  0.2709
11995TIP3    H157400   6.553   3.763   1.225 -0.2823 -1.0149 -0.1427
11995TIP3    H257401   6.625   3.883   1.169 -2.3085  0.3132  0.0078
11996TIP3   OH257402   3.646   5.784  12.719 -0.2545  0.3796  0.1850
11996TIP3    H157403   3.642   5.720  12.648  1.0664 -1.2576  1.5123
11996TIP3    H257404   3.724   5.837  12.700 -1.2629  1.5653 -0.8309
11997TIP3   OH257405   3.758   0.747   2.953  0.2928  0.1077  0.1638
11997TIP3    H157406   3.728   0.721   2.866 -1.2710 -2.2864  1.3003
11997TIP3    H257407   3.839   0.697   2.967  1.0402  1.1827 -0.2283
11998TIP3   OH257408   2.697   3.925  12.566  0.2868  0.3131  0.2365
11998TIP3    H157409   2.655   3.918  12.480  0.3963 -0.0101  0.2053
11998TIP3    H257410   2.639   3.981  12.617  1.0254  1.8484 -0.5410
11999TIP3   OH257411   3.279   4.309   3.031  0.2394 -0.4434 -0.7030
11999TIP3    H157412   3.346   4.242   3.049  0.6963 -0.1393 -1.2288
11999TIP3    H257413   3.330   4.386   3.006 -0.2362  0.5089  1.1751
12000TIP3   OH257414   2.575   3.676   5.947  0.2385 -0.1096  0.2953
12000TIP3    H157415   2.653   3.691   5.894  1.2095 -0.4359  1.5803
12000TIP3    H257416   2.534   3.761   5.955  0.3621  0.0323 -0.5520
12001TIP3   OH257417   5.300   2.564   0.013  0.7633  0.1937  0.3166
12001TIP3    H157418   5.333   2.610  -0.065  1.0023 -0.2882  0.1262
12001TIP3    H257419   5.219   2.523  -0.016  0.2643  0.9425  0.6383
12002TIP3   OH257420   6.279   5.271   1.942  1.0230  0.0008  0.3496
12002TIP3    H157421   6.272   5.294   1.850 -0.4392  1.1531  0.7123
12002TIP3    H257422   6.299   5.177   1.942 -1.0533 -0.4948 -1.1528
12003TIP3   OH257423   3.002   4.455   5.865 -0.2423 -0.3450 -0.1342
12003TIP3    H157424   3.038   4.434   5.951  0.0919 -1.8133 -0.5986
12003TIP3    H257425   2.907   4.444   5.875 -0.1372 -1.4147 -0.1543
12004TIP3   OH257426   2.178   1.790  11.760 -0.3719 -0.2769  0.0419
12004TIP3    H157427   2.106   1.839  11.802 -0.9840 -0.8852 -0.2792
12004TIP3    H257428   2.205   1.846  11.687 -1.7899 -0.8696 -0.9760
12005TIP3   OH257429   1.194   1.477  12.209 -0.3092  0.1647 -0.7132
12005TIP3    H157430   1.176   1.551  12.152 -0.7838  0.5732 -0.0399
12005TIP3    H257431   1.275   1.500  12.254 -0.4492  0.2626 -0.5141
12006TIP3   OH257432   2.931   3.657   6.340  0.3132  0.2460  0.0683
12006TIP3    H157433   2.875   3.620   6.273  0.4289 -0.7351  0.5043
12006TIP3    H257434   2.879   3.727   6.379 -0.5339 -0.5090  0.3228
12007TIP3   OH257435   5.010   3.847   3.105  0.2636  0.0928 -0.2624
12007TIP3    H157436   5.071   3.892   3.163  0.9023 -0.4139 -0.5230
12007TIP3    H257437   4.926   3.852   3.150  0.8108 -0.5812  0.8770
12008TIP3   OH257438   1.858   6.747  16.107 -0.7739  0.3360 -0.7384
12008TIP3    H157439   1.906   6.724  16.186  1.1638  0.5292 -1.7848
12008TIP3    H257440   1.775   6.700  16.114  0.8962 -2.7658 -0.3675
12009TIP3   OH257441   0.495   3.781   1.637 -0.0760  0.0855 -0.1974
12009TIP3    H157442   0.455   3.843   1.576 -0.2278  1.8987  1.6240
12009TIP3    H257443   0.423   3.752   1.693  0.4370  0.3040  0.5983
12010TIP3   OH257444   3.135   1.954  12.800 -0.4167  0.5664 -0.3506
12010TIP3    H157445   3.186   1.950  12.719 -0.6381  1.6442 -0.5550
12010TIP3    H257446   3.057   2.004  12.778 -0.5843  0.6947  0.4795
12011TIP3   OH257447   0.983   0.484   0.548 -0.4258  0.5565  0.7278
12011TIP3    H157448   0.982   0.435   0.465  2.0264  0.0745  0.9098
12011TIP3    H257449   1.064   0.456   0.591 -0.8093  2.0613  2.5330
12012TIP3   OH257450   2.848   5.462   0.676 -0.3993 -0.1562 -0.1764
12012TIP3    H157451   2.867   5.391   0.738  0.3844 -0.6465 -0.9453
12012TIP3    H257452   2.880   5.541   0.719 -0.9305 -0.3184  0.5320
12013TIP3   OH257453   6.474   1.779  15.521 -0.3720 -0.4367 -0.3028
12013TIP3    H157454   6.467   1.713  15.453 -1.4725  1.2878 -1.9469
12013TIP3    H257455   6.398   1.835  15.508  1.1765  1.8987  0.1962
12014TIP3   OH257456   2.358   5.233   5.865  0.1287  0.4305  0.5476
12014TIP3    H157457   2.372   5.316   5.819 -0.5690  0.8380  1.0490
12014TIP3    H257458   2.446   5.198   5.878  0.3503  0.2061 -1.2394
12015TIP3   OH257459   4.920   3.234  15.301  0.7639 -0.7034  0.2368
12015TIP3    H157460   4.857   3.227  15.373  0.3709  1.4121  0.1516
12015TIP3    H257461   4.875   3.194  15.227 -0.6683  1.0768  0.0961
12016TIP3   OH257462   5.355   5.277   1.715  0.1739 -0.9134 -0.0327
12016TIP3    H157463   5.390   5.193   1.685 -0.5424 -1.3773  0.3855
12016TIP3    H257464   5.421   5.310   1.776  0.6254 -1.0061 -0.4695
12017TIP3   OH257465   0.815   2.895  13.947  0.1196 -0.6007 -0.1759
12017TIP3    H157466   0.766   2.913  14.027 -0.2227  0.0197 -0.5208
12017TIP3    H257467   0.833   2.981  13.909  3.4015 -0.6194  1.0531
12018TIP3   OH257468   3.130   5.445   1.241  0.1925 -0.1008 -0.0443
12018TIP3    H157469   3.225   5.433   1.241 -0.0519 -2.4041  0.3694
12018TIP3    H257470   3.106   5.445   1.333 -0.1807  0.9885 -0.1296
12019TIP3   OH257471   1.287   5.353   2.794  0.2377 -0.0470  0.2793
12019TIP3    H157472   1.376   5.381   2.773  0.9169 -2.2286 -0.0582
12019TIP3    H257473   1.277   5.372   2.887  0.9322  0.5113  0.2437
12020TIP3   OH257474   3.950   0.924  12.616  0.0255 -0.2079  0.0530
12020TIP3    H157475   3.887   0.858  12.586 -0.3124  0.2903 -0.3722
12020TIP3    H257476   3.904   0.972  12.684  0.1363 -0.1752  0.1055
12021TIP3   OH257477   3.343   3.565   3.105  0.2523 -0.2826  0.4809
12021TIP3    H157478   3.281   3.569   3.178 -1.0253  1.0597 -0.6158
12021TIP3    H257479   3.360   3.656   3.083  0.6597 -0.6549 -0.8592
12022TIP3   OH257480   1.883   0.542   1.247  0.4688  0.0974  0.1254
12022TIP3    H157481   1.806   0.511   1.295  0.8201  0.1510  0.7406
12022TIP3    H257482   1.947   0.471   1.256  0.3955 -0.0653 -0.6218
12023TIP3   OH257483   1.233   2.274   0.521  0.2014  0.4206 -0.0753
12023TIP3    H157484   1.214   2.183   0.498 -1.4005  0.8909 -0.7507
12023TIP3    H257485   1.301   2.300   0.459  1.3922 -0.5969  0.7735
12024TIP3   OH257486   2.979   1.495  15.255 -0.1793  0.0964 -0.7413
12024TIP3    H157487   2.896   1.488  15.302 -0.0173  1.6061 -0.1870
12024TIP3    H257488   2.956   1.481  15.163 -1.0227  0.3524 -0.5730
12025TIP3   OH257489   2.859   6.553   5.886 -0.2464 -0.5573  0.0545
12025TIP3    H157490   2.830   6.589   5.970 -1.3857  1.1034 -1.0087
12025TIP3    H257491   2.908   6.624   5.845  1.6420 -1.8728 -0.0710
12026TIP3   OH257492   0.191   0.367   6.503 -0.4769 -0.3762  0.1259
12026TIP3    H157493   0.148   0.282   6.489  0.8980 -1.4242  1.8016
12026TIP3    H257494   0.262   0.347   6.564 -0.6900  2.1741  1.3107
12027TIP3   OH257495   6.164   1.824   1.765 -0.0489 -0.2812 -0.2411
12027TIP3    H157496   6.164   1.912   1.729 -0.1888 -0.2897 -0.2646
12027TIP3    H257497   6.245   1.818   1.816 -0.3700  0.0909  0.3261
12028TIP3   OH257498   3.488   2.296  12.050 -0.0595  0.4844 -0.0470
12028TIP3    H157499   3.461   2.311  12.141  0.6853 -0.4705  0.3450
12028TIP3    H257500   3.557   2.230  12.056 -1.0660 -0.7476 -1.4333
12029TIP3   OH257501   1.960   1.600   1.601  0.9209  0.5197 -0.7394
12029TIP3    H157502   1.988   1.516   1.563  0.4680 -0.1103  0.2519
12029TIP3    H257503   1.926   1.576   1.687 -1.7855  1.3681 -1.4792
12030TIP3   OH257504   3.169   5.820  13.625 -0.2371 -0.0229  0.2770
12030TIP3    H157505   3.131   5.901  13.660 -1.8253 -1.6090  2.5081
12030TIP3    H257506   3.097   5.780  13.576  0.1787 -0.6490  0.1749
12031TIP3   OH257507   2.079   0.480   4.370  0.5506  0.3038 -0.0088
12031TIP3    H157508   2.001   0.477   4.314  0.8354  0.4284 -0.4145
12031TIP3    H257509   2.142   0.422   4.327  1.2477  1.4312 -0.5630
12032TIP3   OH257510   1.970   3.573   0.246 -0.3895  0.7272 -0.0545
12032TIP3    H157511   2.058   3.541   0.228 -1.0131 -0.3857 -1.2390
12032TIP3    H257512   1.927   3.577   0.160 -1.9497 -0.1417  0.6463
12033TIP3   OH257513   4.953   0.587   4.947 -0.6386 -0.1454  0.2726
12033TIP3    H157514   4.974   0.679   4.961  0.2081  0.0065 -1.6868
12033TIP3    H257515   4.992   0.542   5.021 -0.4546  0.9899  0.8895
12034TIP3   OH257516   5.937   1.544  14.685  0.1121 -0.0619  0.3395
12034TIP3    H157517   5.860   1.498  14.720 -0.3281 -0.5448 -1.1746
12034TIP3    H257518   5.969   1.487  14.615  1.6659  0.3021  0.7307
12035TIP3   OH257519   4.634   5.126  10.814 -0.1756  0.4016 -0.0249
12035TIP3    H157520   4.586   5.081  10.884  1.5929  0.2258  1.1381
12035TIP3    H257521   4.641   5.060  10.744 -1.6846  0.4775 -0.2821
12036TIP3   OH257522   4.461   3.403  16.613 -0.3571  0.5140 -0.4640
12036TIP3    H157523   4.396   3.356  16.561 -1.6000  1.5729  0.0545
12036TIP3    H257524   4.451   3.495  16.587  0.5805  0.7597 -0.0053
12037TIP3   OH257525   5.757   3.957   6.115  0.0762 -0.1074  0.0934
12037TIP3    H157526   5.697   3.896   6.157 -0.9535  1.0020  0.3209
12037TIP3    H257527   5.825   3.973   6.180  0.3607 -1.0029  0.0261
12038TIP3   OH257528   2.380   1.293   5.000 -0.7095 -0.1874  0.3945
12038TIP3    H157529   2.407   1.255   4.916  1.1321 -1.9988  1.7025
12038TIP3    H257530   2.296   1.250   5.019 -0.3257 -1.0207  0.2422
12039TIP3   OH257531   5.349   1.553   4.127  0.4493 -0.1865 -0.2765
12039TIP3    H157532   5.394   1.620   4.178  0.6734  0.0007 -0.7086
12039TIP3    H257533   5.258   1.582   4.123 -0.0154 -1.2312  1.7006
12040TIP3   OH257534   2.995   1.996   1.683  0.5419  0.3253  0.0133
12040TIP3    H157535   3.036   1.910   1.689 -0.5534 -0.1618  0.9801
12040TIP3    H257536   3.068   2.057   1.674  1.6353 -0.3583  2.9928
12041TIP3   OH257537   4.772   3.255   2.697 -0.1812  0.6993  0.4689
12041TIP3    H157538   4.690   3.218   2.729 -0.5278  0.6485 -0.4326
12041TIP3    H257539   4.837   3.186   2.712  0.0385  1.3073  2.5954
12042TIP3   OH257540   4.753   4.180  15.230  0.5459  0.0400  0.1176
12042TIP3    H157541   4.708   4.101  15.200 -1.3671  0.0798  2.5386
12042TIP3    H257542   4.773   4.163  15.322 -0.4418  2.5425  0.8872
12043TIP3   OH257543   4.194   5.259   4.127  0.0218 -0.0974  0.4205
12043TIP3    H157544   4.209   5.350   4.155  0.2172  0.1185 -0.3764
12043TIP3    H257545   4.101   5.244   4.146 -0.7786  1.2129 -1.9532
12044TIP3   OH257546   4.876   5.813   4.210  0.4812  0.1416 -0.3062
12044TIP3    H157547   4.780   5.818   4.212  0.4569 -0.3223  0.6214
12044TIP3    H257548   4.899   5.814   4.117 -0.4587 -0.2681 -0.5517
12045TIP3   OH257549   2.453   6.401  12.005  0.8918  0.1621  0.6293
12045TIP3    H157550   2.459   6.495  11.986 -0.0830  0.4729  1.7269
12045TIP3    H257551   2.359   6.383  12.009  0.9724 -0.1247  3.6416
12046TIP3   OH257552   0.722   0.641   2.819  0.1340  0.0546 -0.1361
12046TIP3    H157553   0.632   0.669   2.801  0.0513 -0.3912 -0.4392
12046TIP3    H257554   0.763   0.637   2.733  0.2916 -0.2561 -0.0462
12047TIP3   OH257555   4.765   4.329  12.159 -0.4976  0.0850 -0.3721
12047TIP3    H157556   4.796   4.406  12.207  0.7245 -0.5711 -0.0788
12047TIP3    H257557   4.673   4.320  12.186 -0.5495  1.2074 -0.1134
12048TIP3   OH257558   0.062   4.893   5.031  0.0681  0.3184 -0.2759
12048TIP3    H157559   0.133   4.866   4.972 -0.2293  0.1699 -0.5683
12048TIP3    H257560  -0.018   4.864   4.987 -0.3387  2.3203 -0.9828
12049TIP3   OH257561   1.352   0.745   6.428 -0.9062  0.1727 -0.4816
12049TIP3    H157562   1.431   0.695   6.446 -0.6472  0.2033 -1.4660
12049TIP3    H257563   1.281   0.692   6.464 -0.5353 -0.3860 -0.5631
12050TIP3   OH257564   0.207   1.127  14.374 -0.0169 -0.2679  0.2879
12050TIP3    H157565   0.269   1.184  14.421  0.5395  0.2594 -1.0168
12050TIP3    H257566   0.132   1.119  14.433  1.4665 -1.3114  2.1261
12051TIP3   OH257567   1.286   1.218  15.143 -0.7020 -0.4115  0.1390
12051TIP3    H157568   1.229   1.294  15.134  1.7994  1.6385  0.2526
12051TIP3    H257569   1.243   1.162  15.208 -2.1975  1.3454  0.7322
12052TIP3   OH257570   3.451   5.018  12.858  0.2714 -0.0313  0.1395
12052TIP3    H157571   3.489   4.995  12.942  0.1690 -0.2003  0.1417
12052TIP3    H257572   3.484   5.105  12.838  0.3705 -0.0314  0.3100
12053TIP3   OH257573   6.327   0.767  10.797  0.0290  0.3553  0.3140
12053TIP3    H157574   6.405   0.736  10.752  0.6178  0.4115  1.2657
12053TIP3    H257575   6.340   0.861  10.805 -0.1571  0.3695  0.4453
12054TIP3   OH257576   0.360   0.828   2.967  0.3466  0.5595 -0.0315
12054TIP3    H157577   0.397   0.806   2.881  1.7527  0.7209  0.5042
12054TIP3    H257578   0.280   0.877   2.947  0.2150 -0.1203 -1.2379
12055TIP3   OH257579   2.860   5.917  12.082  0.0624  0.0889 -0.0261
12055TIP3    H157580   2.884   5.996  12.131 -0.8639  1.0841 -1.1253
12055TIP3    H257581   2.767   5.929  12.062 -0.2796 -1.6349  0.4003
12056TIP3   OH257582   5.468   4.377   0.580  0.0908 -0.3746 -0.0370
12056TIP3    H157583   5.440   4.459   0.541 -0.0610  0.0358  0.9125
12056TIP3    H257584   5.544   4.351   0.528 -0.5416 -0.2361 -1.0670
12057TIP3   OH257585   5.158   6.213  12.331 -0.1848  0.5024 -1.1866
12057TIP3    H157586   5.250   6.189  12.323 -0.3922 -0.1274 -1.7031
12057TIP3    H257587   5.145   6.228  12.425  0.3170  0.1094 -1.0540
12058TIP3   OH257588   3.010   6.440  12.360  0.4878  0.8884  0.2998
12058TIP3    H157589   2.967   6.461  12.278 -0.2933  0.8921  0.6984
12058TIP3    H257590   3.103   6.434  12.338  0.1847 -0.1746 -0.7893
12059TIP3   OH257591   5.607   1.407  14.514  0.9356 -0.3888 -0.5079
12059TIP3    H157592   5.536   1.356  14.553  0.3996 -0.7956 -1.9697
12059TIP3    H257593   5.601   1.492  14.558  0.0708 -0.6787 -0.0332
12060TIP3   OH257594   0.047   2.839   1.354 -0.9548 -0.1603 -0.1317
12060TIP3    H157595   0.046   2.887   1.437 -1.7926 -0.3619 -0.0168
12060TIP3    H257596   0.126   2.870   1.310 -1.3064  1.0881  0.0782
12061TIP3   OH257597   6.457   3.521   1.084  0.5153 -0.8310  0.1412
12061TIP3    H157598   6.385   3.490   1.139 -0.8337  1.1155 -0.4182
12061TIP3    H257599   6.512   3.444   1.071 -0.3353 -1.8878  2.3049
12062TIP3   OH257600   0.708   3.848  16.329  0.2348 -0.5585  0.3044
12062TIP3    H157601   0.777   3.824  16.391  0.0117 -0.6036  0.5362
12062TIP3    H257602   0.731   3.802  16.249  1.0509  0.2539  0.0561
12063TIP3   OH257603   5.080   6.550  11.903  0.1963 -0.0108 -0.2410
12063TIP3    H157604   5.107   6.509  11.985  0.5917 -1.1767 -0.9348
12063TIP3    H257605   5.019   6.488  11.863  1.6547 -0.4979 -1.8485
12064TIP3   OH257606   3.832   6.630   3.848 -0.3507  0.0945 -0.2687
12064TIP3    H157607   3.902   6.636   3.914 -0.3327  1.6600 -0.3775
12064TIP3    H257608   3.874   6.655   3.766 -0.4818 -1.4070 -0.8304
12065TIP3   OH257609   5.305   2.620   2.692 -0.0527 -0.2257  0.8634
12065TIP3    H157610   5.284   2.538   2.737 -1.2161 -1.8185 -2.2640
12065TIP3    H257611   5.224   2.642   2.646  1.5906  0.1177 -2.0347
12066TIP3   OH257612   2.225   0.651  13.564  0.6285  0.5093  0.0703
12066TIP3    H157613   2.267   0.575  13.523  2.6126  0.7384  1.5210
12066TIP3    H257614   2.241   0.640  13.657 -2.0156  1.0295  0.6551
12067TIP3   OH257615   6.511   5.496  13.913  0.1336  0.0796  0.4177
12067TIP3    H157616   6.520   5.533  13.825 -0.4223  1.1079  0.7811
12067TIP3    H257617   6.598   5.459  13.932  1.0865  2.2085  0.4816
12068TIP3   OH257618   2.726   5.003   0.627  0.3357  0.2436  0.2027
12068TIP3    H157619   2.771   4.923   0.597 -3.0055 -2.1670  1.0076
12068TIP3    H257620   2.645   5.005   0.575 -1.7805  0.4993  3.2503
12069TIP3   OH257621   1.898   1.306  12.512  0.1826 -0.4476  0.0036
12069TIP3    H157622   1.854   1.269  12.589  2.4838 -2.5901  0.4381
12069TIP3    H257623   1.845   1.276  12.438 -1.3716  0.6038  0.6464
12070TIP3   OH257624   3.654   0.410   3.910  0.1709 -0.1073  0.7523
12070TIP3    H157625   3.717   0.340   3.922 -0.1752 -0.7904 -1.0389
12070TIP3    H257626   3.699   0.474   3.854 -0.6404 -0.5623 -0.4679
12071TIP3   OH257627   3.770   1.006   2.018 -0.4710 -0.2315  0.2091
12071TIP3    H157628   3.729   1.081   2.062  0.3215 -0.0536  0.6766
12071TIP3    H257629   3.700   0.966   1.967 -1.1362  0.2599  0.7233
12072TIP3   OH257630   0.688   0.806  11.416  0.0736  0.6705 -0.0229
12072TIP3    H157631   0.605   0.765  11.393  1.1157 -0.9659 -1.0793
12072TIP3    H257632   0.674   0.844  11.502 -1.1549 -1.3874  0.7286
12073TIP3   OH257633   1.439   2.565   1.257 -0.6340 -0.2220 -0.2226
12073TIP3    H157634   1.424   2.498   1.190  0.9574  0.0230 -0.8517
12073TIP3    H257635   1.410   2.646   1.217  0.5218 -0.0409 -0.7275
12074TIP3   OH257636   3.627   4.157  16.813 -0.2433 -0.1711 -0.0746
12074TIP3    H157637   3.718   4.138  16.836  0.1163  2.0554  0.5228
12074TIP3    H257638   3.632   4.207  16.732 -1.0949 -1.6560 -1.0943
12075TIP3   OH257639   3.541   1.870   5.714  0.0400 -0.2283 -0.6441
12075TIP3    H157640   3.596   1.849   5.790  2.2223  0.4592 -1.9392
12075TIP3    H257641   3.558   1.963   5.699 -1.5674  0.0124 -1.0622
12076TIP3   OH257642   4.101   3.020  14.551  0.2812  0.0063 -0.0345
12076TIP3    H157643   4.039   2.999  14.481  2.0974 -0.3226 -1.6648
12076TIP3    H257644   4.142   3.102  14.522  0.9032 -0.0021  0.7867
12077TIP3   OH257645   0.601   1.962  12.767  0.0195 -0.2712 -0.3596
12077TIP3    H157646   0.649   1.918  12.836  1.1964 -0.1803 -1.0898
12077TIP3    H257647   0.509   1.949  12.789  0.3522  0.8394  1.8884
12078TIP3   OH257648   6.345   1.745   5.069 -0.0299  0.1175  0.2374
12078TIP3    H157649   6.414   1.790   5.020 -1.8337  0.0462 -2.5980
12078TIP3    H257650   6.265   1.792   5.045 -1.6942 -3.0883 -1.0219
12079TIP3   OH257651   5.800   2.763  17.180  0.1343  0.3546  0.4667
12079TIP3    H157652   5.727   2.806  17.225 -1.6674 -0.8709 -1.0776
12079TIP3    H257653   5.797   2.798  17.091 -1.7137 -3.0171 -1.0121
12080TIP3   OH257654   2.480   2.386   3.165 -0.1899  0.6285  0.1665
12080TIP3    H157655   2.386   2.401   3.172 -0.4194 -1.2077  1.7449
12080TIP3    H257656   2.520   2.460   3.212 -0.9229  0.4256  1.1305
12081TIP3   OH257657   3.361   4.610   3.813 -0.8055 -0.7878 -0.3211
12081TIP3    H157658   3.360   4.611   3.909  0.3581  1.7009 -0.2381
12081TIP3    H257659   3.282   4.657   3.787  1.1640  2.9889 -0.2874
12082TIP3   OH257660   5.535   2.211  14.770  0.0739  0.3227  0.3152
12082TIP3    H157661   5.567   2.227  14.681 -0.7805 -0.0623 -0.0715
12082TIP3    H257662   5.475   2.137  14.761  0.1171  0.1629  1.2465
12083TIP3   OH257663   1.659   1.243  16.003  0.9028  0.3401 -0.3284
12083TIP3    H157664   1.677   1.204  16.089 -2.2220 -2.4004 -0.7124
12083TIP3    H257665   1.566   1.264  16.005  0.8975  0.8298 -2.8031
12084TIP3   OH257666   3.522   4.201   0.234 -0.1826  0.2984  0.0125
12084TIP3    H157667   3.500   4.291   0.207  1.3643  0.5565 -0.4505
12084TIP3    H257668   3.598   4.211   0.291  0.3560 -0.7596 -0.5006
12085TIP3   OH257669   6.520   3.297   2.976 -0.0362 -0.1381 -0.1059
12085TIP3    H157670   6.515   3.226   2.913 -1.5244  2.1767 -2.8594
12085TIP3    H257671   6.612   3.323   2.977  0.2732 -1.1956 -0.0815
12086TIP3   OH257672   4.390   4.475  15.808 -0.7383  0.2022  0.0129
12086TIP3    H157673   4.430   4.391  15.785 -1.6221 -0.4927  0.9501
12086TIP3    H257674   4.464   4.537  15.808  0.8082 -1.3694  3.4434
12087TIP3   OH257675   6.075   5.102   2.969 -0.4774 -0.3561  0.2552
12087TIP3    H157676   6.044   5.032   2.912 -2.0784  0.4814  0.0485
12087TIP3    H257677   6.051   5.073   3.057 -0.2041 -0.5379  0.2700
12088TIP3   OH257678   1.855   1.094   4.005  0.2903 -0.3240  0.2265
12088TIP3    H157679   1.936   1.084   3.955 -1.2107 -0.5252 -2.3579
12088TIP3    H257680   1.849   1.188   4.022  1.4034 -0.3926  1.1459
12089TIP3   OH257681   5.891   2.543   2.673  0.6291 -0.1172  0.0496
12089TIP3    H157682   5.912   2.608   2.741  0.5187  0.5299 -0.5312
12089TIP3    H257683   5.904   2.459   2.717  4.3588  0.1617 -0.1457
12090TIP3   OH257684   2.589   0.730   1.686 -0.0812 -0.3358 -0.3071
12090TIP3    H157685   2.600   0.705   1.777  0.2872  0.7851 -0.0268
12090TIP3    H257686   2.520   0.797   1.688  1.7602  1.6793 -0.4621
12091TIP3   OH257687   2.977   3.425  13.949 -0.7369 -0.5802 -0.0318
12091TIP3    H157688   3.069   3.439  13.970 -1.3740  2.2478  1.4549
12091TIP3    H257689   2.978   3.383  13.863  1.9240  0.1925 -0.4750
12092TIP3   OH257690   3.024   4.820  14.973  0.5566  0.5279 -0.7466
12092TIP3    H157691   2.999   4.902  14.932  1.3728  0.2535 -1.8290
12092TIP3    H257692   3.062   4.768  14.902 -3.8378 -2.5623 -1.2001
12093TIP3   OH257693   6.690   4.768  15.122  0.2875 -0.1763  0.2056
12093TIP3    H157694   6.680   4.863  15.123  1.9941  0.0494 -0.8586
12093TIP3    H257695   6.617   4.736  15.069 -0.3226  0.5309  0.6140
12094TIP3   OH257696   3.937   1.508   6.556  0.7189  0.8561  0.4425
12094TIP3    H157697   3.945   1.453   6.634 -0.1597  0.6104  0.3701
12094TIP3    H257698   3.957   1.449   6.483 -1.0718  0.3754  0.2995
12095TIP3   OH257699   6.016   3.251   2.082 -0.2241  0.3720 -0.8066
12095TIP3    H157700   6.013   3.258   2.178  3.0020 -1.2348 -0.4519
12095TIP3    H257701   5.935   3.293   2.053 -2.2561 -0.6432  2.6789
12096TIP3   OH257702   3.134   3.384   5.066 -0.7397 -0.3778 -0.2004
12096TIP3    H157703   3.078   3.441   5.013 -1.1406  0.1307  0.7427
12096TIP3    H257704   3.092   3.384   5.153 -0.5926 -1.9003 -0.1168
12097TIP3   OH257705   1.634   5.823   5.166  0.7504 -0.2570 -0.9139
12097TIP3    H157706   1.561   5.798   5.222  1.4278 -1.1712 -0.3947
12097TIP3    H257707   1.708   5.771   5.200  1.3882 -0.1298 -2.0675
12098TIP3   OH257708   6.019   0.270   2.949  0.0693  0.5715  0.3774
12098TIP3    H157709   5.999   0.336   3.015  1.8414  1.7702 -0.1888
12098TIP3    H257710   6.059   0.320   2.877  1.0612 -1.0636 -0.2597
12099TIP3   OH257711   0.261   5.509  11.142  0.2571 -0.6046  0.0837
12099TIP3    H157712   0.315   5.436  11.113  0.4730  0.0943 -1.3711
12099TIP3    H257713   0.324   5.577  11.167  0.0898 -1.2220  2.4810
12100TIP3   OH257714   0.743   2.107   0.400 -0.2351  0.2073  0.1112
12100TIP3    H157715   0.767   2.039   0.463  1.4285  0.8942  0.2744
12100TIP3    H257716   0.803   2.094   0.327 -2.2226 -0.6648 -1.4557
12101TIP3   OH257717   5.171   3.833   1.448 -0.3132 -0.1828 -0.5361
12101TIP3    H157718   5.126   3.832   1.533 -1.1034  0.8827 -0.9277
12101TIP3    H257719   5.199   3.742   1.435 -2.8872 -1.0517 -0.5560
12102TIP3   OH257720   6.273   1.977  14.098 -0.1024 -0.9217 -0.2261
12102TIP3    H157721   6.290   1.963  14.191  0.0122  1.3773  0.1581
12102TIP3    H257722   6.204   1.914  14.077 -1.4675 -0.2297  1.8939
12103TIP3   OH257723   0.118   0.530   1.759  0.4371 -0.0205  0.2884
12103TIP3    H157724   0.182   0.586   1.802 -0.3099  0.3145  0.9901
12103TIP3    H257725   0.062   0.590   1.709 -1.0344  0.0318  1.9026
12104TIP3   OH257726   1.436   3.182  13.492  0.2171 -0.1287  0.5486
12104TIP3    H157727   1.370   3.113  13.500 -1.0545  1.0720  0.8045
12104TIP3    H257728   1.509   3.140  13.446 -1.3129 -1.1182 -1.1330
12105TIP3   OH257729   0.744   3.912  12.416  0.2189  0.0771 -0.0110
12105TIP3    H157730   0.689   3.835  12.427  0.7928 -0.1213  1.7737
12105TIP3    H257731   0.796   3.894  12.338 -0.1977 -1.0018 -0.0536
12106TIP3   OH257732   3.727   3.953  15.952  0.5817 -0.3022 -0.1183
12106TIP3    H157733   3.763   3.994  15.874  0.5029  0.0064  0.0089
12106TIP3    H257734   3.702   3.865  15.923  2.1952 -0.8269 -0.0213
12107TIP3   OH257735   2.180   2.922   2.934 -0.7863 -0.3064 -0.3085
12107TIP3    H157736   2.195   2.947   3.025 -1.5934  1.4737 -0.6228
12107TIP3    H257737   2.237   2.846   2.920 -0.3005 -0.3175  1.5346
12108TIP3   OH257738   1.216   4.821  15.861  0.2905 -0.2838  0.0690
12108TIP3    H157739   1.183   4.895  15.810  0.9643 -1.2867 -1.9164
12108TIP3    H257740   1.166   4.746  15.830  2.7084 -1.4339 -1.3391
12109TIP3   OH257741   0.740   3.430  10.801 -0.1998  0.3613  0.3730
12109TIP3    H157742   0.746   3.525  10.787  0.3371  0.3404  0.4443
12109TIP3    H257743   0.822   3.395  10.766 -0.1243 -0.0119  0.9099
12110TIP3   OH257744   0.332   1.853  12.867  0.1610  0.4486  0.2323
12110TIP3    H157745   0.315   1.942  12.899 -0.3049  0.3120  0.3658
12110TIP3    H257746   0.246   1.818  12.844  0.2743 -0.1764  0.7252
12111TIP3   OH257747   4.786   0.757   6.225  0.0131  0.3821 -0.4413
12111TIP3    H157748   4.863   0.722   6.269 -0.2268  0.4297  0.0218
12111TIP3    H257749   4.717   0.692   6.240 -0.2125  0.6530 -0.2934
12112TIP3   OH257750   3.442   4.691  14.197  0.0966 -0.0045 -0.0490
12112TIP3    H157751   3.460   4.785  14.194  0.6918 -0.1007  0.4687
12112TIP3    H257752   3.494   4.659  14.270 -0.0432 -0.7531 -0.2748
12113TIP3   OH257753   1.306   1.203  11.996 -0.5496  0.1484  0.2013
12113TIP3    H157754   1.350   1.125  12.030  0.5342  0.3842 -0.6173
12113TIP3    H257755   1.285   1.181  11.905 -0.7504  0.5973  0.1389
12114TIP3   OH257756   4.583   4.159  11.940 -0.1931 -0.3317 -0.6339
12114TIP3    H157757   4.639   4.191  11.869  2.3771 -2.3893  0.3166
12114TIP3    H257758   4.508   4.219  11.940  0.4861  0.7222 -3.9659
12115TIP3   OH257759   4.089   0.463  17.203  1.0833 -0.2487 -0.7767
12115TIP3    H157760   4.046   0.487  17.285  1.0071 -0.3525 -0.7861
12115TIP3    H257761   4.023   0.476  17.136  1.5548  1.1640 -1.0057
12116TIP3   OH257762   2.233   5.977  14.942  0.0199 -0.8174  0.2604
12116TIP3    H157763   2.230   6.004  15.034  0.2119  0.2892 -0.0358
12116TIP3    H257764   2.228   6.060  14.893  0.9461 -1.3119 -0.7036
12117TIP3   OH257765   2.464   1.047  11.411 -0.2819 -0.6075 -0.1335
12117TIP3    H157766   2.515   1.053  11.330  2.8773 -0.2500  1.7058
12117TIP3    H257767   2.469   0.955  11.436 -2.4283 -0.9994 -0.9545
12118TIP3   OH257768   1.871   0.904  13.269 -0.3510  0.0272  0.3740
12118TIP3    H157769   1.910   0.890  13.355 -0.5741  0.2354  0.5108
12118TIP3    H257770   1.854   0.998  13.266 -0.5280 -0.0120  0.1804
12119TIP3   OH257771   1.482   0.835  16.210 -0.2342 -0.0140  0.3802
12119TIP3    H157772   1.422   0.906  16.234 -1.0311 -0.8429  0.9170
12119TIP3    H257773   1.569   0.868  16.232 -0.7120  0.2845  1.9525
12120TIP3   OH257774   2.762   2.416  16.351 -0.4930 -0.6122 -0.5649
12120TIP3    H157775   2.788   2.327  16.377  3.8833  0.7659  0.5482
12120TIP3    H257776   2.826   2.441  16.285 -0.7651  2.1631  0.1123
12121TIP3   OH257777   3.827   0.863   2.251  0.3512 -0.0524 -0.4174
12121TIP3    H157778   3.799   0.924   2.182 -1.4205 -1.3380 -0.9147
12121TIP3    H257779   3.892   0.807   2.209 -0.9098 -1.0012 -1.2070
12122TIP3   OH257780   2.808   2.867   1.361  0.3141 -0.4608  0.6642
12122TIP3    H157781   2.887   2.918   1.378  0.6206 -1.0622  1.0810
12122TIP3    H257782   2.824   2.824   1.277 -0.8730  1.8775 -0.8768
12123TIP3   OH257783   3.750   1.106   2.997  0.4718  0.0805 -0.0927
12123TIP3    H157784   3.734   1.053   2.920 -1.1365  0.8790 -0.3488
12123TIP3    H257785   3.822   1.165   2.972 -0.9395  1.2855 -1.5235
12124TIP3   OH257786   2.757   4.938  16.363 -0.3027  0.7557  0.1278
12124TIP3    H157787   2.778   4.847  16.386  0.2033  0.6980 -0.5248
12124TIP3    H257788   2.783   4.945  16.271 -0.4523  1.5334  0.1446
12125TIP3   OH257789   1.397   2.233  14.472  0.3042  0.1435 -0.1151
12125TIP3    H157790   1.447   2.313  14.456 -0.5388  0.3209 -2.1715
12125TIP3    H257791   1.320   2.241  14.414 -1.6636 -0.5163  2.2419
12126TIP3   OH257792   0.355   4.970   1.736 -0.6185  0.5208  0.4728
12126TIP3    H157793   0.354   4.881   1.773 -1.0271  0.5502  0.5337
12126TIP3    H257794   0.289   5.018   1.786 -2.7253  0.0066 -1.6370
12127TIP3   OH257795   0.435   3.524  10.890  0.0332 -0.5535 -0.3420
12127TIP3    H157796   0.456   3.604  10.842 -0.4227  1.7202  2.9453
12127TIP3    H257797   0.339   3.525  10.898  0.1834  0.2968  2.2401
12128TIP3   OH257798   0.676   6.610  12.958 -0.2627 -0.0065  0.0409
12128TIP3    H157799   0.593   6.657  12.959 -0.1968  0.1160  0.6549
12128TIP3    H257800   0.716   6.631  13.043 -0.0881 -0.9084  0.1932
12129TIP3   OH257801   2.336   2.725   3.142  0.0171  0.4281 -0.2472
12129TIP3    H157802   2.311   2.768   3.224  0.1008 -1.1436  0.6454
12129TIP3    H257803   2.422   2.688   3.159 -0.3307 -0.6558 -0.7303
12130TIP3   OH257804   1.323   2.333   5.818  0.6021  0.0616 -0.1513
12130TIP3    H157805   1.349   2.350   5.909  2.3834  1.2242 -0.8141
12130TIP3    H257806   1.315   2.420   5.779 -1.0767 -0.3987 -0.9000
12131TIP3   OH257807   5.393   2.311   1.009  0.0619  0.2226  0.0063
12131TIP3    H157808   5.427   2.227   0.976 -1.4886 -0.7677  0.7815
12131TIP3    H257809   5.391   2.368   0.932 -0.1264 -0.8854 -0.8340
12132TIP3   OH257810   5.262   1.367  15.111 -0.3738  0.0634  0.0984
12132TIP3    H157811   5.307   1.355  15.027 -2.4412 -1.7108 -0.8626
12132TIP3    H257812   5.307   1.440  15.152  2.2561 -0.5278 -1.4945
12133TIP3   OH257813   2.208   1.707  12.141 -0.2863 -0.2218 -0.0825
12133TIP3    H157814   2.255   1.765  12.082 -1.1712  0.1124 -0.4791
12133TIP3    H257815   2.121   1.746  12.149 -1.2834 -2.0322 -1.2223
12134TIP3   OH257816   2.757   6.506  17.191  0.2740  0.0125 -0.0295
12134TIP3    H157817   2.672   6.507  17.234  0.7194  0.4523  0.8731
12134TIP3    H257818   2.819   6.529  17.260  1.2638 -1.4655 -0.3806
12135TIP3   OH257819   5.394   0.495   5.060 -0.1249  0.1099 -0.0421
12135TIP3    H157820   5.327   0.515   4.995  0.9901 -1.8991 -1.9548
12135TIP3    H257821   5.447   0.426   5.019  1.2617 -0.5299  2.6171
12136TIP3   OH257822   1.016   6.200   3.402  0.7300  0.6627  0.2289
12136TIP3    H157823   1.080   6.264   3.434  0.1776  2.3162 -1.7025
12136TIP3    H257824   1.058   6.162   3.324 -0.0759  0.7762 -0.2731
12137TIP3   OH257825   6.430   2.579  13.747 -0.0217  0.0751 -0.4262
12137TIP3    H157826   6.517   2.550  13.771  0.7845  0.4388 -2.6577
12137TIP3    H257827   6.399   2.513  13.685  0.2144  1.7613 -2.4657
12138TIP3   OH257828   5.966   6.245   6.005  1.2828  1.2527 -0.3636
12138TIP3    H157829   6.051   6.215   6.038  0.9575  1.0128  0.2795
12138TIP3    H257830   5.904   6.219   6.073  0.4636 -0.0327 -1.5406
12139TIP3   OH257831   6.525   3.587   1.695  0.9043 -0.4245 -0.2063
12139TIP3    H157832   6.595   3.562   1.634  2.4153  0.6219  0.9988
12139TIP3    H257833   6.571   3.602   1.778 -1.1934 -2.9393  1.5693
12140TIP3   OH257834   6.676   4.583  15.336  0.6280  0.5792 -0.3015
12140TIP3    H157835   6.705   4.662  15.292  1.7849  1.0299  1.1867
12140TIP3    H257836   6.609   4.613  15.397  2.7777  0.9239  2.0656
12141TIP3   OH257837   1.372   0.349  15.582 -0.2686  0.4499  0.0714
12141TIP3    H157838   1.390   0.281  15.648 -0.0015 -0.0927 -0.5473
12141TIP3    H257839   1.347   0.299  15.504 -1.2397  1.1027 -0.0528
12142TIP3   OH257840   3.116   0.380   6.420 -0.0260  0.1302  0.4032
12142TIP3    H157841   3.198   0.346   6.386  0.0913 -0.2736  1.0756
12142TIP3    H257842   3.049   0.320   6.387  0.0475 -0.0472  0.5739
12143TIP3   OH257843   5.775   2.523   5.206 -0.1928  0.3159 -0.4358
12143TIP3    H157844   5.850   2.555   5.256 -0.2943 -0.0512 -0.0419
12143TIP3    H257845   5.730   2.603   5.177  0.1262  0.5349 -0.3334
12144TIP3   OH257846   3.795   6.378   5.051 -0.1498  0.1305 -0.1955
12144TIP3    H157847   3.739   6.362   4.976  1.2339 -0.1799 -1.2036
12144TIP3    H257848   3.847   6.454   5.027 -0.3141  0.5850  0.8301
12145TIP3   OH257849   3.413   4.213   6.398 -0.4694 -0.3988 -0.5296
12145TIP3    H157850   3.344   4.252   6.453 -0.8977 -0.8114 -0.7753
12145TIP3    H257851   3.482   4.190   6.461 -1.1955 -1.4062 -0.0628
12146TIP3   OH257852   6.169   1.134   3.917  0.1707 -0.9815  0.1098
12146TIP3    H157853   6.087   1.084   3.923 -1.1809  0.7683 -2.2508
12146TIP3    H257854   6.217   1.092   3.846 -0.4448  0.2948 -1.0898
12147TIP3   OH257855   3.716   6.104  11.907 -0.1918  0.0989  0.3326
12147TIP3    H157856   3.724   6.009  11.912 -0.2705 -0.0051 -1.1251
12147TIP3    H257857   3.631   6.119  11.865  0.1361  0.7956 -0.1006
12148TIP3   OH257858   0.894   2.823  16.366 -0.1982 -0.3458  0.2886
12148TIP3    H157859   0.843   2.742  16.365  1.1563 -1.2281  0.3180
12148TIP3    H257860   0.940   2.821  16.450 -0.5414  0.7188  0.5133
12149TIP3   OH257861   1.383   1.653   1.378 -0.3186 -0.3159 -0.8714
12149TIP3    H157862   1.435   1.596   1.435 -0.2462  1.3435  0.8326
12149TIP3    H257863   1.314   1.686   1.435  1.0020  3.1172 -1.0107
12150TIP3   OH257864   3.423   3.061  13.767 -0.2369 -0.8155 -0.3032
12150TIP3    H157865   3.340   3.041  13.722 -0.5345 -0.3951  0.0549
12150TIP3    H257866   3.431   3.156  13.761  1.3940 -1.0011 -2.3825
12151TIP3   OH257867   3.778   2.050  16.050 -0.7826  0.7582 -0.8087
12151TIP3    H157868   3.815   1.988  16.112  0.6176  3.4221  1.1927
12151TIP3    H257869   3.698   2.007  16.018 -1.8287 -0.6241  3.1478
12152TIP3   OH257870   6.440   2.669   2.399  0.1255 -0.6245 -0.3187
12152TIP3    H157871   6.475   2.752   2.431  2.1152 -1.2422 -0.6934
12152TIP3    H257872   6.517   2.623   2.364 -0.6843 -3.0652  0.8390
12153TIP3   OH257873   6.497   0.997  15.303 -0.0885  0.1216  0.1696
12153TIP3    H157874   6.542   0.956  15.377 -1.3644  0.8957  1.4149
12153TIP3    H257875   6.434   0.931  15.274  0.4151 -0.1840 -0.2557
12154TIP3   OH257876   1.364   5.378  15.435  0.1753  0.6619 -0.1218
12154TIP3    H157877   1.410   5.452  15.475 -1.7675  0.4869  2.8164
12154TIP3    H257878   1.402   5.301  15.477 -1.9575  0.4656  1.6165
12155TIP3   OH257879   0.102   6.479   1.430  0.1481  0.6725  0.3140
12155TIP3    H157880   0.098   6.524   1.514 -1.5787 -1.1316  1.2591
12155TIP3    H257881   0.126   6.389   1.452 -1.6459 -0.1577 -0.9570
12156TIP3   OH257882   6.165   2.747   1.230 -0.4625 -0.2257 -0.2362
12156TIP3    H157883   6.145   2.839   1.241  2.3346  0.2923  1.4475
12156TIP3    H257884   6.125   2.724   1.146 -2.0737  2.2158 -0.2327
12157TIP3   OH257885   5.283   6.285   5.703 -0.5541 -0.3807 -0.0089
12157TIP3    H157886   5.356   6.223   5.694 -0.1721 -0.1982  1.5318
12157TIP3    H257887   5.230   6.250   5.774  0.4966  1.7820  1.9686
12158TIP3   OH257888   4.736   2.513  13.839  0.1362 -0.4246 -0.1624
12158TIP3    H157889   4.810   2.479  13.889 -0.0161  0.5481  0.7550
12158TIP3    H257890   4.776   2.559  13.765  0.4404 -0.3473  0.0485
12159TIP3   OH257891   1.209   5.041   3.073  0.0921  0.0725  0.3674
12159TIP3    H157892   1.238   4.978   3.139  1.9857 -1.7517 -2.0293
12159TIP3    H257893   1.262   5.119   3.089 -0.3683  0.1297  1.7259
12160TIP3   OH257894   2.729   2.869  14.081 -0.0735  0.7198  0.2232
12160TIP3    H157895   2.759   2.900  14.167 -0.5914 -0.7570  0.9624
12160TIP3    H257896   2.760   2.936  14.020  1.3786  1.1901  1.4068
12161TIP3   OH257897   0.425   0.279   6.659 -0.1888  0.2604  0.1789
12161TIP3    H157898   0.501   0.295   6.716  0.3117 -0.0350 -0.3862
12161TIP3    H257899   0.463   0.243   6.579 -1.1026 -2.7052  0.9275
12162TIP3   OH257900   4.282   2.099  15.547  0.3189 -0.0327  0.4261
12162TIP3    H157901   4.326   2.043  15.484 -2.7999 -0.6038 -1.4717
12162TIP3    H257902   4.210   2.046  15.581  0.3276  1.1705  2.5025
12163TIP3   OH257903   2.039   5.967  12.226 -0.6562 -0.6056  0.4835
12163TIP3    H157904   2.094   5.888  12.225 -0.3360 -0.3829  0.4392
12163TIP3    H257905   1.982   5.956  12.150  0.8871  0.2431 -0.8786
12164TIP3   OH257906   0.777   0.228   4.136 -0.0749 -0.6695 -0.1599
12164TIP3    H157907   0.808   0.142   4.166 -0.5327 -1.7650 -2.5482
12164TIP3    H257908   0.683   0.227   4.154 -0.2731 -1.1542 -1.1203
12165TIP3   OH257909   0.316   6.578  14.295  0.3863  0.6191 -0.2290
12165TIP3    H157910   0.277   6.590  14.209  1.3936  1.4866 -0.5939
12165TIP3    H257911   0.329   6.484  14.303  1.5467  0.6180 -1.6327
12166TIP3   OH257912   3.153   0.456   1.887 -0.7097 -0.7587  0.0198
12166TIP3    H157913   3.136   0.499   1.803  1.7500  3.2539  1.3279
12166TIP3    H257914   3.191   0.372   1.863 -1.9503 -0.6412 -2.8028
12167TIP3   OH257915   5.932   4.879  12.290 -0.5275 -0.2718  0.5145
12167TIP3    H157916   6.000   4.814  12.308 -0.8134 -1.7648 -3.0838
12167TIP3    H257917   5.864   4.860  12.354  1.0497 -0.8635  2.0993
12168TIP3   OH257918   0.484   2.821  12.980  0.1700  0.0721  0.0169
12168TIP3    H157919   0.445   2.908  12.968 -0.7262 -0.5487 -2.0143
12168TIP3    H257920   0.443   2.788  13.060 -0.5641  0.9798  0.0384
12169TIP3   OH257921   4.366   3.873   3.105  0.0660 -0.4127  0.3078
12169TIP3    H157922   4.306   3.875   3.031 -0.6541  0.1260  0.8916
12169TIP3    H257923   4.372   3.780   3.128 -0.2977 -0.5039  0.0422
12170TIP3   OH257924   5.875   0.331  11.442  0.2050 -0.5101  0.1319
12170TIP3    H157925   5.867   0.423  11.419  2.4902 -0.1812  0.4259
12170TIP3    H257926   5.817   0.320  11.518  0.2173  0.7658  0.3438
12171TIP3   OH257927   5.886   0.086   5.756 -0.2232 -0.4229 -0.0861
12171TIP3    H157928   5.957   0.093   5.820 -0.8340  0.4177  0.5305
12171TIP3    H257929   5.809   0.117   5.804 -1.1098 -1.8196 -0.5735
12172TIP3   OH257930   2.305   3.201  12.039 -0.1131  0.0279 -0.3371
12172TIP3    H157931   2.282   3.128  11.983 -1.8539 -0.4138  0.8886
12172TIP3    H257932   2.312   3.163  12.127  0.9728  0.9891  0.0282
12173TIP3   OH257933   2.515   6.759   4.637 -0.0742  0.6988 -0.3853
12173TIP3    H157934   2.531   6.844   4.597 -2.5954  0.8713 -1.2217
12173TIP3    H257935   2.494   6.778   4.728 -0.6068  0.9958 -0.5653
12174TIP3   OH257936   5.928   1.698   2.634  0.0260  0.1113  0.6487
12174TIP3    H157937   5.999   1.759   2.615 -1.3086  0.8543 -2.6046
12174TIP3    H257938   5.915   1.650   2.553 -1.0799 -2.3146  2.1594
12175TIP3   OH257939   2.771   5.168  14.356  0.0088  0.1549  0.1435
12175TIP3    H157940   2.691   5.220  14.350 -1.1793 -1.6967 -0.6349
12175TIP3    H257941   2.757   5.093  14.298  1.0076 -1.8743  2.3355
12176TIP3   OH257942   4.298   6.360   3.191 -0.1061 -0.0697 -0.1922
12176TIP3    H157943   4.377   6.328   3.234 -0.2083 -1.3677 -0.9187
12176TIP3    H257944   4.283   6.299   3.119 -2.5560 -0.7031  0.7418
12177TIP3   OH257945   0.882   1.555  17.183 -0.2483 -0.3267  0.3382
12177TIP3    H157946   0.959   1.608  17.203  0.0812 -0.8287  0.4024
12177TIP3    H257947   0.916   1.468  17.163 -0.9598 -1.4056  3.3339
12178TIP3   OH257948   6.369   2.488   4.128  0.8351  0.1694 -0.1268
12178TIP3    H157949   6.443   2.521   4.179  0.5303  2.8264 -1.2588
12178TIP3    H257950   6.346   2.560   4.069 -0.8499 -1.6111 -1.7990
12179TIP3   OH257951   2.811   3.521   0.484  0.7637  0.3822  0.2577
12179TIP3    H157952   2.741   3.579   0.514 -0.8499 -0.8533 -0.9230
12179TIP3    H257953   2.791   3.437   0.526  0.2418 -0.5499 -1.7376
12180TIP3   OH257954   5.045   1.697   0.302 -0.2001 -0.2820 -0.0489
12180TIP3    H157955   4.969   1.659   0.260 -0.6970  0.2295  0.3696
12180TIP3    H257956   5.105   1.624   0.315 -0.2203 -0.5266 -1.2213
12181TIP3   OH257957   6.407   0.314   5.206 -0.3198  0.5965 -0.4308
12181TIP3    H157958   6.348   0.368   5.153  0.6571  0.8043 -1.3459
12181TIP3    H257959   6.382   0.333   5.297 -1.6376  0.6751 -0.7849
12182TIP3   OH257960   2.304   1.455  16.396 -0.3399 -0.0268 -0.1663
12182TIP3    H157961   2.329   1.547  16.391 -0.4629  0.0662  0.7444
12182TIP3    H257962   2.255   1.439  16.316  0.7739  0.3539 -0.9474
12183TIP3   OH257963   4.490   2.082   0.332  0.3807 -0.2113  0.4306
12183TIP3    H157964   4.394   2.078   0.334  0.2312  2.0427  1.7215
12183TIP3    H257965   4.509   2.164   0.287  1.8767 -2.0534 -2.5836
12184TIP3   OH257966   4.613   4.275  15.745 -0.9156  0.4331  0.9155
12184TIP3    H157967   4.612   4.296  15.838  0.6396  0.7269  0.8848
12184TIP3    H257968   4.653   4.189  15.740 -2.2141 -0.1763  0.6004
12185TIP3   OH257969   3.901   3.492   0.933  0.0809  0.4384  0.4280
12185TIP3    H157970   3.993   3.515   0.923  0.4225 -1.3627 -1.2079
12185TIP3    H257971   3.855   3.576   0.936  1.6328  1.3677 -0.4874
12186TIP3   OH257972   3.922   6.557   2.913  0.3986 -0.1184  0.6521
12186TIP3    H157973   3.964   6.498   2.976 -1.2237 -1.0046  0.9487
12186TIP3    H257974   3.871   6.499   2.857  0.8457  0.7840 -0.7285
12187TIP3   OH257975   4.804   4.506  16.527 -0.2882 -0.4151  0.3188
12187TIP3    H157976   4.731   4.562  16.553  0.5198  0.1677  1.4659
12187TIP3    H257977   4.770   4.417  16.534 -0.9705 -0.1430  0.5805
12188TIP3   OH257978   0.551   2.257  17.097  0.0412  0.0320 -0.2642
12188TIP3    H157979   0.632   2.302  17.124 -0.2478  0.7825 -0.6032
12188TIP3    H257980   0.560   2.169  17.131  1.0927  0.0481 -0.4495
12189TIP3   OH257981   1.368   4.325  16.890 -0.4558  0.0694 -0.1845
12189TIP3    H157982   1.298   4.344  16.827  0.4516  0.5237 -1.0980
12189TIP3    H257983   1.448   4.333  16.838  0.2456 -0.9095  0.7308
12190TIP3   OH257984   3.165   6.160   2.309  0.2215  0.2228 -0.0381
12190TIP3    H157985   3.233   6.206   2.261 -0.6333  2.3476  0.6611
12190TIP3    H257986   3.147   6.216   2.385 -3.3965  0.6584 -1.0162
12191TIP3   OH257987   1.789   5.910  14.918 -0.3587 -1.0953 -0.4821
12191TIP3    H157988   1.816   5.978  14.857  0.1819 -1.5226 -0.7321
12191TIP3    H257989   1.711   5.871  14.878 -2.1283  0.9193  0.8094
12192TIP3   OH257990   5.533   6.082   3.747  0.1840 -0.3387  0.3002
12192TIP3    H157991   5.545   6.086   3.842  2.8160  1.3004 -0.0088
12192TIP3    H257992   5.484   6.162   3.726  0.3241 -0.2818  0.1914
12193TIP3   OH257993   1.553   5.335   1.168 -0.1055 -0.6210  0.3319
12193TIP3    H157994   1.559   5.288   1.251 -0.0915  1.2347  1.4465
12193TIP3    H257995   1.465   5.315   1.136 -0.2484 -1.0792  0.9874
12194TIP3   OH257996   1.916   1.739  14.647  0.1649 -0.0153 -0.2322
12194TIP3    H157997   1.843   1.691  14.686  0.5329  0.0835  0.6136
12194TIP3    H257998   1.900   1.830  14.671 -0.2111  0.2216 -1.3186
12195TIP3   OH257999   2.927   2.257  13.081 -0.3554 -0.5174  0.3877
12195TIP3    H158000   2.940   2.274  12.988  1.6353  0.5235  0.8044
12195TIP3    H258001   2.939   2.342  13.123 -1.2317 -0.9644  1.6157
12196TIP3   OH258002   4.402   2.742  16.126 -0.0468  0.2381  0.1491
12196TIP3    H158003   4.333   2.809  16.122 -1.0339 -0.6103  1.6503
12196TIP3    H258004   4.464   2.766  16.058 -2.2437  0.5989 -1.8422
12197TIP3   OH258005   1.997   1.340   2.503  0.2138 -0.7948 -0.5225
12197TIP3    H158006   2.068   1.374   2.449  0.2853 -1.1901 -0.6764
12197TIP3    H258007   2.039   1.317   2.586 -0.1300  1.1408  0.2451
12198TIP3   OH258008   0.151   1.103  12.556  0.2159  0.2327  0.1955
12198TIP3    H158009   0.128   1.178  12.500  0.0096  1.8344  2.3125
12198TIP3    H258010   0.069   1.080  12.600  0.1827 -1.5712 -0.7322
12199TIP3   OH258011   0.461   6.129   2.660 -0.9595  0.2562  0.7229
12199TIP3    H158012   0.480   6.155   2.570 -0.0597  1.3136  1.1963
12199TIP3    H258013   0.521   6.181   2.713 -1.1304 -0.7230  1.9102
12200TIP3   OH258014   1.492   0.172   3.406  0.6472 -0.1493 -0.0579
12200TIP3    H158015   1.535   0.116   3.472  2.1077 -0.7687 -1.4771
12200TIP3    H258016   1.409   0.128   3.389  1.1797 -1.1468 -0.1505
12201TIP3   OH258017   6.411   3.047  12.228  0.2417  0.0779  0.1043
12201TIP3    H158018   6.381   3.003  12.149  2.5242 -2.8604  0.7167
12201TIP3    H258019   6.405   3.141  12.207 -0.6690 -0.5542 -2.9248
12202TIP3   OH258020   6.214   4.790   6.170 -0.5422 -0.5595 -0.0055
12202TIP3    H158021   6.125   4.799   6.135  0.1219  0.7273 -1.4804
12202TIP3    H258022   6.267   4.761   6.095  0.3595 -1.0004  0.7726
12203TIP3   OH258023   2.988   2.183  12.167 -0.3512 -0.3869  0.3349
12203TIP3    H158024   2.954   2.140  12.088 -0.0800  0.9982 -0.5778
12203TIP3    H258025   2.913   2.233  12.201 -0.8300 -1.9507  1.7163
12204TIP3   OH258026   4.035   2.281   1.381  0.5785 -0.2675  0.3666
12204TIP3    H158027   4.097   2.339   1.424  0.0315  0.9352 -0.4020
12204TIP3    H258028   4.082   2.247   1.305  0.1395  1.1747 -0.6031
12205TIP3   OH258029   3.618   1.523  17.038  0.3755  0.0387 -0.3802
12205TIP3    H158030   3.597   1.457  16.972 -0.8571  1.5434 -1.5950
12205TIP3    H258031   3.547   1.516  17.102 -0.8945  1.3708 -1.5311
12206TIP3   OH258032   4.442   2.877  10.711 -0.2949  0.1414 -0.9338
12206TIP3    H158033   4.509   2.920  10.764 -1.4511 -0.3477  0.9789
12206TIP3    H258034   4.363   2.929  10.726 -1.1110 -1.1728 -0.5857
12207TIP3   OH258035   6.488   6.763   2.572 -0.4739 -0.0599 -0.1635
12207TIP3    H158036   6.498   6.840   2.628 -1.1526 -0.8264  1.0377
12207TIP3    H258037   6.533   6.787   2.491  2.7966  0.0972  1.5728
12208TIP3   OH258038   2.137   3.247   4.840  0.6844  0.1410 -0.2633
12208TIP3    H158039   2.158   3.337   4.816  0.4433  0.4856  0.7820
12208TIP3    H258040   2.188   3.229   4.918  0.6170 -0.5845 -0.3715
12209TIP3   OH258041   1.980   4.831   1.527  0.0667  0.8575 -0.1880
12209TIP3    H158042   2.009   4.768   1.593  0.2406  0.1751 -0.9151
12209TIP3    H258043   2.029   4.911   1.548  2.2653 -0.1576 -1.1720
12210TIP3   OH258044   6.289   1.040  13.907 -0.1887  0.0399  0.1201
12210TIP3    H158045   6.344   1.086  13.969  1.7619  0.0622 -1.5227
12210TIP3    H258046   6.335   1.048  13.823 -1.6665 -1.6992 -0.9449
12211TIP3   OH258047   4.859   3.598  15.907  0.2520  0.2726  0.9662
12211TIP3    H158048   4.933   3.637  15.861  0.7837 -0.1596  1.4529
12211TIP3    H258049   4.790   3.593  15.840  0.8198  0.2165  0.3755
12212TIP3   OH258050   6.765   0.945   1.798  0.3246  0.3253 -0.1343
12212TIP3    H158051   6.826   0.968   1.728 -0.9178  2.0283 -0.7279
12212TIP3    H258052   6.767   1.021   1.856 -0.1286 -0.2390  0.6295
12213TIP3   OH258053   0.584   2.208   3.474 -0.8061 -1.2675  0.0151
12213TIP3    H158054   0.519   2.259   3.520 -2.0793 -2.6760 -0.1599
12213TIP3    H258055   0.566   2.224   3.381 -0.7090 -1.4324 -0.0329
12214TIP3   OH258056   6.767   2.208   5.334  0.5712 -0.2157 -0.1598
12214TIP3    H158057   6.858   2.180   5.324  0.0212 -2.1081 -0.2360
12214TIP3    H258058   6.733   2.154   5.406 -0.6975 -0.0896 -0.6387
12215TIP3   OH258059   4.605   6.438  16.354 -0.1913 -0.1910 -0.1467
12215TIP3    H158060   4.590   6.344  16.367 -0.4091 -0.5624 -2.5870
12215TIP3    H258061   4.532   6.480  16.399 -2.1214 -1.4229 -1.9243
12216TIP3   OH258062   3.080   6.629  13.226 -0.5038 -0.2947 -0.4798
12216TIP3    H158063   3.035   6.569  13.287  2.2033 -2.4671 -0.4315
12216TIP3    H258064   3.115   6.571  13.158  0.4258  1.5520 -1.6310
12217TIP3   OH258065   3.647   0.906  13.124  0.4056  0.0471  0.1247
12217TIP3    H158066   3.586   0.849  13.170 -0.3154  2.6586  2.7159
12217TIP3    H258067   3.719   0.920  13.186  1.9594 -0.1740 -1.5192
12218TIP3   OH258068   4.887   1.865   4.632 -0.0601  0.1619  0.2160
12218TIP3    H158069   4.829   1.837   4.703  0.5681 -0.3093  0.5501
12218TIP3    H258070   4.929   1.944   4.665  0.3330 -0.1327  0.4271
12219TIP3   OH258071   6.674   2.564   3.356 -0.1105 -0.0372  0.3752
12219TIP3    H158072   6.591   2.593   3.394 -1.3369 -1.5667 -0.9796
12219TIP3    H258073   6.693   2.627   3.287 -0.9510 -0.4871 -0.2845
12220TIP3   OH258074   3.326   0.055  13.673  0.2718  0.0146 -0.2744
12220TIP3    H158075   3.237   0.041  13.706  0.7232 -1.1533  0.4905
12220TIP3    H258076   3.344  -0.021  13.618  0.3898  0.8172 -1.3759
12221TIP3   OH258077   0.326   0.978  11.350  0.5063 -0.0038  0.1971
12221TIP3    H158078   0.394   0.926  11.392  0.8405  0.3674  0.1192
12221TIP3    H258079   0.289   1.031  11.421  0.1654 -0.3432  0.2760
12222TIP3   OH258080   3.312   0.024   4.204 -0.7385 -0.3259  0.1451
12222TIP3    H158081   3.284   0.052   4.117 -0.8747 -0.1595  0.2420
12222TIP3    H258082   3.331   0.106   4.250 -0.9928 -0.3978  0.3815
12223TIP3   OH258083   3.322   6.061   0.988  0.4572 -0.3147 -0.1062
12223TIP3    H158084   3.327   5.969   0.962  2.8674 -0.0549 -0.8404
12223TIP3    H258085   3.412   6.083   1.013 -0.1837  1.6936  0.6112
12224TIP3   OH258086   1.541   3.109   3.730 -0.2822  0.0405 -0.1866
12224TIP3    H158087   1.545   3.190   3.678  0.3804  0.0349 -0.1551
12224TIP3    H258088   1.601   3.050   3.685  1.3157  0.4592  1.2940
12225TIP3   OH258089   5.612   5.114   2.970  0.1080  0.1408  0.1784
12225TIP3    H158090   5.558   5.181   2.927 -0.3186 -1.3369 -1.6953
12225TIP3    H258091   5.667   5.079   2.901  1.1679 -0.6708  1.3821
12226TIP3   OH258092   3.343   5.827  14.223 -0.2112  0.4559 -0.3324
12226TIP3    H158093   3.275   5.832  14.290  0.2538 -0.6374  0.2400
12226TIP3    H258094   3.408   5.891  14.250 -0.3327  0.4783 -0.0942
12227TIP3   OH258095   0.777   2.272   4.896  0.1948 -0.2612 -0.1762
12227TIP3    H158096   0.772   2.241   4.806 -1.8587 -0.1247 -0.1640
12227TIP3    H258097   0.804   2.364   4.888 -2.3661  0.5102 -0.9039
12228TIP3   OH258098   6.762   4.361   6.401  0.6119 -0.6474 -0.2708
12228TIP3    H158099   6.857   4.377   6.400  0.6796 -1.0083  0.1776
12228TIP3    H258100   6.754   4.266   6.403  0.2418 -0.6119  0.0256
12229TIP3   OH258101   6.278   4.592   5.616 -0.1164 -0.0429  0.2136
12229TIP3    H158102   6.234   4.537   5.551  0.4383 -1.8068  1.2710
12229TIP3    H258103   6.208   4.624   5.672 -0.1867 -3.4942  2.3905
12230TIP3   OH258104   6.426   4.878   2.956  0.2859  0.6349  0.1125
12230TIP3    H158105   6.484   4.951   2.977  1.4830  0.1475 -1.2739
12230TIP3    H258106   6.485   4.804   2.941 -0.8304 -0.3616  0.4694
12231TIP3   OH258107   2.058   3.397  15.588 -0.5591  0.3391  0.3977
12231TIP3    H158108   2.116   3.329  15.554 -0.3032  1.1302 -0.8020
12231TIP3    H258109   1.981   3.393  15.531 -1.1673  0.1219  1.2131
12232TIP3   OH258110   1.370   6.230   3.334 -0.0122  0.1775 -0.5228
12232TIP3    H158111   1.429   6.180   3.279 -0.6245  0.3349 -1.3488
12232TIP3    H258112   1.324   6.289   3.273  0.2908  1.3461  0.3416
12233TIP3   OH258113   5.560   6.321   5.709  0.0742  0.1422  0.0485
12233TIP3    H158114   5.621   6.260   5.669 -2.0134 -2.0697 -0.0154
12233TIP3    H258115   5.579   6.315   5.803 -0.6098 -1.3110  0.1325
12234TIP3   OH258116   5.847   3.794  10.620  0.0269  0.1838  0.6296
12234TIP3    H158117   5.760   3.761  10.596  0.0037  0.6317  0.0854
12234TIP3    H258118   5.889   3.814  10.537  1.7603 -2.6783  0.7108
12235TIP3   OH258119   0.872   1.171   4.309  0.6557  0.3082 -0.0665
12235TIP3    H158120   0.922   1.090   4.306 -1.0256 -0.7883  0.5598
12235TIP3    H258121   0.917   1.224   4.375  0.7858 -0.8000  0.7530
12236TIP3   OH258122   1.207   4.568   3.774  0.1417  0.2032  0.4265
12236TIP3    H158123   1.180   4.504   3.708 -0.3048  0.9729 -0.1556
12236TIP3    H258124   1.126   4.607   3.805  0.3367 -0.2642  1.5677
12237TIP3   OH258125   4.835   3.000  13.858 -0.1149 -0.0160 -0.0862
12237TIP3    H158126   4.785   3.038  13.786 -0.6668 -0.8201 -0.1296
12237TIP3    H258127   4.920   2.978  13.819 -0.8795 -1.7299 -0.8672
12238TIP3   OH258128   5.462   6.663   2.850  0.2586 -0.1022  0.3753
12238TIP3    H158129   5.391   6.629   2.796  0.4248  2.3904 -1.5770
12238TIP3    H258130   5.422   6.733   2.901  0.7903 -0.3899  1.2171
12239TIP3   OH258131   2.520   2.915  12.628  0.1744 -0.0186  0.1598
12239TIP3    H158132   2.498   2.828  12.594 -0.4505  0.4631 -0.6791
12239TIP3    H258133   2.554   2.962  12.552 -1.1226  1.0336  0.2064
12240TIP3   OH258134   5.754   6.321  16.443  0.2322  0.0275  0.2825
12240TIP3    H158135   5.837   6.303  16.486  0.4275  0.7315  0.2058
12240TIP3    H258136   5.727   6.406  16.477  0.1281  0.3553 -0.5977
12241TIP3   OH258137   2.013   2.750   4.394  0.2177  0.8985  0.3687
12241TIP3    H158138   2.042   2.820   4.335  1.1084  0.9509  0.8317
12241TIP3    H258139   1.969   2.796   4.465  1.5589  1.1087  1.1138
12242TIP3   OH258140   1.101   6.033   2.980  0.2557  0.0037 -0.2211
12242TIP3    H158141   1.058   5.973   2.918  0.1494  0.0815 -0.2231
12242TIP3    H258142   1.181   6.060   2.935 -0.4499  1.0639 -0.8664
12243TIP3   OH258143   1.936   1.003  14.902  0.4121 -0.1715 -0.3827
12243TIP3    H158144   1.996   0.930  14.889 -0.4673 -0.5983 -2.4004
12243TIP3    H258145   1.849   0.965  14.892 -0.1534  0.8027  0.5435
12244TIP3   OH258146   4.863   2.131  15.176 -0.6111 -0.1709  0.3693
12244TIP3    H158147   4.890   2.146  15.267 -1.8784  0.8171  0.6103
12244TIP3    H258148   4.934   2.168  15.123  0.6045 -1.6042  0.9046
12245TIP3   OH258149   0.797   2.634  13.903 -0.3344  0.3696  0.5149
12245TIP3    H158150   0.817   2.724  13.927 -0.3592  0.3563  0.5850
12245TIP3    H258151   0.882   2.591  13.898 -0.1583  0.8172 -1.2264
12246TIP3   OH258152   4.097   1.638   1.608 -0.2988  0.4304 -0.2462
12246TIP3    H158153   4.013   1.594   1.607  0.6066 -1.4088  0.6627
12246TIP3    H258154   4.100   1.684   1.692 -0.4544  0.6433 -0.3560
12247TIP3   OH258155   3.546   4.255  15.086  0.1041 -0.5954  0.2878
12247TIP3    H158156   3.476   4.194  15.110  1.3741 -2.4333 -0.4670
12247TIP3    H258157   3.601   4.260  15.164  0.1882 -0.6923  0.2346
12248TIP3   OH258158   0.596   1.363  11.863  0.2946  0.1601  0.0853
12248TIP3    H158159   0.655   1.438  11.855 -1.2824  1.2753 -2.0757
12248TIP3    H258160   0.515   1.399  11.898 -0.8471 -0.2582 -1.9682
12249TIP3   OH258161   3.037   6.063  10.969  0.1169  0.3010 -0.3576
12249TIP3    H158162   3.124   6.068  10.929  0.0350 -1.0981 -0.7650
12249TIP3    H258163   3.023   5.970  10.984 -1.0475  0.5649  0.3116
12250TIP3   OH258164   6.589   4.082  15.695  0.0981  0.2039  0.0333
12250TIP3    H158165   6.528   4.090  15.769 -1.0781  0.1897 -0.8998
12250TIP3    H258166   6.655   4.149  15.712  0.3685 -0.4017  1.5582
12251TIP3   OH258167   3.978   5.643  13.656 -0.1953 -0.3778  0.0504
12251TIP3    H158168   4.074   5.653  13.661 -0.3540  1.3311  0.5397
12251TIP3    H258169   3.965   5.563  13.606  1.5046 -0.1006 -0.9359
12252TIP3   OH258170   0.052   2.145   1.224 -0.1486 -0.2745 -0.0697
12252TIP3    H158171   0.025   2.059   1.192 -1.2382 -1.0448  2.7107
12252TIP3    H258172  -0.000   2.206   1.172  1.2873 -1.1444 -2.7214
12253TIP3   OH258173   5.388   5.538  14.305 -0.1867  0.4461  0.3346
12253TIP3    H158174   5.315   5.531  14.367  0.3215  0.5846  0.9519
12253TIP3    H258175   5.440   5.611  14.337  0.1310  0.4652 -0.2121
12254TIP3   OH258176   5.249   0.360   4.430 -0.2779 -0.4683 -0.5883
12254TIP3    H158177   5.205   0.369   4.345  0.0011  1.9287 -0.5682
12254TIP3    H258178   5.269   0.450   4.455  0.6427 -1.2044  1.5195
12255TIP3   OH258179   0.711   0.586   0.263  0.3684 -0.1860 -0.3313
12255TIP3    H158180   0.770   0.651   0.299  0.0313 -0.6159  1.0656
12255TIP3    H258181   0.624   0.612   0.294  0.0825 -0.6729 -0.7011
12256TIP3   OH258182   6.658   6.680  16.809  0.7663  0.4905 -0.3253
12256TIP3    H158183   6.631   6.771  16.823  1.1063  0.5558 -0.1010
12256TIP3    H258184   6.584   6.628  16.840 -0.7391  0.7145 -3.1896
12257TIP3   OH258185   2.634   5.039  13.940  0.0562 -0.6489 -0.1887
12257TIP3    H158186   2.598   5.121  13.906  1.1516  0.0842  0.3792
12257TIP3    H258187   2.674   4.997  13.864 -0.1791 -0.4838 -0.4052
12258TIP3   OH258188   3.809   2.536  13.652 -0.0700  0.7153 -0.4581
12258TIP3    H158189   3.893   2.530  13.698  0.7109 -2.2552 -1.9909
12258TIP3    H258190   3.832   2.538  13.559 -1.6396 -0.7387 -0.9376
12259TIP3   OH258191   1.537   3.471  14.396  0.2243 -0.5211  0.0755
12259TIP3    H158192   1.480   3.546  14.414 -0.5448 -1.0263 -0.2438
12259TIP3    H258193   1.523   3.412  14.470  1.2820 -0.1028  0.6371
12260TIP3   OH258194   4.103   1.969   1.721  0.0459 -0.6306 -0.0931
12260TIP3    H158195   4.198   1.962   1.734  0.1391  0.5997 -0.0195
12260TIP3    H258196   4.085   2.063   1.724 -1.2471 -0.8760  0.3490
12261TIP3   OH258197   3.628   3.653  13.940 -0.2281  0.3280  0.1424
12261TIP3    H158198   3.583   3.702  13.871  0.0234  1.2620  0.6262
12261TIP3    H258199   3.579   3.571  13.946 -0.1111  0.1199 -1.2995
12262TIP3   OH258200   6.661   4.836   5.908 -0.1890 -0.3915  0.2539
12262TIP3    H158201   6.751   4.849   5.877 -0.8438  3.5749 -0.5396
12262TIP3    H258202   6.671   4.798   5.995  2.1851 -1.0443 -0.2306
12263TIP3   OH258203   2.613   3.897  14.846  0.6536 -0.8441  0.3287
12263TIP3    H158204   2.645   3.899  14.756  0.7915 -0.5586  0.3808
12263TIP3    H258205   2.691   3.915  14.899 -0.0115  2.6455  0.3474
12264TIP3   OH258206   1.113   5.263   4.981  0.1008  0.1608 -0.0476
12264TIP3    H158207   1.024   5.286   5.008 -0.9675 -3.1588 -0.3174
12264TIP3    H258208   1.124   5.305   4.895 -1.5072 -0.0199 -0.3694
12265TIP3   OH258209   1.667   4.117   2.190  0.1469 -0.2825  0.3720
12265TIP3    H158210   1.612   4.039   2.181  0.6647 -0.5364 -0.8161
12265TIP3    H258211   1.717   4.101   2.270  1.6182 -2.1227 -0.8003
12266TIP3   OH258212   4.964   5.597   2.231 -0.3959  0.0626 -0.2706
12266TIP3    H158213   5.032   5.564   2.289 -0.4757 -0.0599 -0.2467
12266TIP3    H258214   4.891   5.535   2.241 -1.3890  1.4124  1.4121
12267TIP3   OH258215   0.751   6.786   1.021 -0.6293  0.2355 -0.7149
12267TIP3    H158216   0.698   6.726   1.072 -1.7922  0.5226 -1.5355
12267TIP3    H258217   0.804   6.729   0.965  0.4254 -0.0682  0.5514
12268TIP3   OH258218   5.549   4.186  16.708  0.6272 -0.0412 -0.4355
12268TIP3    H158219   5.575   4.170  16.617 -0.1785 -1.2271 -0.4776
12268TIP3    H258220   5.481   4.254  16.702  0.6282 -0.0644 -0.7168
12269TIP3   OH258221   2.041   6.250  11.825  0.2454 -0.2010  0.0889
12269TIP3    H158222   2.028   6.276  11.916 -0.1153  0.0728 -0.0390
12269TIP3    H258223   2.130   6.279  11.805 -0.3139  1.4391 -0.1994
12270TIP3   OH258224   6.313   3.830  13.666  0.0996 -0.2493 -0.0861
12270TIP3    H158225   6.253   3.791  13.602  1.7754 -0.3687 -1.6394
12270TIP3    H258226   6.396   3.784  13.653  1.0131  1.0676  0.8498
12271TIP3   OH258227   4.997   6.151   5.940 -0.6595  0.0610  0.5862
12271TIP3    H158228   5.090   6.170   5.945 -0.6985  0.2127  0.7504
12271TIP3    H258229   4.955   6.236   5.928 -0.6730 -0.1442 -1.0471
12272TIP3   OH258230   3.169   3.380   2.251 -0.1170 -0.7016 -0.0383
12272TIP3    H158231   3.107   3.331   2.306 -1.1092  1.1722  0.6163
12272TIP3    H258232   3.206   3.445   2.310  0.3073  0.0651 -1.1367
12273TIP3   OH258233   1.918   5.132   2.763 -0.3235  0.4436 -0.5587
12273TIP3    H158234   1.933   5.135   2.857 -2.0970  0.2999 -0.2371
12273TIP3    H258235   1.901   5.040   2.744  0.6326  0.3727 -1.1483
12274TIP3   OH258236   5.871   5.710   3.292  0.2223 -0.6711  0.0563
12274TIP3    H158237   5.929   5.643   3.330  1.8474 -0.0869 -1.2865
12274TIP3    H258238   5.873   5.693   3.198 -1.3451 -0.2497 -0.0772
12275TIP3   OH258239   2.151   2.944   2.500 -0.2260 -0.1999  0.7708
12275TIP3    H158240   2.157   2.852   2.526  3.5090 -1.4911 -3.5120
12275TIP3    H258241   2.222   2.987   2.548  2.6936 -1.3089 -2.1653
12276TIP3   OH258242   0.103   1.720   2.516  0.2949  0.3113 -0.1929
12276TIP3    H158243   0.051   1.650   2.475  0.6254  1.4982 -2.8426
12276TIP3    H258244   0.059   1.801   2.490  0.3495  1.1854  2.1898
12277TIP3   OH258245   1.107   1.161  13.626  0.5202 -0.3186 -0.4510
12277TIP3    H158246   1.118   1.082  13.678  0.8021  0.8323  1.3277
12277TIP3    H258247   1.096   1.231  13.690  0.1336  1.0784 -1.9634
12278TIP3   OH258248   0.805   0.674   5.536  0.1049  0.3996  0.1334
12278TIP3    H158249   0.887   0.720   5.551  0.3648 -0.5493  1.9146
12278TIP3    H258250   0.739   0.743   5.532  0.5091  1.0020  2.5560
12279TIP3   OH258251   1.126   6.199   4.617 -0.2753  0.0201  0.5336
12279TIP3    H158252   1.148   6.106   4.621  0.1314  0.1366  1.1563
12279TIP3    H258253   1.158   6.235   4.700 -0.3985  0.7222  0.2856
12280TIP3   OH258254   0.524   2.779   3.356 -0.3261 -0.0181  0.0736
12280TIP3    H158255   0.495   2.867   3.381  0.3772  0.3764 -0.4694
12280TIP3    H258256   0.474   2.759   3.277  1.1601  0.8503 -1.1277
12281TIP3   OH258257   3.045   4.189   3.211  0.3662 -0.5219  0.1770
12281TIP3    H158258   3.020   4.111   3.261 -0.2364 -0.3810  0.1062
12281TIP3    H258259   3.065   4.255   3.278 -0.4100 -0.3426  0.2464
12282TIP3   OH258260   4.684   6.566  15.358 -0.4389  0.5202 -0.2600
12282TIP3    H158261   4.714   6.503  15.423 -0.4027  0.5254 -0.2711
12282TIP3    H258262   4.755   6.629  15.352 -0.7101  0.8724  0.1585
12283TIP3   OH258263   1.631   5.324  13.110 -0.1517  0.0173  0.5491
12283TIP3    H158264   1.725   5.324  13.093  0.4027 -0.9131  3.1846
12283TIP3    H258265   1.606   5.232  13.100 -0.8918  0.3194 -0.5114
12284TIP3   OH258266   0.104   4.483   5.768  0.0773 -0.3232  0.0062
12284TIP3    H158267   0.116   4.474   5.862  0.8838  1.2504  0.0713
12284TIP3    H258268   0.158   4.413   5.730  0.9888  0.0108  0.6637
12285TIP3   OH258269   4.357   0.316   3.841  0.1131 -0.1899  0.9244
12285TIP3    H158270   4.351   0.314   3.936 -2.2217 -0.0382  0.8362
12285TIP3    H258271   4.281   0.267   3.811  1.1057 -0.7179 -0.8861
12286TIP3   OH258272   5.863   6.654   2.250 -0.1375  1.2218 -0.1740
12286TIP3    H158273   5.909   6.593   2.192 -1.6155 -0.2133  0.1157
12286TIP3    H258274   5.891   6.629   2.338 -0.2711  1.3795 -0.0873
12287TIP3   OH258275   6.712   5.759   2.708 -0.6072 -0.7125 -0.1090
12287TIP3    H158276   6.744   5.846   2.734 -0.3908 -0.5922 -0.7612
12287TIP3    H258277   6.729   5.754   2.614 -0.7237 -1.4194 -0.1003
12288TIP3   OH258278   3.682   2.860   3.558  0.1825  0.2331  0.3790
12288TIP3    H158279   3.770   2.823   3.564  0.0091 -0.1176  0.7879
12288TIP3    H258280   3.672   2.884   3.466  1.0135  1.0336  0.4814
12289TIP3   OH258281   3.010   1.260   2.182  0.4521  0.0452  0.3701
12289TIP3    H158282   2.924   1.235   2.217 -0.0207 -1.2979 -1.5710
12289TIP3    H258283   3.042   1.327   2.243 -2.6628  1.8131  0.2928
12290TIP3   OH258284   1.115   3.494   2.408  0.0341 -0.3006  0.0572
12290TIP3    H158285   1.162   3.413   2.429  1.3222  0.1352 -0.9901
12290TIP3    H258286   1.079   3.523   2.491  1.7270 -0.6241  0.9622
12291TIP3   OH258287   4.540   2.780  15.670  0.4679  0.2273  0.2075
12291TIP3    H158288   4.452   2.777  15.708  0.5820  0.6792  0.5126
12291TIP3    H258289   4.554   2.692  15.637 -0.5323  0.4360 -0.8333
12292TIP3   OH258290   1.714   2.801  13.521  0.1036  0.0536 -0.3087
12292TIP3    H158291   1.618   2.807  13.521  0.1103  0.3730  0.5452
12292TIP3    H258292   1.744   2.891  13.534  0.5368  0.0135 -0.9789
12293TIP3   OH258293   1.084   1.014  13.069 -0.4666  0.2697  0.4111
12293TIP3    H158294   1.084   0.930  13.114 -2.4606 -0.5398 -0.9632
12293TIP3    H258295   1.029   1.071  13.123 -0.5544  0.1536  0.4435
12294TIP3   OH258296   0.134   2.962   3.925 -0.1460  0.5612  0.8770
12294TIP3    H158297   0.116   2.912   4.004 -0.4247 -2.0221 -0.7114
12294TIP3    H258298   0.229   2.969   3.921 -0.0401 -0.8710  0.5639
12295TIP3   OH258299   5.744   2.878  12.063  0.2104  0.2435  0.0628
12295TIP3    H158300   5.671   2.940  12.070  0.0946  0.4462 -2.2329
12295TIP3    H258301   5.702   2.793  12.047  0.4434  0.2599 -0.6777
12296TIP3   OH258302   3.218   2.033  13.039 -0.0313 -0.0482  0.4804
12296TIP3    H158303   3.181   2.012  12.953 -0.1132  1.3490  0.1476
12296TIP3    H258304   3.142   2.032  13.098 -0.0006 -0.8544  0.5098
12297TIP3   OH258305   1.140   5.697  14.242 -0.1426  0.5368  0.4145
12297TIP3    H158306   1.061   5.693  14.190  0.4515 -0.5764 -0.4423
12297TIP3    H258307   1.131   5.626  14.306  0.9757 -0.8813 -0.9316
12298TIP3   OH258308   1.494   2.886  14.415 -0.2074  0.1659 -0.1738
12298TIP3    H158309   1.522   2.826  14.345  1.7581  1.2900 -0.4065
12298TIP3    H258310   1.575   2.912  14.458 -1.0863  2.1070  0.3911
12299TIP3   OH258311   4.409   4.849   2.123 -0.0288  0.3053  0.1583
12299TIP3    H158312   4.440   4.863   2.034 -0.0219  0.5284  0.1941
12299TIP3    H258313   4.463   4.908   2.176  0.1632 -0.0346  0.3454
12300TIP3   OH258314   5.932   3.139   3.131 -0.0048 -0.2986  0.1322
12300TIP3    H158315   5.999   3.171   3.192 -0.3705 -0.6168  0.7136
12300TIP3    H258316   5.853   3.130   3.185 -0.1435 -1.3110 -0.2259
12301TIP3   OH258317   4.061   3.745  14.897  0.3522 -0.2046 -0.1158
12301TIP3    H158318   3.985   3.699  14.863 -0.2651 -0.3962  1.4462
12301TIP3    H258319   4.065   3.826  14.847  0.3232 -1.0623 -1.5801
12302TIP3   OH258320   1.506   2.894  12.907  0.1280  0.5392 -0.2177
12302TIP3    H158321   1.504   2.985  12.878 -0.3462  0.1695 -1.3829
12302TIP3    H258322   1.591   2.861  12.879  0.5096  0.7511  0.6540
12303TIP3   OH258323   4.258   0.837   0.335 -0.3299 -0.1604  0.1181
12303TIP3    H158324   4.231   0.892   0.261  1.6252  0.6120 -0.1108
12303TIP3    H258325   4.353   0.830   0.324 -0.1168 -0.7370  2.0926
12304TIP3   OH258326   3.280   1.604   2.432  0.5040  0.1276 -0.5969
12304TIP3    H158327   3.325   1.684   2.405  0.9470 -0.6166 -2.2126
12304TIP3    H258328   3.350   1.543   2.454  0.2220 -0.2231 -0.6571
12305TIP3   OH258329   2.802   4.004   3.878  0.1752 -0.8570  0.4421
12305TIP3    H158330   2.796   4.098   3.893  1.7427 -0.6354 -0.2002
12305TIP3    H258331   2.871   3.974   3.937  2.9364 -0.7938 -2.5127
12306TIP3   OH258332   3.156   4.991   5.811 -0.1158  0.2950  0.6540
12306TIP3    H158333   3.180   5.000   5.719  0.5744  0.5545  0.8471
12306TIP3    H258334   3.185   4.903   5.835  1.2764  0.8322  1.0502
12307TIP3   OH258335   4.583   6.562   5.927 -0.0341 -0.1809 -0.1350
12307TIP3    H158336   4.534   6.498   5.875 -0.5904  0.6383 -0.6338
12307TIP3    H258337   4.563   6.539   6.017 -1.4405  0.1906 -0.3220
12308TIP3   OH258338   3.642   3.322  12.264  0.3109  0.3034  0.6764
12308TIP3    H158339   3.710   3.376  12.224 -0.3453  2.4167  2.2161
12308TIP3    H258340   3.689   3.245  12.297  1.5882  0.7201 -0.0977
12309TIP3   OH258341   0.758   2.258  13.631  0.4007 -0.6994 -0.0155
12309TIP3    H158342   0.834   2.266  13.574  0.2805  1.7658  0.0348
12309TIP3    H258343   0.730   2.349  13.646 -2.4936 -1.4982  0.0396
12310TIP3   OH258344   5.499   2.263   2.606  0.1503  0.1001  0.4859
12310TIP3    H158345   5.409   2.235   2.594  0.2595 -0.5409  1.1327
12310TIP3    H258346   5.539   2.195   2.660  1.3794 -0.2943 -0.8472
12311TIP3   OH258347   2.394   1.556   1.833 -0.1283  0.2882  0.6994
12311TIP3    H158348   2.468   1.495   1.830 -0.5634 -0.2328  0.0154
12311TIP3    H258349   2.327   1.513   1.780 -0.8631  0.8275  1.1813
12312TIP3   OH258350   5.038   2.976  14.484 -0.3030 -0.1349  0.4861
12312TIP3    H158351   5.108   2.986  14.418  0.8585  2.3666  1.9365
12312TIP3    H258352   4.981   3.052  14.470 -1.1040 -0.5969  1.1591
12313TIP3   OH258353   5.897   4.943   4.887 -0.3512  0.4763 -0.2856
12313TIP3    H158354   5.968   4.911   4.831 -0.4880  2.1680 -1.4906
12313TIP3    H258355   5.819   4.937   4.833 -0.6818  1.0344  0.1172
12314TIP3   OH258356   3.977   2.282   4.726  0.7799  0.0474 -0.0787
12314TIP3    H158357   4.055   2.337   4.734  0.4315  0.4572  0.5157
12314TIP3    H258358   3.909   2.341   4.693 -0.6761  1.0674  4.1271
12315TIP3   OH258359   4.569   2.199   5.118  1.0565  0.1399 -0.4874
12315TIP3    H158360   4.596   2.146   5.043 -0.2685 -0.6977 -0.3950
12315TIP3    H258361   4.480   2.171   5.137  0.7000  1.6580  0.2508
12316TIP3   OH258362   3.070   0.590  14.198  0.2320  0.4098 -0.7967
12316TIP3    H158363   3.145   0.536  14.222  1.3795  2.3436  0.2780
12316TIP3    H258364   3.084   0.610  14.106  1.5525  1.4134 -0.4202
12317TIP3   OH258365   6.249   3.305   5.423  0.2222 -0.2178 -0.3438
12317TIP3    H158366   6.338   3.270   5.432 -0.0313 -1.2857 -1.5693
12317TIP3    H258367   6.218   3.270   5.339 -1.6823 -0.6226  0.4552
12318TIP3   OH258368   3.436   5.132   1.746 -0.1030 -0.6604  0.5192
12318TIP3    H158369   3.455   5.155   1.837  0.3687 -0.4911  0.3831
12318TIP3    H258370   3.402   5.043   1.750 -2.7472  0.3069  1.1506
12319TIP3   OH258371   3.778   2.355  11.634  0.7025  0.0748  0.7288
12319TIP3    H158372   3.758   2.272  11.677  1.5891  0.5871  2.2110
12319TIP3    H258373   3.863   2.381  11.671  0.7065  1.3536 -0.1359
12320TIP3   OH258374   5.817   2.653   4.159  0.2397  0.5018  0.3997
12320TIP3    H158375   5.783   2.648   4.248  0.3744  1.7502  0.5470
12320TIP3    H258376   5.810   2.746   4.136 -0.4622  0.0862 -1.1642
12321TIP3   OH258377   0.852   4.075   3.441  0.4656 -0.3472 -0.2188
12321TIP3    H158378   0.910   4.120   3.503 -0.7302  1.2372 -0.1607
12321TIP3    H258379   0.777   4.049   3.495  0.5097 -1.1510 -0.5455
12322TIP3   OH258380   1.208   2.679  15.993  0.5416  0.2827 -0.2573
12322TIP3    H158381   1.175   2.702  15.906 -0.3541  0.2873  0.0670
12322TIP3    H258382   1.189   2.586  16.002  1.8915 -0.0460 -0.5923
12323TIP3   OH258383   6.239   6.168   6.086 -0.2087  0.1599 -0.1702
12323TIP3    H158384   6.265   6.170   6.179 -0.1975 -1.6002 -0.1107
12323TIP3    H258385   6.229   6.075   6.066 -0.7562  0.5469 -1.8010
12324TIP3   OH258386   1.587   1.537  16.859 -0.4667 -0.3804 -0.5085
12324TIP3    H158387   1.497   1.518  16.834 -0.4234 -0.0617 -0.9194
12324TIP3    H258388   1.581   1.615  16.916 -0.3401  0.4622 -1.6177
12325TIP3   OH258389   3.614   3.773   6.336  0.3077  0.1765 -0.1870
12325TIP3    H158390   3.654   3.799   6.419  0.9126  1.2130 -0.7749
12325TIP3    H258391   3.540   3.718   6.361  1.5303 -1.0043  0.9633
12326TIP3   OH258392   5.233   4.416   4.515  0.0670 -0.2014  0.0146
12326TIP3    H158393   5.245   4.503   4.477 -0.4449 -0.8904 -1.8890
12326TIP3    H258394   5.198   4.364   4.442 -0.0798 -1.8764  1.2368
12327TIP3   OH258395   1.102   0.006   2.668  0.0581  0.5863 -0.4293
12327TIP3    H158396   1.164  -0.016   2.738  1.7036 -0.6446 -2.1595
12327TIP3    H258397   1.027   0.044   2.713  0.3961 -1.4966  2.1360
12328TIP3   OH258398   6.630   1.856   2.689  0.3330 -0.3054 -0.1878
12328TIP3    H158399   6.607   1.764   2.678  2.5189 -1.1660  1.5202
12328TIP3    H258400   6.699   1.872   2.624  0.6795 -0.1994  0.1987
12329TIP3   OH258401   2.718   1.563   0.596 -0.3228  0.5531  0.1773
12329TIP3    H158402   2.728   1.498   0.526  1.6093  0.0520  0.8502
12329TIP3    H258403   2.742   1.646   0.555  0.7462  0.2695  0.1736
12330TIP3   OH258404   5.606   0.487   2.499 -0.4701 -0.1634  0.0037
12330TIP3    H158405   5.697   0.468   2.522 -0.2318 -0.6125 -1.2259
12330TIP3    H258406   5.592   0.578   2.527  0.6514  0.2164 -0.6044
12331TIP3   OH258407   2.823   0.447  12.333  0.2187  0.8104 -0.5314
12331TIP3    H158408   2.774   0.488  12.405 -2.4352 -0.4090 -1.5030
12331TIP3    H258409   2.833   0.356  12.360 -2.0621 -0.0107 -2.1999
12332TIP3   OH258410   3.736   4.501   5.370 -0.1405  0.2865 -0.0503
12332TIP3    H158411   3.761   4.592   5.388 -0.0210  0.3276 -0.4237
12332TIP3    H258412   3.808   4.449   5.406  1.9357  0.4954 -3.5222
12333TIP3   OH258413   5.311   6.291  13.869  0.6503 -0.0455 -0.1287
12333TIP3    H158414   5.282   6.381  13.854  1.2132  0.6620  2.4731
12333TIP3    H258415   5.388   6.300  13.926  2.1944 -2.1101 -1.7101
12334TIP3   OH258416   1.527   4.067   0.868  0.1151 -0.2034  0.5573
12334TIP3    H158417   1.578   4.127   0.923  0.3566 -0.5070  0.6682
12334TIP3    H258418   1.464   4.027   0.928  0.2954 -0.4415  0.5881
12335TIP3   OH258419   4.001   0.419  13.825 -0.6214  0.3181  0.8340
12335TIP3    H158420   3.917   0.374  13.811 -0.1057 -0.5486  0.4156
12335TIP3    H258421   4.005   0.483  13.754 -0.4099 -0.4464  0.1401
12336TIP3   OH258422   3.227   1.862   1.972 -0.3083  0.4970  0.3865
12336TIP3    H158423   3.316   1.896   1.974 -0.0947 -0.0532  1.3795
12336TIP3    H258424   3.172   1.937   1.951  0.3533  0.9261  0.1722
12337TIP3   OH258425   2.715   6.199   3.313 -0.0792  0.5288 -0.2696
12337TIP3    H158426   2.755   6.136   3.253 -1.3416 -1.1471  0.5512
12337TIP3    H258427   2.680   6.267   3.256 -0.7540 -0.7232 -1.4178
12338TIP3   OH258428   2.801   2.175   3.896  0.4848 -0.3631  0.6441
12338TIP3    H158429   2.873   2.117   3.918  1.4140 -1.1417 -3.4830
12338TIP3    H258430   2.723   2.119   3.897  0.8235 -0.8558  0.0685
12339TIP3   OH258431   1.321   4.864   2.756 -0.0245  0.4795 -0.2008
12339TIP3    H158432   1.401   4.857   2.808  0.7403  0.0656 -1.3879
12339TIP3    H258433   1.259   4.912   2.812  0.9268  0.4705  0.8763
12340TIP3   OH258434   1.532   1.483  16.432  0.0223  0.5172 -0.0068
12340TIP3    H158435   1.604   1.456  16.489  0.6430 -2.2251 -1.8990
12340TIP3    H258436   1.574   1.520  16.355 -0.6658  0.5643 -0.3684
12341TIP3   OH258437   1.977   2.991   6.014 -0.4649 -0.2610 -0.5242
12341TIP3    H158438   2.052   3.025   5.964 -0.9540  1.2617 -0.2977
12341TIP3    H258439   2.009   2.986   6.104 -0.7039  0.7036 -0.3717
12342TIP3   OH258440   2.648   0.792   5.254 -0.2877  0.3938 -0.1201
12342TIP3    H158441   2.602   0.707   5.257  1.9169 -0.8626  0.5325
12342TIP3    H258442   2.578   0.856   5.243 -1.9815 -1.5620 -1.8938
12343TIP3   OH258443   0.177   0.491   0.723 -0.3798  0.6860  0.4651
12343TIP3    H158444   0.148   0.407   0.687  1.0960 -0.7012  2.2650
12343TIP3    H258445   0.234   0.528   0.656  0.5886 -0.7723  0.4365
12344TIP3   OH258446   4.754   6.172  12.192  0.0114 -0.1358 -0.2051
12344TIP3    H158447   4.701   6.096  12.167  1.4167 -0.4374 -2.5481
12344TIP3    H258448   4.798   6.146  12.273 -2.6171 -0.1912  1.3428
12345TIP3   OH258449   5.900   4.018   1.570  0.1535  0.5581 -0.1714
12345TIP3    H158450   5.835   4.071   1.615  0.3262  0.2952  0.3874
12345TIP3    H258451   5.918   3.945   1.629  1.1359  0.7534 -0.2040
12346TIP3   OH258452   5.660   1.858  12.600  0.3320  0.3218 -0.2712
12346TIP3    H158453   5.746   1.839  12.562  0.8619  2.2369 -0.1275
12346TIP3    H258454   5.646   1.951  12.583 -1.6703  0.0895 -0.1630
12347TIP3   OH258455   6.326   5.232  14.972 -0.0280  0.0748  0.2692
12347TIP3    H158456   6.401   5.218  15.030 -0.1314 -1.7836  0.0274
12347TIP3    H258457   6.279   5.305  15.011  1.2744  0.5203  1.0843
12348TIP3   OH258458   0.284   3.144   1.881  0.0773 -0.2814 -0.1605
12348TIP3    H158459   0.206   3.103   1.917  1.1116 -1.8830  0.3679
12348TIP3    H258460   0.264   3.159   1.789 -0.3361 -2.0452 -0.3870
12349TIP3   OH258461   2.696   1.021   2.950  0.5620 -0.1557  0.2710
12349TIP3    H158462   2.657   0.937   2.929  0.8277 -0.6795  1.7330
12349TIP3    H258463   2.659   1.044   3.035  2.2275  0.0777  0.9805
12350TIP3   OH258464   0.346   1.574  11.918 -0.3282 -0.2697  0.2474
12350TIP3    H158465   0.251   1.581  11.907 -0.4604  1.1533  1.8090
12350TIP3    H258466   0.366   1.636  11.989  1.4621 -2.1521  1.5095
12351TIP3   OH258467   6.173   5.085   1.001 -0.1103  0.9618  0.1224
12351TIP3    H158468   6.222   5.024   0.946 -1.9935 -0.7275  0.1885
12351TIP3    H258469   6.083   5.081   0.967 -1.7476 -1.3500  4.1067
12352TIP3   OH258470   3.585   5.832  11.803  0.3394 -0.4933 -0.5298
12352TIP3    H158471   3.582   5.748  11.849 -0.8173  0.1445  0.6240
12352TIP3    H258472   3.580   5.808  11.710  0.0392 -1.7048 -0.2225
12353TIP3   OH258473   2.007   0.761  12.422  0.0944 -0.0199  0.1494
12353TIP3    H158474   2.047   0.847  12.439 -0.5179  0.8708 -2.3540
12353TIP3    H258475   2.081   0.701  12.416  0.5330  0.3010  1.9886
12354TIP3   OH258476   0.779   3.552  15.765 -0.1702 -0.6537  0.2726
12354TIP3    H158477   0.833   3.594  15.698 -0.3325 -0.6652  0.1327
12354TIP3    H258478   0.841   3.517  15.828 -0.0288 -0.1930  0.3953
12355TIP3   OH258479   0.483   0.418   5.949 -0.0508  0.2632  0.3469
12355TIP3    H158480   0.511   0.334   5.914 -2.5813 -0.2305 -0.7206
12355TIP3    H258481   0.513   0.483   5.885 -0.9289 -0.1937 -0.5445
12356TIP3   OH258482   4.827   5.011  13.476  0.2316 -0.1144  0.3345
12356TIP3    H158483   4.850   5.085  13.532  1.1414 -0.1731  0.0559
12356TIP3    H258484   4.765   5.047  13.412 -1.3186 -0.1920  1.7376
12357TIP3   OH258485   2.859   4.685  15.882 -0.0224  0.1597 -0.1430
12357TIP3    H158486   2.844   4.778  15.865 -2.0779 -0.5619 -3.1259
12357TIP3    H258487   2.819   4.670  15.968  0.4939  2.0235  0.4611
12358TIP3   OH258488   1.810   4.565  13.084 -0.0872  0.3115  0.0008
12358TIP3    H158489   1.723   4.539  13.052 -0.6920  0.3975  1.4733
12358TIP3    H258490   1.794   4.592  13.174  1.2363  1.7948 -0.1799
12359TIP3   OH258491   3.356   0.537   3.869 -0.0206  0.4380  0.1558
12359TIP3    H158492   3.398   0.523   3.785 -0.0099  1.3793 -0.0018
12359TIP3    H258493   3.427   0.564   3.927  0.0602 -0.6746  0.6062
12360TIP3   OH258494   0.375   2.278   2.097  0.4047  0.2308  0.7851
12360TIP3    H158495   0.451   2.334   2.077  0.4629 -0.2415 -0.3828
12360TIP3    H258496   0.413   2.192   2.113  0.3901  0.6210  3.3383
12361TIP3   OH258497   6.403   4.772  16.833  0.9115 -0.0634 -0.1477
12361TIP3    H158498   6.352   4.852  16.819  0.8091 -0.0191  0.4558
12361TIP3    H258499   6.452   4.789  16.913  0.8421 -0.6299  0.0188
12362TIP3   OH258500   3.019   0.508  11.144  0.3595 -0.5912 -0.2158
12362TIP3    H158501   3.014   0.419  11.181  2.3167 -0.1688  1.2357
12362TIP3    H258502   3.083   0.501  11.074  1.3877 -0.1195  0.6562
12363TIP3   OH258503   3.831   6.128  16.006  0.3476 -0.1992 -0.2114
12363TIP3    H158504   3.775   6.195  15.969 -0.6539 -0.5197  0.6744
12363TIP3    H258505   3.809   6.127  16.099  0.6037 -1.5036 -0.1444
12364TIP3   OH258506   4.676   1.203   5.025 -0.5246  0.2970 -0.1702
12364TIP3    H158507   4.684   1.218   4.931  3.4802 -2.9757 -0.6386
12364TIP3    H258508   4.723   1.276   5.066 -0.0530  0.4101 -0.9064
12365TIP3   OH258509   0.031   0.622   5.521 -0.2080 -0.1346  0.6101
12365TIP3    H158510  -0.017   0.691   5.565  1.3343  1.9881 -0.8414
12365TIP3    H258511   0.065   0.663   5.441  1.0503 -2.4774 -0.1611
12366TIP3   OH258512   6.733   1.583   4.101  0.0647  0.3605  0.6415
12366TIP3    H158513   6.781   1.503   4.120  2.2056  1.5501  0.6067
12366TIP3    H258514   6.714   1.578   4.007  2.8914  1.1725 -0.0555
12367TIP3   OH258515   5.354   5.643   2.702  0.1327  0.6673 -0.8693
12367TIP3    H158516   5.422   5.599   2.753 -0.7437 -0.3429 -0.5181
12367TIP3    H258517   5.280   5.651   2.763 -1.4960 -1.9227 -2.3054
12368TIP3   OH258518   6.129   1.952  12.730  0.2813  0.0944 -0.0631
12368TIP3    H158519   6.087   2.026  12.687 -0.1786 -0.0879  0.0654
12368TIP3    H258520   6.222   1.962  12.709  0.2535  0.8297  0.1467
12369TIP3   OH258521   0.220   3.307   4.158  0.4489 -0.3039  0.2585
12369TIP3    H158522   0.195   3.298   4.067  1.5235 -1.4639  0.0387
12369TIP3    H258523   0.199   3.222   4.198  1.3992 -0.3606  0.6957
12370TIP3   OH258524   5.662   5.384   5.640  0.3672 -0.3281  0.1634
12370TIP3    H158525   5.739   5.408   5.691 -0.1728 -0.0125  0.8464
12370TIP3    H258526   5.588   5.415   5.693 -0.2541 -1.3008 -0.1168
12371TIP3   OH258527   3.579   3.598   4.571 -0.3313 -0.1807 -0.4252
12371TIP3    H158528   3.551   3.583   4.661 -1.3019 -3.6834 -1.1759
12371TIP3    H258529   3.670   3.569   4.570 -0.0234  0.7494 -0.4112
12372TIP3   OH258530   1.091   1.813  12.633  0.1813  0.1777  0.0907
12372TIP3    H158531   1.097   1.863  12.714 -0.4432 -1.1065  0.9667
12372TIP3    H258532   1.021   1.750  12.649 -0.8613  0.7494 -1.9402
12373TIP3   OH258533   0.029   5.145   1.242 -0.2340 -0.5234 -0.1035
12373TIP3    H158534   0.091   5.092   1.193  1.4426  0.4218  0.9044
12373TIP3    H258535   0.083   5.203   1.296 -1.9818  0.9194  0.2269
12374TIP3   OH258536   2.783   0.625   5.706  0.1430  0.2802  0.3609
12374TIP3    H158537   2.841   0.688   5.749  0.4447 -0.1037  0.5243
12374TIP3    H258538   2.811   0.627   5.614  2.0111 -1.5920  0.8255
12375TIP3   OH258539   4.178   4.477  12.044  0.2178  0.0523 -0.6431
12375TIP3    H158540   4.186   4.420  12.121  0.3465 -0.7883 -1.2631
12375TIP3    H258541   4.158   4.563  12.080 -0.8745 -0.5625  0.2747
12376TIP3   OH258542   0.785   6.696  15.430 -0.0762 -0.0786 -0.6744
12376TIP3    H158543   0.756   6.766  15.372 -0.5427  0.4860  0.2112
12376TIP3    H258544   0.877   6.682  15.407  0.0852  0.9831 -0.7268
12377TIP3   OH258545   4.589   4.087  13.142  0.1890  0.1677  0.0790
12377TIP3    H158546   4.624   4.030  13.073 -0.0225  1.5443 -1.2104
12377TIP3    H258547   4.542   4.027  13.200  0.9173 -1.1167 -0.6046
12378TIP3   OH258548   4.526   5.367  16.207  0.1607 -0.7505 -0.0587
12378TIP3    H158549   4.594   5.378  16.140 -0.2910  1.2021 -0.2726
12378TIP3    H258550   4.449   5.410  16.170 -0.5868 -1.1222  1.0233
12379TIP3   OH258551   6.315   6.518   4.779  0.0536  0.2254  0.0797
12379TIP3    H158552   6.380   6.584   4.801 -0.4910  1.1245 -0.8909
12379TIP3    H258553   6.243   6.533   4.842  0.8375 -0.9247  1.3087
12380TIP3   OH258554   4.296   2.495   1.166  0.6096 -0.9004 -0.2918
12380TIP3    H158555   4.280   2.423   1.104 -0.7743 -1.1371  0.2851
12380TIP3    H258556   4.209   2.515   1.202  1.0146  0.8571 -0.1988
12381TIP3   OH258557   5.390   5.861  15.200 -0.2078  0.7907 -0.0387
12381TIP3    H158558   5.361   5.951  15.216 -2.8617 -0.0799  0.6097
12381TIP3    H258559   5.312   5.817  15.167  0.7437 -1.5101  0.6198
12382TIP3   OH258560   5.643   6.301  13.471 -0.2643 -0.0847  0.2877
12382TIP3    H158561   5.605   6.214  13.485  1.3662 -0.5377  2.3263
12382TIP3    H258562   5.598   6.357  13.535  1.8223 -0.4631  2.1852
12383TIP3   OH258563   4.211   5.624  12.263  0.0733  0.2310  0.5209
12383TIP3    H158564   4.265   5.694  12.300 -0.4767  1.9996 -1.7585
12383TIP3    H258565   4.133   5.622  12.319 -0.1178  1.8486  0.3772
12384TIP3   OH258566   2.840   3.678   1.986 -0.5296  0.3498  0.8340
12384TIP3    H158567   2.746   3.657   1.985 -0.4387 -0.0574  0.8307
12384TIP3    H258568   2.851   3.738   1.912 -0.4927 -0.8888 -0.1864
12385TIP3   OH258569   3.008   5.195  10.532  0.1419 -0.6261 -0.0651
12385TIP3    H158570   3.046   5.243  10.606  1.5476 -1.5243 -0.1742
12385TIP3    H258571   3.036   5.243  10.455 -0.2376 -0.4293 -0.0842
12386TIP3   OH258572   4.656   2.522   2.442  0.0206 -0.2283  0.1350
12386TIP3    H158573   4.595   2.580   2.397  1.2781  1.9475  1.1075
12386TIP3    H258574   4.601   2.474   2.505 -0.7323  1.9271  1.2364
12387TIP3   OH258575   1.189   2.937   1.716  0.3580 -0.2414 -0.0428
12387TIP3    H158576   1.208   2.885   1.794 -1.0933  1.6397  1.7046
12387TIP3    H258577   1.095   2.928   1.704  0.4352  0.1863 -1.0434
12388TIP3   OH258578   6.327   0.145   4.035  0.0506 -0.0607 -0.0123
12388TIP3    H158579   6.346   0.226   3.988  1.8323 -0.3967  0.0817
12388TIP3    H258580   6.245   0.113   3.997  0.3701  0.7483 -1.4144
12389TIP3   OH258581   4.629   3.449   2.593  0.0896 -0.6469 -0.4374
12389TIP3    H158582   4.689   3.384   2.631  1.0596  0.1619 -0.5558
12389TIP3    H258583   4.566   3.396   2.544  0.5682 -1.5291 -0.1368
12390TIP3   OH258584   2.962   3.919  12.822  0.0077  0.5164  0.7935
12390TIP3    H158585   3.055   3.897  12.824 -0.2300 -0.5958  0.1451
12390TIP3    H258586   2.917   3.836  12.810 -1.0161  1.1683 -0.1240
12391TIP3   OH258587   4.489   4.796   1.696 -0.1203  0.2591  0.0032
12391TIP3    H158588   4.504   4.737   1.771 -2.6927 -1.2376 -0.5396
12391TIP3    H258589   4.475   4.882   1.736 -0.1045 -0.2476  1.1486
12392TIP3   OH258590   2.036   2.848  16.011 -0.1455  0.3000  0.1361
12392TIP3    H158591   2.025   2.942  15.996 -1.3190  0.6651  2.6950
12392TIP3    H258592   1.952   2.820  16.048  0.1565 -1.7925 -0.6509
12393TIP3   OH258593   3.484   2.583  15.956  0.2972  0.4987 -0.4254
12393TIP3    H158594   3.419   2.653  15.963 -0.3460 -0.2129  1.2011
12393TIP3    H258595   3.439   2.513  15.910 -0.3625 -0.2278  1.2345
12394TIP3   OH258596   4.964   4.747  16.223 -0.0187  0.4534  0.3785
12394TIP3    H158597   5.043   4.704  16.257  1.0984  1.2223 -1.1179
12394TIP3    H258598   4.967   4.835  16.260  0.7522  1.0195 -0.9550
12395TIP3   OH258599   6.553   3.194  14.625 -0.1128 -0.3002 -0.1939
12395TIP3    H158600   6.475   3.225  14.578 -0.0824  1.6879  0.9551
12395TIP3    H258601   6.623   3.252  14.596  0.3751 -0.4558  0.6526
12396TIP3   OH258602   5.098   1.066   4.476 -0.0440  0.2241  0.2408
12396TIP3    H158603   5.190   1.070   4.500 -0.1540  0.6687  0.5891
12396TIP3    H258604   5.069   0.980   4.507  0.7451 -0.8112 -1.6620
12397TIP3   OH258605   3.079   0.172   3.702 -0.6401 -0.0181 -0.0173
12397TIP3    H158606   3.019   0.098   3.694 -0.8434  0.2300 -1.0077
12397TIP3    H258607   3.022   0.248   3.715 -0.3800 -0.1698  2.4088
12398TIP3   OH258608   3.216   3.634  17.120 -0.0728  0.0681  0.0565
12398TIP3    H158609   3.150   3.702  17.109 -0.6686 -0.6415 -0.9871
12398TIP3    H258610   3.243   3.612  17.030  0.2589 -0.9143  0.3791
12399TIP3   OH258611   5.911   2.299   1.931  0.2759  0.0919  0.0930
12399TIP3    H158612   6.003   2.295   1.958  1.0628  2.5583 -1.9036
12399TIP3    H258613   5.905   2.242   1.854 -0.0374 -0.4682  0.5165
12400TIP3   OH258614   5.823   0.738  14.290 -0.0054 -0.1164 -0.5205
12400TIP3    H158615   5.763   0.791  14.238  1.7098  1.8265 -0.6112
12400TIP3    H258616   5.909   0.777  14.276  1.1290 -2.0718  0.5624
12401TIP3   OH258617   3.950   2.593  12.577  0.4222  0.3313 -0.0024
12401TIP3    H158618   3.883   2.524  12.575  1.9656 -1.2279 -1.4159
12401TIP3    H258619   3.929   2.649  12.503  1.4213 -0.9513 -1.2952
12402TIP3   OH258620   6.237   2.226  13.980  0.0254  0.1000 -0.2913
12402TIP3    H158621   6.236   2.287  14.055 -2.2739 -0.6648  0.3907
12402TIP3    H258622   6.226   2.140  14.020  0.8543 -0.5304 -1.4022
12403TIP3   OH258623   2.968   4.340  12.316  0.7694  0.1520 -0.0171
12403TIP3    H158624   2.884   4.338  12.270  0.0253  0.6415  1.2730
12403TIP3    H258625   3.003   4.427  12.299 -0.4324  1.0577  1.8886
12404TIP3   OH258626   4.647   4.440   3.523 -0.2069 -0.1590  0.2592
12404TIP3    H158627   4.610   4.409   3.441  0.8113 -1.9360  0.4127
12404TIP3    H258628   4.694   4.520   3.501  0.1438 -0.6769 -0.9226
12405TIP3   OH258629   3.593   6.234   0.230 -0.7471  0.0956 -0.3787
12405TIP3    H158630   3.537   6.169   0.187  0.2500 -0.7791 -0.3850
12405TIP3    H258631   3.677   6.228   0.185 -0.5711  1.2373 -0.2230
12406TIP3   OH258632   0.404   0.672  11.983 -0.0445 -0.3817 -0.3826
12406TIP3    H158633   0.321   0.686  11.936  0.0740 -1.0757 -0.8005
12406TIP3    H258634   0.432   0.760  12.008 -0.5507 -0.0805 -0.8559
12407TIP3   OH258635   3.114   5.559   6.029 -0.7327  0.1855  0.4466
12407TIP3    H158636   3.148   5.506   5.957 -2.9710  1.2446 -1.5154
12407TIP3    H258637   3.127   5.504   6.106  0.9481 -1.3752 -0.8309
12408TIP3   OH258638   2.818   5.593   3.267  0.1159 -0.1870  0.1610
12408TIP3    H158639   2.823   5.523   3.203 -3.0134  0.4110 -0.8983
12408TIP3    H258640   2.909   5.605   3.296  1.1881 -2.5807 -1.8106
12409TIP3   OH258641   5.825   4.755   2.941 -0.1508  0.0369 -0.0931
12409TIP3    H158642   5.741   4.713   2.927 -0.8103  1.4251 -0.4749
12409TIP3    H258643   5.829   4.772   3.035 -1.1789  1.6682 -0.3017
12410TIP3   OH258644   0.363   5.506   0.489 -0.1820  0.2223 -0.2543
12410TIP3    H158645   0.315   5.520   0.571 -2.4725  0.4074 -1.5437
12410TIP3    H258646   0.411   5.425   0.503 -0.2041  0.4637  1.3958
12411TIP3   OH258647   3.460   2.910   0.259  0.0310  0.4568  0.0492
12411TIP3    H158648   3.389   2.895   0.196 -1.3448 -0.2486  1.6867
12411TIP3    H258649   3.451   3.001   0.285 -0.3948  0.3258  0.3709
12412TIP3   OH258650   6.200   1.142  16.825 -0.1989  0.0981  0.3274
12412TIP3    H158651   6.138   1.207  16.792 -0.9684 -0.7874  0.0123
12412TIP3    H258652   6.277   1.194  16.849 -1.0627  1.2216  0.7827
12413TIP3   OH258653   6.725   0.544   1.989 -0.4502 -0.3973  0.0116
12413TIP3    H158654   6.774   0.512   1.913 -0.3803  0.6245 -0.3896
12413TIP3    H258655   6.776   0.618   2.021 -0.6407 -0.6304  0.8729
12414TIP3   OH258656   3.037   2.020  17.141 -0.5772  0.4143  0.9413
12414TIP3    H158657   3.006   1.982  17.059  1.1778  0.5033  0.2125
12414TIP3    H258658   3.095   2.091  17.115 -0.3633  0.7546  2.2639
12415TIP3   OH258659   4.545   0.876   1.588  0.3511 -0.2183  0.0009
12415TIP3    H158660   4.540   0.962   1.631  1.4791  0.3580 -0.9550
12415TIP3    H258661   4.631   0.876   1.545 -0.7484 -0.6884 -2.3467
12416TIP3   OH258662   1.177   2.494  16.280  0.9216 -0.1033 -0.0794
12416TIP3    H158663   1.228   2.575  16.281  0.7914 -0.0216  0.1698
12416TIP3    H258664   1.091   2.520  16.245  0.8827 -0.1343 -0.0073
12417TIP3   OH258665   0.914   4.348  14.547  0.1422  0.1955 -0.2973
12417TIP3    H158666   0.887   4.409  14.615 -0.1496 -0.1706 -0.0867
12417TIP3    H258667   0.834   4.302  14.523  0.3966 -0.2261 -0.3373
12418TIP3   OH258668   3.763   0.364   0.827 -0.3218  0.0405  0.5700
12418TIP3    H158669   3.806   0.419   0.893  2.4746 -0.4247 -0.7428
12418TIP3    H258670   3.794   0.276   0.846 -2.0192 -0.6181  0.5081
12419TIP3   OH258671   1.980   5.977  14.336 -0.4153 -0.0786  0.3911
12419TIP3    H158672   2.002   6.012  14.250  0.6422  1.2514  1.1625
12419TIP3    H258673   2.058   5.931  14.365 -0.5867 -0.0818  0.8583
12420TIP3   OH258674   4.422   5.914   2.151 -0.5139  0.1962  0.4494
12420TIP3    H158675   4.510   5.918   2.113 -0.9951 -2.2305 -1.1438
12420TIP3    H258676   4.435   5.869   2.235 -0.0646  1.4647  1.1015
12421TIP3   OH258677   2.522   0.128   5.498 -0.2443 -0.4264 -0.0301
12421TIP3    H158678   2.523   0.111   5.592 -0.2749 -2.1289 -0.3003
12421TIP3    H258679   2.582   0.202   5.487  0.1644 -0.5277  1.2729
12422TIP3   OH258680   6.663   3.427   6.545 -0.3955 -0.3605 -0.2502
12422TIP3    H158681   6.753   3.462   6.543  0.0900 -1.4745  0.7072
12422TIP3    H258682   6.608   3.502   6.526  0.6833  0.6287  0.3585
12423TIP3   OH258683   2.582   5.810  17.119  0.2614 -0.1219  0.0673
12423TIP3    H158684   2.632   5.829  17.040  0.6279 -0.6576  0.1653
12423TIP3    H258685   2.637   5.750  17.169 -0.4859 -0.7630  0.1565
12424TIP3   OH258686   3.556   1.405   4.934 -0.2618 -0.3350  0.5711
12424TIP3    H158687   3.546   1.496   4.906  0.6811 -0.4771 -0.2654
12424TIP3    H258688   3.650   1.391   4.939 -0.3817 -0.7187  2.5908
12425TIP3   OH258689   3.637   6.014   1.528  0.0344  0.4413 -0.0166
12425TIP3    H158690   3.643   6.108   1.548 -0.7683  0.2521  1.2971
12425TIP3    H258691   3.554   5.987   1.568 -0.1820 -0.6611 -1.1520
12426TIP3   OH258692   3.512   3.810  16.671 -0.0511 -0.5608 -0.3858
12426TIP3    H158693   3.465   3.752  16.611  0.5793 -1.4489 -0.0457
12426TIP3    H258694   3.531   3.755  16.748  0.7455  0.0246 -0.1502
12427TIP3   OH258695   3.981   2.190   5.016  0.0579 -0.1685  0.5095
12427TIP3    H158696   3.892   2.190   4.981  0.2042  0.2317  0.1227
12427TIP3    H258697   4.036   2.206   4.939  0.6185 -2.4174  0.3700
12428TIP3   OH258698   5.754   0.667  13.419  0.0047 -0.4114  0.1778
12428TIP3    H158699   5.784   0.596  13.476 -0.1616 -0.6553 -0.0388
12428TIP3    H258700   5.804   0.744  13.448 -0.5611 -0.3750  1.0955
12429TIP3   OH258701   0.660   2.510  13.677  0.2873  0.0140  0.3388
12429TIP3    H158702   0.692   2.587  13.631  1.0450 -1.4189 -1.6606
12429TIP3    H258703   0.619   2.545  13.757  0.6929  2.4347 -0.4357
12430TIP3   OH258704   6.293   0.191  15.830 -0.2820 -0.7384 -0.0939
12430TIP3    H158705   6.227   0.223  15.769 -3.0365  0.5477  3.2827
12430TIP3    H258706   6.271   0.099  15.843 -1.8865 -0.1935  1.4096
12431TIP3   OH258707   0.294   0.007   0.092 -0.2662  0.2566 -0.1295
12431TIP3    H158708   0.284   0.094   0.130 -1.9193  0.5328 -1.0999
12431TIP3    H258709   0.322   0.023   0.002  1.8743 -0.3370  0.3636
12432TIP3   OH258710   4.578   6.624  12.459 -0.3593  0.0971 -0.1514
12432TIP3    H158711   4.596   6.592  12.548  0.8170 -2.7663 -1.3145
12432TIP3    H258712   4.564   6.718  12.470  3.9605  0.6764  2.5492
12433TIP3   OH258713   5.361   6.104  13.327  0.2541  0.1749  0.2611
12433TIP3    H158714   5.307   6.159  13.270 -1.7952 -0.8066  1.1349
12433TIP3    H258715   5.439   6.084  13.275 -0.2516  1.5894 -1.1105
12434TIP3   OH258716   5.919   1.595   4.276  0.4032 -0.0997 -0.7413
12434TIP3    H158717   5.855   1.589   4.346  1.1253  2.4611  0.2230
12434TIP3    H258718   5.984   1.528   4.297 -0.7342 -1.1591 -0.4879
12435TIP3   OH258719   1.407   4.589  15.984 -0.3799  0.0161 -0.4653
12435TIP3    H158720   1.428   4.550  16.069 -1.3525  1.6070  0.5829
12435TIP3    H258721   1.315   4.568  15.970 -0.1231 -0.5705 -1.3396
12436TIP3   OH258722   5.259   4.777  13.308  0.3042 -0.6027  0.0770
12436TIP3    H158723   5.200   4.722  13.256  1.6855  0.3360 -2.6894
12436TIP3    H258724   5.233   4.867  13.286  2.8108 -0.1589 -1.4681
12437TIP3   OH258725   5.094   4.484  12.839 -0.2830  0.4400  0.3375
12437TIP3    H158726   5.060   4.553  12.896 -1.3610 -0.7852  1.2265
12437TIP3    H258727   5.032   4.479  12.766 -0.7406 -0.2167  0.7624
12438TIP3   OH258728   4.208   3.732   5.104  0.0315  0.5488  0.2407
12438TIP3    H158729   4.185   3.824   5.115  0.3077  0.9318 -1.9823
12438TIP3    H258730   4.259   3.729   5.023 -0.6211 -1.6620 -0.1657
12439TIP3   OH258731   1.808   3.170   2.311 -0.1570  0.4226  0.1986
12439TIP3    H158732   1.813   3.202   2.221  1.6409 -0.7180 -0.1491
12439TIP3    H258733   1.819   3.249   2.364 -0.9952  1.0773 -0.5631
12440TIP3   OH258734   0.880   0.106  11.233 -0.4226 -0.0136  0.3311
12440TIP3    H158735   0.901   0.017  11.260 -1.5948 -0.0167  1.3134
12440TIP3    H258736   0.820   0.138  11.300 -1.4883  0.8653 -0.9798
12441TIP3   OH258737   2.397   4.623   3.660 -0.1092 -0.0516 -0.1240
12441TIP3    H158738   2.456   4.645   3.732 -1.4192  0.3206  0.8696
12441TIP3    H258739   2.443   4.651   3.581  2.0323 -1.8189  0.3803
12442TIP3   OH258740   2.416   1.587   3.833  0.5393  0.6337  0.0358
12442TIP3    H158741   2.401   1.529   3.759  0.3808 -1.4052  1.5668
12442TIP3    H258742   2.400   1.675   3.799 -2.3291 -0.4090 -1.6373
12443TIP3   OH258743   2.860   6.408  14.199  0.5841 -0.3223  0.3578
12443TIP3    H158744   2.791   6.397  14.264  0.0773 -1.2366 -0.3044
12443TIP3    H258745   2.933   6.355  14.233  0.0382 -1.4593 -0.1840
12444TIP3   OH258746   4.430   1.150   3.889  0.2421  0.6317  0.3459
12444TIP3    H158747   4.476   1.209   3.829  0.7340  0.8022  0.8754
12444TIP3    H258748   4.354   1.120   3.840  1.6093 -0.7286 -1.0652
12445TIP3   OH258749   0.842   0.043   2.006  0.6467  0.0058  0.5864
12445TIP3    H158750   0.905  -0.027   2.022  0.8441  0.4721  1.9429
12445TIP3    H258751   0.861   0.109   2.073 -2.2691 -0.5069  2.0642
12446TIP3   OH258752   6.657   6.730   4.603 -0.1592 -0.7152  0.4715
12446TIP3    H158753   6.619   6.690   4.680 -1.3782 -0.0656  0.2324
12446TIP3    H258754   6.715   6.798   4.637 -0.1779 -0.8741  0.8203
12447TIP3   OH258755   0.379   0.254   2.403  0.3555 -0.0011  0.1866
12447TIP3    H158756   0.429   0.196   2.346  0.5444 -1.3946  1.7077
12447TIP3    H258757   0.444   0.313   2.440  0.0170  2.1371 -2.2882
12448TIP3   OH258758   0.468   1.656  11.620 -0.6422 -0.0356  0.1178
12448TIP3    H158759   0.515   1.740  11.624 -1.3244  0.3421  0.3243
12448TIP3    H258760   0.384   1.678  11.580 -1.6554 -0.2241  2.0368
12449TIP3   OH258761   1.657   4.792   2.703 -0.4947 -0.4946 -0.0156
12449TIP3    H158762   1.602   4.788   2.781 -0.1949 -1.4909  0.1564
12449TIP3    H258763   1.613   4.854   2.645 -1.7650 -1.2465  0.1281
12450TIP3   OH258764   5.598   5.886   4.295  0.1671  0.4470 -0.0852
12450TIP3    H158765   5.505   5.872   4.315 -0.0040  0.6035 -0.7530
12450TIP3    H258766   5.644   5.842   4.366 -0.4235  0.9901  0.6527
12451TIP3   OH258767   6.623   2.145  13.092  0.5683 -0.5270  0.0208
12451TIP3    H158768   6.599   2.070  13.037  0.9345 -0.3396 -0.4047
12451TIP3    H258769   6.572   2.218  13.057 -0.4279 -0.7492  0.9712
12452TIP3   OH258770   6.397   1.329   1.336  0.3434 -0.3473  0.4412
12452TIP3    H158771   6.406   1.403   1.276  0.3748 -0.5405  0.2060
12452TIP3    H258772   6.462   1.266   1.305  0.3217 -0.4692  0.6470
12453TIP3   OH258773   6.375   3.895   1.334  0.7466 -0.6493 -0.1464
12453TIP3    H158774   6.365   3.854   1.248  0.5396 -0.4011 -0.2437
12453TIP3    H258775   6.432   3.970   1.318  0.6405 -0.5543 -0.0858
12454TIP3   OH258776   4.362   0.423   4.276 -0.1376 -0.2008  0.0164
12454TIP3    H158777   4.388   0.365   4.204 -1.1629 -0.0727 -0.4777
12454TIP3    H258778   4.307   0.368   4.332  0.5210 -0.2531  0.6253
12455TIP3   OH258779   0.954   4.441   1.387 -0.2754 -0.3762  0.4147
12455TIP3    H158780   0.999   4.357   1.375  0.2918  0.0402 -0.4459
12455TIP3    H258781   1.019   4.497   1.431 -0.7649 -0.4715  1.2982
12456TIP3   OH258782   3.055   1.832   5.054 -0.4870  0.5302 -0.4642
12456TIP3    H158783   3.044   1.803   4.963 -0.8054 -0.0751 -0.2401
12456TIP3    H258784   3.136   1.790   5.083 -1.0061 -0.2464 -0.1036
12457TIP3   OH258785   1.337   1.356   6.743  0.1328  0.3847 -0.4286
12457TIP3    H158786   1.257   1.400   6.714  0.6267  0.2638 -2.0309
12457TIP3    H258787   1.407   1.420   6.727  0.7885 -0.7118 -2.2872
12458TIP3   OH258788   1.690   4.573  15.932 -0.3071 -0.1737 -0.1403
12458TIP3    H158789   1.768   4.599  15.981  1.1593  0.1187 -2.4739
12458TIP3    H258790   1.652   4.656  15.903  0.3947 -0.3802 -1.7290
12459TIP3   OH258791   0.753   1.014   3.109  0.8204 -0.0983 -0.2172
12459TIP3    H158792   0.827   1.009   3.170 -0.8554 -0.5533  1.8614
12459TIP3    H258793   0.730   0.922   3.092  1.2275  0.0172 -1.5795
12460TIP3   OH258794   0.487   4.433  11.593 -0.2870 -0.2723  0.1986
12460TIP3    H158795   0.413   4.388  11.551 -0.9573  0.6788  0.3257
12460TIP3    H258796   0.495   4.392  11.679  0.4168 -1.5168 -0.4387
12461TIP3   OH258797   2.637   6.114   0.907  0.1583 -0.4640  0.3212
12461TIP3    H158798   2.635   6.020   0.888  1.2024 -0.5962  0.8229
12461TIP3    H258799   2.697   6.122   0.981  0.0947  0.6027  0.2637
12462TIP3   OH258800   4.463   3.099   1.014  0.2017 -0.2515  0.4261
12462TIP3    H158801   4.408   3.094   1.093 -0.7446  0.8666 -0.1191
12462TIP3    H258802   4.435   3.024   0.961 -1.8048  0.9739 -0.4023
12463TIP3   OH258803   1.878   3.454   4.061 -0.4288 -0.1139  0.2205
12463TIP3    H158804   1.902   3.382   4.003  0.8211  0.1090  0.4266
12463TIP3    H258805   1.793   3.483   4.029 -0.8572 -1.5287  0.0075
12464TIP3   OH258806   4.317   4.730   2.893 -0.1859 -0.3028 -0.4948
12464TIP3    H158807   4.254   4.733   2.965 -0.5382 -0.6194 -0.7841
12464TIP3    H258808   4.264   4.733   2.814  0.2161  0.3755 -0.7494
12465TIP3   OH258809   4.637   2.606  13.115 -0.1380  0.0504 -0.1330
12465TIP3    H158810   4.564   2.567  13.067  0.0603  0.2158 -0.5777
12465TIP3    H258811   4.711   2.548  13.097 -0.2753 -0.4213  0.7570
12466TIP3   OH258812   0.016   6.757  13.631 -0.2987  0.1318 -0.0501
12466TIP3    H158813  -0.061   6.813  13.627 -0.6522 -0.2492  1.0200
12466TIP3    H258814   0.076   6.803  13.690  0.5398  0.6887 -1.2860
12467TIP3   OH258815   6.689   5.807   5.320  0.0353  0.0062  0.0943
12467TIP3    H158816   6.659   5.796   5.410  0.2320  0.0641  0.1679
12467TIP3    H258817   6.754   5.877   5.326  1.9578 -1.7231  0.3214
12468TIP3   OH258818   4.860   2.897  11.540  0.5413  0.2973 -0.3383
12468TIP3    H158819   4.867   2.934  11.452 -0.6463 -0.8133 -0.9287
12468TIP3    H258820   4.822   2.810  11.527  0.8463 -0.1087  1.2298
12469TIP3   OH258821   2.636   0.064  15.111  0.5398 -0.1994 -0.6184
12469TIP3    H158822   2.584   0.001  15.161 -0.5746  1.8746  1.0147
12469TIP3    H258823   2.719   0.069  15.158  0.2560  0.2391 -0.1488
12470TIP3   OH258824   0.779   5.882  16.873 -0.0812  0.0461  0.2513
12470TIP3    H158825   0.753   5.973  16.861  0.7793  0.0909 -1.6010
12470TIP3    H258826   0.866   5.887  16.913 -1.1273 -0.0518  2.7057
12471TIP3   OH258827   0.592   3.143   1.681 -0.5400 -0.6804 -0.2361
12471TIP3    H158828   0.636   3.119   1.763 -1.3117 -2.3535 -0.2831
12471TIP3    H258829   0.598   3.239   1.679 -0.5599 -0.5846  1.7945
12472TIP3   OH258830   1.712   2.044   0.648  0.0537 -0.5556  0.8186
12472TIP3    H158831   1.700   2.138   0.634 -1.3535 -0.9724 -1.3178
12472TIP3    H258832   1.785   2.038   0.710 -0.4145  1.9394  1.7201
12473TIP3   OH258833   3.597   0.227   2.614 -0.1722  0.5053  0.6305
12473TIP3    H158834   3.576   0.256   2.526 -2.2160 -3.6599 -0.4995
12473TIP3    H258835   3.692   0.234   2.620  0.3234 -1.3029 -2.9067
12474TIP3   OH258836   6.411   2.028  12.705 -0.0269 -0.1038 -0.0746
12474TIP3    H158837   6.376   2.117  12.707  1.3267  0.4749  2.5844
12474TIP3    H258838   6.449   2.019  12.618 -0.4162  1.8222 -0.4885
12475TIP3   OH258839   3.315   5.981   2.498  0.4734 -0.1877 -0.1468
12475TIP3    H158840   3.311   5.885   2.497 -1.1064 -0.1666 -1.7784
12475TIP3    H258841   3.285   6.007   2.411 -1.3554  1.8517  0.9979
12476TIP3   OH258842   0.895   3.318   0.943  0.2445  0.1531 -0.4893
12476TIP3    H158843   0.890   3.258   0.869 -0.1569 -0.8040  0.3044
12476TIP3    H258844   0.818   3.374   0.934 -0.5670 -0.8712 -0.0279
12477TIP3   OH258845   3.168   3.058   2.954 -0.2115  0.4760  0.7861
12477TIP3    H158846   3.083   3.090   2.984 -1.0835 -0.7221 -0.2893
12477TIP3    H258847   3.147   2.998   2.883  1.5943  0.7926 -0.0702
12478TIP3   OH258848   2.069   3.017   5.359 -0.1814  0.4385 -0.0869
12478TIP3    H158849   2.165   3.013   5.355 -0.2309 -0.3110 -0.7868
12478TIP3    H258850   2.045   2.947   5.420 -0.3346 -0.3095 -0.9753
12479TIP3   OH258851   5.147   0.172   5.297  0.1959 -0.0871 -0.6106
12479TIP3    H158852   5.069   0.119   5.280  0.5380 -0.2976 -1.5436
12479TIP3    H258853   5.218   0.108   5.307 -0.1492 -0.1097  2.9518
12480TIP3   OH258854   6.561   0.872  14.618  0.2035  0.3948 -0.1530
12480TIP3    H158855   6.513   0.932  14.562 -0.4363  0.4027  0.3969
12480TIP3    H258856   6.625   0.927  14.663 -0.4891  0.7035  0.4718
12481TIP3   OH258857   1.327   0.544   0.466 -0.0595 -0.4148  0.0933
12481TIP3    H158858   1.373   0.624   0.439  0.2664 -0.1298  1.3885
12481TIP3    H258859   1.306   0.499   0.384 -0.6265  1.2032 -0.6855
12482TIP3   OH258860   3.918   4.836   0.552  0.4351 -0.0830  0.0961
12482TIP3    H158861   3.945   4.886   0.474 -0.8766  0.6485  0.0808
12482TIP3    H258862   3.968   4.754   0.547  0.8849  0.2491 -1.1398
12483TIP3   OH258863   1.010   3.514  15.944  0.0305 -0.3209 -0.0049
12483TIP3    H158864   1.047   3.525  16.032 -1.5965  1.5892  0.5301
12483TIP3    H258865   1.001   3.420  15.933  2.4732 -0.7310  0.8862
12484TIP3   OH258866   6.447   5.844  13.989  0.4745  0.2473  0.4532
12484TIP3    H158867   6.500   5.837  14.069  0.1208 -1.6430  0.5674
12484TIP3    H258868   6.404   5.928  13.996  1.9118  0.9547  1.3282
12485TIP3   OH258869   2.509   2.535  12.247 -0.2846  0.0483 -0.1596
12485TIP3    H158870   2.456   2.459  12.270 -0.9531 -0.0203 -1.8113
12485TIP3    H258871   2.481   2.558  12.158 -0.6754  2.6937  0.5536
12486TIP3   OH258872   1.152   2.700   3.035 -0.5005 -0.2439 -0.7248
12486TIP3    H158873   1.196   2.783   3.053 -1.4139  0.2638 -0.7940
12486TIP3    H258874   1.114   2.674   3.118  1.6227 -1.7479 -0.1314
12487TIP3   OH258875   4.325   6.235  17.040  0.2798 -0.0109  0.3533
12487TIP3    H158876   4.309   6.328  17.026  0.0524  0.1982  1.8252
12487TIP3    H258877   4.420   6.228  17.050  0.6155 -0.3718 -2.4477
12488TIP3   OH258878   1.554   1.837   2.534  0.0449  0.5219  0.3979
12488TIP3    H158879   1.536   1.921   2.577  3.0645  1.4794  0.0907
12488TIP3    H258880   1.632   1.804   2.579  2.0242  0.4754 -2.7074
12489TIP3   OH258881   5.586   2.042  14.055 -0.1909  0.0059 -0.5526
12489TIP3    H158882   5.660   2.080  14.103 -0.1357  0.5505 -1.0484
12489TIP3    H258883   5.509   2.085  14.093 -0.1010  0.9586 -1.3894
12490TIP3   OH258884   5.370   4.041   2.902 -0.4754  0.0016 -0.0375
12490TIP3    H158885   5.437   4.006   2.843 -1.5089 -0.5024 -0.9392
12490TIP3    H258886   5.418   4.062   2.982  0.7824 -0.2380 -0.7005
12491TIP3   OH258887   1.392   1.820  12.429 -0.1738 -0.6366  0.7467
12491TIP3    H158888   1.440   1.893  12.467 -3.2122  2.3457 -0.6723
12491TIP3    H258889   1.376   1.761  12.502  0.3062  1.3481  2.5387
12492TIP3   OH258890   5.096   5.160  12.500 -0.5866  0.4031  0.4364
12492TIP3    H158891   5.074   5.139  12.591 -0.6813 -0.3795  0.2348
12492TIP3    H258892   5.191   5.168  12.499 -0.4854 -0.7374  0.3684
12493TIP3   OH258893   5.484   5.066  11.594  0.2762 -0.0362 -0.5363
12493TIP3    H158894   5.428   5.046  11.669 -0.3949  4.2231  0.3461
12493TIP3    H258895   5.572   5.042  11.623  0.1374  2.0913  2.0603
12494TIP3   OH258896   6.151   3.203  16.996 -0.4678  0.1143  0.6183
12494TIP3    H158897   6.116   3.128  16.947 -0.3646 -0.5449  1.5333
12494TIP3    H258898   6.084   3.222  17.061 -0.4553  0.7771  0.4438
12495TIP3   OH258899   2.789   3.037  12.770 -0.5757 -0.1772 -0.2843
12495TIP3    H158900   2.840   2.957  12.783 -1.4344 -0.7346 -0.2584
12495TIP3    H258901   2.701   3.005  12.747 -0.7365  0.7581 -1.0161
12496TIP3   OH258902   5.188   1.966   4.548  0.4790 -0.1723  0.2825
12496TIP3    H158903   5.200   2.053   4.512 -0.5448  1.2985  3.1994
12496TIP3    H258904   5.094   1.950   4.541 -0.0195  0.8363  3.4848
12497TIP3   OH258905   4.638   1.749   0.986 -0.1919  0.1500 -0.1410
12497TIP3    H158906   4.574   1.679   0.972  0.8747 -0.8483 -0.1569
12497TIP3    H258907   4.722   1.704   0.992  0.5056  1.4247  0.0085
12498TIP3   OH258908   3.806   6.488  16.518 -0.5577 -0.0882 -0.1641
12498TIP3    H158909   3.887   6.533  16.494  0.5137 -1.1813  1.2322
12498TIP3    H258910   3.737   6.551  16.500  0.3735  0.2527 -3.1336
12499TIP3   OH258911   4.925   1.490  15.976  0.4178 -0.5530 -0.5283
12499TIP3    H158912   5.007   1.458  16.013  0.4512  2.0007  1.9536
12499TIP3    H258913   4.858   1.436  16.019  0.6661 -0.6690 -0.2789
12500TIP3   OH258914   5.760   4.986  10.831 -0.1347 -0.2872 -0.3431
12500TIP3    H158915   5.763   5.074  10.868 -1.3738  0.0799 -1.0463
12500TIP3    H258916   5.775   4.928  10.905 -0.9045  0.4785  0.4398
12501TIP3   OH258917   5.633   3.931  16.787 -0.1421 -0.4267 -1.2725
12501TIP3    H158918   5.603   4.022  16.780  0.1632 -0.3538 -1.6564
12501TIP3    H258919   5.625   3.896  16.699  0.4744 -0.5379 -1.2887
12502TIP3   OH258920   5.145   5.840   2.051  0.5493 -0.1825 -0.5016
12502TIP3    H158921   5.096   5.910   2.094  0.0082 -0.6977 -0.2572
12502TIP3    H258922   5.130   5.763   2.107  0.5534 -0.6540 -1.1425
12503TIP3   OH258923   0.794   4.914  14.103  0.4332 -0.1097  0.7837
12503TIP3    H158924   0.872   4.929  14.156  2.7894 -0.8558 -2.2196
12503TIP3    H258925   0.784   4.819  14.100  0.7583 -0.1192 -0.6127
12504TIP3   OH258926   2.307   6.136   4.993  0.4500 -0.0111  0.6826
12504TIP3    H158927   2.304   6.148   4.898 -0.4130  2.4065  0.9310
12504TIP3    H258928   2.364   6.061   5.006  0.6103 -0.4002 -1.7427
12505TIP3   OH258929   5.385   2.500   3.860  0.5363 -0.3045  0.3235
12505TIP3    H158930   5.394   2.494   3.765 -0.6631  0.0951  0.1564
12505TIP3    H258931   5.413   2.415   3.893  1.0859 -0.4018 -0.3765
12506TIP3   OH258932   4.919   2.230  15.419 -0.1464 -0.2001  0.4131
12506TIP3    H158933   5.013   2.228  15.438 -0.2689  0.2735  1.1027
12506TIP3    H258934   4.884   2.154  15.465 -0.4543  0.9857  2.2508
12507TIP3   OH258935   2.562   0.202   0.500 -0.4239 -0.4999  0.4674
12507TIP3    H158936   2.494   0.188   0.565 -0.9127 -4.1522 -0.5991
12507TIP3    H258937   2.638   0.154   0.533 -0.1249 -0.9644 -0.8285
12508TIP3   OH258938   1.959   0.304  13.047 -0.7915 -0.1830 -0.1186
12508TIP3    H158939   1.975   0.277  12.956  0.2482  2.3118 -0.7670
12508TIP3    H258940   1.949   0.221  13.095 -0.2915 -1.6018 -2.2937
12509TIP3   OH258941   1.575   1.690  13.976 -0.1553  0.3762  0.2816
12509TIP3    H158942   1.519   1.685  14.054 -0.4284 -2.4610  0.0092
12509TIP3    H258943   1.515   1.672  13.904  0.4898  0.7703 -0.3549
12510TIP3   OH258944   2.936   3.922   3.644 -0.1082  0.0360  0.5746
12510TIP3    H158945   2.870   3.948   3.708 -0.1737  1.7302 -0.1308
12510TIP3    H258946   2.933   3.826   3.644 -1.5348  0.0485  1.6120
12511TIP3   OH258947   2.381   4.210   0.306 -0.4101 -0.0186 -0.2517
12511TIP3    H158948   2.403   4.175   0.220  0.4180  1.9586 -0.8940
12511TIP3    H258949   2.412   4.144   0.368  0.2017 -0.8524 -1.4137
12512TIP3   OH258950   1.139   2.336  10.722  0.0566 -0.0141  0.1868
12512TIP3    H158951   1.145   2.431  10.719  0.8702 -0.0637  0.1274
12512TIP3    H258952   1.207   2.305  10.663 -2.0054 -0.6266 -2.0137
12513TIP3   OH258953   1.968   1.490  11.061  0.1102 -0.4625 -0.4231
12513TIP3    H158954   1.924   1.479  11.146  1.4998 -0.2154  0.3571
12513TIP3    H258955   2.029   1.416  11.057  0.1391 -0.3992 -1.1645
12514TIP3   OH258956   2.389   1.245   2.388 -0.6786  0.5872 -0.1623
12514TIP3    H158957   2.324   1.175   2.384 -0.3686  0.2405  0.6730
12514TIP3    H258958   2.444   1.231   2.311 -0.4712 -0.2378  0.1280
12515TIP3   OH258959   5.910   1.109   5.082 -0.0308  0.1474 -0.3042
12515TIP3    H158960   5.874   1.135   4.998  1.3460  1.8317 -0.4382
12515TIP3    H258961   5.887   1.180   5.142  0.9869  0.1164  0.1576
12516TIP3   OH258962   2.162   6.398  12.569  0.6984 -0.3090 -0.0468
12516TIP3    H158963   2.145   6.406  12.663 -2.4259 -0.3449 -0.4909
12516TIP3    H258964   2.189   6.307  12.558  2.4943  0.0511  0.9132
12517TIP3   OH258965   5.746   1.842   2.097  0.3050  0.0270 -1.0378
12517TIP3    H158966   5.699   1.919   2.067  0.6913  0.6303 -0.1323
12517TIP3    H258967   5.736   1.844   2.193  1.6103 -0.1957 -0.8842
12518TIP3   OH258968   3.478   4.600   2.146 -0.2118 -0.2206  0.7508
12518TIP3    H158969   3.491   4.520   2.094 -2.3301 -1.5357  2.1040
12518TIP3    H258970   3.461   4.668   2.081  1.5838 -0.8255 -0.4292
12519TIP3   OH258971   4.822   5.065  11.366 -0.6145 -0.2547 -0.3452
12519TIP3    H158972   4.732   5.039  11.346 -0.8711  0.8260 -0.6352
12519TIP3    H258973   4.849   5.119  11.292  1.0675 -2.3087 -1.3410
12520TIP3   OH258974   0.707   5.037   2.180  0.0837  0.3667 -0.0729
12520TIP3    H158975   0.752   5.038   2.095 -3.0795 -1.3970 -1.9449
12520TIP3    H258976   0.646   5.111   2.176  0.1733  0.5070  0.8755
12521TIP3   OH258977   3.484   2.168   3.362  0.2193  0.0792 -0.6427
12521TIP3    H158978   3.426   2.244   3.362 -1.1068 -0.8921 -0.6364
12521TIP3    H258979   3.465   2.124   3.279  1.6913  0.2503 -1.1062
12522TIP3   OH258980   1.782   5.602   3.774  0.1203  0.3226 -0.6037
12522TIP3    H158981   1.873   5.624   3.792  0.7541 -2.2603 -0.2243
12522TIP3    H258982   1.740   5.600   3.860  0.0881  0.0576 -0.6242
12523TIP3   OH258983   0.810   2.617  15.762  0.4144  0.2445 -0.0004
12523TIP3    H158984   0.767   2.672  15.697  2.3051 -0.0924 -1.6112
12523TIP3    H258985   0.742   2.555  15.789 -0.2632 -0.0524 -2.1915
12524TIP3   OH258986   0.122   5.649   5.895  0.6688 -0.4822 -0.1493
12524TIP3    H158987   0.206   5.608   5.916 -0.0511 -1.6964  0.5138
12524TIP3    H258988   0.096   5.609   5.812  0.7215 -0.1539 -0.3236
12525TIP3   OH258989   4.659   5.487   3.879 -0.2580 -0.3327  0.3830
12525TIP3    H158990   4.660   5.583   3.876  1.3107 -0.3032  0.8364
12525TIP3    H258991   4.621   5.466   3.964 -1.0367 -0.1419  0.0935
12526TIP3   OH258992   0.552   3.008  11.943  0.1775 -0.6836 -0.0425
12526TIP3    H158993   0.521   2.945  11.877 -2.8975  1.5345 -0.9611
12526TIP3    H258994   0.545   2.961  12.026 -2.0792 -1.6240 -0.6781
12527TIP3   OH258995   3.295   3.716   0.960  0.2629 -0.0140 -0.0029
12527TIP3    H158996   3.223   3.659   0.931  0.8536 -0.3029 -0.9419
12527TIP3    H258997   3.261   3.805   0.948 -0.7628 -0.1217  1.7108
12528TIP3   OH258998   3.372   2.524   1.324  0.5516  0.4318  0.3388
12528TIP3    H158999   3.304   2.505   1.389 -0.7518  2.3681 -0.3656
12528TIP3    H259000   3.330   2.504   1.240  2.2623 -2.1926 -0.0058
12529TIP3   OH259001   1.252   3.597  12.649 -0.1872 -0.1770  0.1276
12529TIP3    H159002   1.243   3.588  12.744  1.9500 -1.7659  0.2573
12529TIP3    H259003   1.318   3.665  12.637 -0.5055  0.0750 -0.2393
12530TIP3   OH259004   0.125   4.538  12.595  0.0241 -0.3919 -0.1171
12530TIP3    H159005   0.138   4.632  12.581  1.7751 -0.5249  0.3995
12530TIP3    H259006   0.178   4.496  12.527 -0.0612 -1.0207  0.2004
12531TIP3   OH259007   1.104   1.461   0.205  0.1382 -0.5553 -0.0664
12531TIP3    H159008   1.197   1.439   0.205 -0.0696 -1.5528  0.7946
12531TIP3    H259009   1.097   1.536   0.147  1.6595  0.3089  0.7799
12532TIP3   OH259010   5.498   0.394   5.500 -0.0125  0.0201  0.2544
12532TIP3    H159011   5.488   0.372   5.592 -0.3699 -0.3672  0.1252
12532TIP3    H259012   5.524   0.313   5.458  0.9619  0.3793  0.1322
12533TIP3   OH259013   0.696   1.837   1.927 -0.2557  0.3748 -0.1018
12533TIP3    H159014   0.679   1.882   1.845  0.5818  0.2190 -0.3747
12533TIP3    H259015   0.611   1.801   1.953 -0.3723 -0.2720 -1.3151
12534TIP3   OH259016   1.272   5.744  14.833 -0.1266 -0.7543  0.5558
12534TIP3    H159017   1.291   5.741  14.927 -2.1719  1.7723  1.1825
12534TIP3    H259018   1.177   5.753  14.828  0.0651  0.9706 -1.6519
12535TIP3   OH259019   1.719   6.516   2.472 -0.1588  0.2391  0.1004
12535TIP3    H159020   1.672   6.596   2.449 -0.3750  0.4986  1.3522
12535TIP3    H259021   1.686   6.451   2.411 -0.6554  0.8967 -0.3490
12536TIP3   OH259022   2.480   4.583  14.952 -0.0833 -0.8549 -0.0665
12536TIP3    H159023   2.461   4.676  14.939 -0.6918 -0.8281  0.9468
12536TIP3    H259024   2.427   4.538  14.885 -2.4713 -0.6687  1.5922
12537TIP3   OH259025   4.750   5.671   5.202 -0.0039  0.9271  0.0507
12537TIP3    H159026   4.768   5.765   5.209  1.4608  0.8293 -1.6943
12537TIP3    H259027   4.785   5.646   5.117 -3.1931 -0.6124 -0.9521
12538TIP3   OH259028   0.931   3.104   0.293  0.0547 -0.8072  0.6672
12538TIP3    H159029   0.931   3.008   0.297  0.8557 -0.8641 -0.3452
12538TIP3    H259030   0.879   3.125   0.215 -1.6233 -0.3335  1.8609
12539TIP3   OH259031   2.822   1.778  14.853  0.6060  0.0987 -0.1252
12539TIP3    H159032   2.734   1.742  14.858  1.3244 -1.7669  0.0621
12539TIP3    H259033   2.870   1.733  14.923  1.3729  2.1759  0.7740
12540TIP3   OH259034   1.861   1.813   0.252  0.9901  0.4023 -0.1070
12540TIP3    H159035   1.900   1.741   0.204 -2.8165 -1.3328 -0.9696
12540TIP3    H259036   1.843   1.777   0.339  0.6002  0.8586  0.0074
12541TIP3   OH259037   4.644   6.108   1.360 -0.1725  0.5551 -0.3998
12541TIP3    H159038   4.706   6.037   1.342 -0.5658  0.1963 -0.3614
12541TIP3    H259039   4.697   6.187   1.360  0.3392  0.2122 -0.0360
12542TIP3   OH259040   1.942   0.770   2.772  0.0412 -0.1453 -0.4193
12542TIP3    H159041   2.030   0.777   2.810  0.4338 -0.9848 -1.1430
12542TIP3    H259042   1.957   0.739   2.683 -1.0206 -0.9900 -0.3261
12543TIP3   OH259043   0.643   5.732  15.178  0.1901 -0.0298  0.1347
12543TIP3    H159044   0.703   5.671  15.136  2.0660  0.1918  2.2985
12543TIP3    H259045   0.556   5.696  15.160  1.1848 -3.3275  1.1742
12544TIP3   OH259046   5.736   5.518   0.084 -0.1954  0.1985 -0.3819
12544TIP3    H159047   5.778   5.496   0.001  0.7592  1.9366 -0.4068
12544TIP3    H259048   5.800   5.573   0.129 -0.8264 -0.4414  1.3899
12545TIP3   OH259049   3.620   0.555  16.852 -0.0803 -0.3193 -0.0151
12545TIP3    H159050   3.584   0.637  16.887 -0.2019 -0.4751  0.2211
12545TIP3    H259051   3.595   0.556  16.760  1.2289  0.6497 -0.3902
12546TIP3   OH259052   0.080   1.535  11.888 -0.2614  0.1118 -0.4714
12546TIP3    H159053   0.059   1.509  11.978  0.0860  0.2338 -0.3532
12546TIP3    H259054  -0.005   1.539  11.844 -0.4836  0.5033 -0.0233
12547TIP3   OH259055   3.251   5.790   5.935  0.0140  0.5859  0.4602
12547TIP3    H159056   3.163   5.755   5.927 -0.9886  2.8334  0.8858
12547TIP3    H259057   3.307   5.713   5.941 -1.7653 -0.9216 -1.0532
12548TIP3   OH259058   0.341   1.227   0.157  0.3559  0.2301 -0.2758
12548TIP3    H159059   0.292   1.293   0.108 -0.0874  0.6339  0.6830
12548TIP3    H259060   0.432   1.256   0.152  0.3717  0.0373 -1.1995
12549TIP3   OH259061   1.640   2.184  13.519  0.5743  0.1326 -0.3538
12549TIP3    H159062   1.646   2.274  13.488 -0.4037  0.6863  0.9917
12549TIP3    H259063   1.604   2.135  13.444  2.1974  0.5928 -1.4939
12550TIP3   OH259064   4.049   3.795   5.500  0.4843  0.0957 -0.2099
12550TIP3    H159065   4.022   3.751   5.420  0.1455  1.5159 -0.9172
12550TIP3    H259066   4.138   3.764   5.517  0.2301 -0.8872 -0.6251
12551TIP3   OH259067   3.367   4.032  14.106  0.1653  0.1220  0.1515
12551TIP3    H159068   3.344   4.125  14.101 -0.5837 -0.0158  0.8140
12551TIP3    H259069   3.425   4.026  14.183 -0.2695 -0.0462  0.4702
12552TIP3   OH259070   2.869   2.189  15.659  0.0016  0.3082  0.1171
12552TIP3    H159071   2.869   2.112  15.602 -2.1337  1.0412 -1.0019
12552TIP3    H259072   2.917   2.255  15.609 -0.5455  0.5015 -0.1561
12553TIP3   OH259073   2.877   3.047   3.772  0.1801  0.0448  0.4025
12553TIP3    H159074   2.938   2.974   3.775  1.1259  0.6952 -1.4611
12553TIP3    H259075   2.889   3.085   3.685 -0.0087  2.6540  1.4260
12554TIP3   OH259076   2.459   6.434  14.732 -0.0789  0.9590  0.0078
12554TIP3    H159077   2.406   6.474  14.802 -0.7405  1.1141 -0.5759
12554TIP3    H259078   2.398   6.376  14.687  0.2593  1.1314 -0.6703
12555TIP3   OH259079   5.824   6.079  13.407 -0.3805  0.2994 -0.1454
12555TIP3    H159080   5.912   6.069  13.370 -0.2969  0.0336  0.1253
12555TIP3    H259081   5.813   6.003  13.464 -1.2635 -0.3608 -1.1455
12556TIP3   OH259082   5.609   5.069   2.235  0.8626  0.3190  0.2536
12556TIP3    H159083   5.671   5.140   2.255  3.6128 -1.7960 -0.1206
12556TIP3    H259084   5.627   5.002   2.301 -2.4268  0.3008  1.2830
12557TIP3   OH259085   1.038   3.419   0.345  0.1109  0.5623 -0.7448
12557TIP3    H159086   0.977   3.490   0.327  0.2334  0.6264 -0.9030
12557TIP3    H259087   1.118   3.462   0.376 -0.2727  0.4351  0.4732
12558TIP3   OH259088   2.465   0.560  12.914 -0.2444  0.1399 -0.6449
12558TIP3    H159089   2.538   0.558  12.852  0.0224 -0.6650 -0.3148
12558TIP3    H259090   2.444   0.653  12.923 -0.5364  0.2453 -2.2212
12559TIP3   OH259091   4.796   1.292  12.871 -0.7389 -0.3828  0.0123
12559TIP3    H159092   4.835   1.213  12.907 -1.6013 -0.2821  1.2555
12559TIP3    H259093   4.855   1.363  12.898 -0.2292 -0.5399 -0.6741
12560TIP3   OH259094   5.162   4.814   1.608 -0.3936 -0.4107 -0.0571
12560TIP3    H159095   5.132   4.881   1.670 -0.3150 -0.5582  0.1436
12560TIP3    H259096   5.095   4.811   1.541  0.5703  1.3198 -1.1692
12561TIP3   OH259097   0.268   1.465  11.657 -0.3960  0.7189  0.1522
12561TIP3    H159098   0.238   1.454  11.747 -0.2519  0.0777  0.1267
12561TIP3    H259099   0.359   1.493  11.665 -0.2429  0.2131  0.2028
12562TIP3   OH259100   1.068   3.704   5.292 -0.2379 -0.3466  0.6344
12562TIP3    H159101   1.054   3.769   5.360 -1.1433 -3.0100  3.2210
12562TIP3    H259102   1.163   3.697   5.285 -0.1311  0.9910  0.5059
12563TIP3   OH259103   1.787   1.737  15.740 -0.1896 -0.1475  0.0263
12563TIP3    H159104   1.876   1.772  15.749 -0.2853  0.3704 -0.9627
12563TIP3    H259105   1.737   1.780  15.809 -0.3529  1.8473 -1.2747
12564TIP3   OH259106   0.920   5.636   4.693 -0.3008  0.7778  0.4312
12564TIP3    H159107   1.003   5.638   4.739  0.3272  0.6357 -0.6669
12564TIP3    H259108   0.876   5.557   4.724  0.3041  0.4498  0.4499
12565TIP3   OH259109   3.933   3.745  15.847  0.2517  0.2776  0.3927
12565TIP3    H159110   3.845   3.753  15.885  0.3778  0.2693  0.6953
12565TIP3    H259111   3.918   3.726  15.755 -0.0657  0.7105  0.3524
12566TIP3   OH259112   6.628   6.254   1.094 -0.1844 -0.1968  0.0239
12566TIP3    H159113   6.631   6.197   1.170 -0.5418 -1.7203 -1.0595
12566TIP3    H259114   6.584   6.202   1.027 -1.6760  1.8186 -0.6436
12567TIP3   OH259115   2.427   2.855   1.897 -0.1786  0.2654 -0.4895
12567TIP3    H159116   2.509   2.884   1.938  0.2598  2.5571 -2.7291
12567TIP3    H259117   2.416   2.913   1.822 -4.7400  1.2431  0.6049
12568TIP3   OH259118   2.310   3.722  14.534  0.2401  0.6821  0.5246
12568TIP3    H159119   2.344   3.639  14.567 -1.0339 -0.1739 -0.2357
12568TIP3    H259120   2.354   3.734  14.450 -2.9846 -1.7307 -1.7270
12569TIP3   OH259121   4.907   3.223   4.522 -0.2576  0.1537 -0.1511
12569TIP3    H159122   4.889   3.138   4.482  1.4037 -0.0382 -0.5366
12569TIP3    H259123   4.915   3.283   4.448  0.3158  0.3049  0.0353
12570TIP3   OH259124   5.395   4.748  15.771  0.8639  0.0614  0.2678
12570TIP3    H159125   5.411   4.654  15.761  2.5333  0.4382 -1.1594
12570TIP3    H259126   5.389   4.761  15.866  1.0530 -1.4105  0.5127
12571TIP3   OH259127   4.426   4.454  16.835 -0.2232  0.4949  0.5316
12571TIP3    H159128   4.515   4.464  16.868 -0.5518  0.1151  1.5660
12571TIP3    H259129   4.383   4.538  16.853  0.3612  1.2677 -1.4368
12572TIP3   OH259130   5.620   2.007   0.092 -0.1993 -0.2152  0.5926
12572TIP3    H159131   5.644   1.974   0.005 -1.8082  0.5838 -0.1974
12572TIP3    H259132   5.548   1.951   0.120 -2.1566  1.7772 -0.2440
12573TIP3   OH259133   1.160   0.079  11.186  0.0024  0.5013  0.4010
12573TIP3    H159134   1.230   0.113  11.242 -0.3158 -0.4789  1.4356
12573TIP3    H259135   1.084   0.135  11.205  0.2216  0.9238  0.0415
12574TIP3   OH259136   5.315   0.669  11.732  0.9703 -0.6009  0.1250
12574TIP3    H159137   5.229   0.711  11.729  0.6911 -1.1270  0.4278
12574TIP3    H259138   5.350   0.677  11.643  2.1231  2.6313  0.7536
12575TIP3   OH259139   6.164   0.886  13.431  0.6477  0.0358  0.6251
12575TIP3    H159140   6.247   0.934  13.433  1.8073 -1.4025 -3.2815
12575TIP3    H259141   6.185   0.800  13.467  0.7697 -0.1328  0.1709
12576TIP3   OH259142   4.083   1.194  13.297 -0.7075  0.1589 -0.1470
12576TIP3    H159143   4.163   1.148  13.322  0.2952  1.6999 -0.3998
12576TIP3    H259144   4.026   1.187  13.374 -0.4970 -1.2572 -0.0970
12577TIP3   OH259145   2.765   3.570   0.876  0.3672 -0.2231  0.2774
12577TIP3    H159146   2.693   3.510   0.891  0.6096 -0.4543  0.5305
12577TIP3    H259147   2.726   3.645   0.832 -0.1112 -0.1424  0.8287
12578TIP3   OH259148   6.676   2.922   4.969  0.1084  0.2749 -0.2540
12578TIP3    H159149   6.642   2.894   5.054 -1.2635  1.4401 -0.3964
12578TIP3    H259150   6.709   2.841   4.929 -0.3630 -0.4953  0.8670
12579TIP3   OH259151   3.541   6.203   2.676  0.2920 -0.1744  0.5538
12579TIP3    H159152   3.532   6.240   2.588  0.3953  2.1971  1.4827
12579TIP3    H259153   3.453   6.171   2.697 -0.8486  2.9726  1.0948
12580TIP3   OH259154   0.427   0.621   6.112  0.0985  0.1672 -0.3041
12580TIP3    H159155   0.444   0.543   6.058 -0.1478 -1.6856  2.1011
12580TIP3    H259156   0.507   0.673   6.105  0.8442 -0.9983 -0.8642
12581TIP3   OH259157   3.972   4.048   5.498  0.2316 -0.1734  0.6144
12581TIP3    H159158   3.993   3.955   5.493  1.1921  0.0472  0.2023
12581TIP3    H259159   3.901   4.054   5.562 -0.3215 -1.2580  0.1243
12582TIP3   OH259160   2.580   0.474  13.212 -0.0724  0.5385 -0.3913
12582TIP3    H159161   2.591   0.566  13.236  2.1269  0.8620 -2.2075
12582TIP3    H259162   2.514   0.474  13.144  0.7252  0.9713 -1.1854
12583TIP3   OH259163   1.880   4.068  16.561 -0.2733  0.3068  0.6590
12583TIP3    H159164   1.938   4.144  16.554 -1.2703  0.9801 -0.8249
12583TIP3    H259165   1.917   4.005  16.499 -1.8717  1.2970 -1.4044
12584TIP3   OH259166   0.071   5.917  13.570  0.0696 -0.2725 -0.3942
12584TIP3    H159167  -0.008   5.886  13.613  0.1978 -0.7901 -0.5311
12584TIP3    H259168   0.139   5.912  13.637  0.4100 -1.6795 -0.8126
12585TIP3   OH259169   2.858   2.165  16.459  0.3871  0.2424 -0.0811
12585TIP3    H159170   2.798   2.093  16.442 -0.8355  0.9884  0.9599
12585TIP3    H259171   2.943   2.122  16.473 -0.1881 -0.9390 -0.0938
12586TIP3   OH259172   4.535   2.845  17.125  0.4065 -0.2756 -0.4676
12586TIP3    H159173   4.555   2.927  17.080  0.4684  0.6022  1.0748
12586TIP3    H259174   4.610   2.788  17.107  0.2388 -0.1165 -1.7703
12587TIP3   OH259175   0.135   3.460   6.574 -0.0243  0.2287 -0.0018
12587TIP3    H159176   0.225   3.449   6.544  0.1460 -3.3412  1.3652
12587TIP3    H259177   0.132   3.415   6.658 -3.2309 -0.2454 -0.2598
12588TIP3   OH259178   1.796   6.090   0.220 -0.4741 -0.7074  1.0643
12588TIP3    H159179   1.809   6.154   0.150  0.5749 -2.1381 -0.0826
12588TIP3    H259180   1.793   6.143   0.300 -0.3452  0.8280  0.0899
12589TIP3   OH259181   6.441   1.299  12.496  0.4829 -0.1119 -0.4067
12589TIP3    H159182   6.454   1.205  12.507 -0.7969 -0.6203 -2.6208
12589TIP3    H259183   6.358   1.306  12.448 -1.1619  2.3013  2.4289
12590TIP3   OH259184   6.699   3.365   0.914  0.4237 -0.3597 -0.1461
12590TIP3    H159185   6.663   3.385   0.828  0.8558 -0.5874 -0.3831
12590TIP3    H259186   6.639   3.299   0.950  0.6721 -0.8456 -0.5998
12591TIP3   OH259187   6.321   0.931  12.260  0.0716  0.2276 -0.1796
12591TIP3    H159188   6.226   0.926  12.273 -0.0037 -2.4304 -1.0108
12591TIP3    H259189   6.332   0.943  12.166  0.5389 -0.1161 -0.1767
12592TIP3   OH259190   6.126   4.434  14.446  1.0489 -0.3760  0.2491
12592TIP3    H159191   6.129   4.371  14.374 -1.5471  0.7492 -0.9717
12592TIP3    H259192   6.036   4.430  14.478  1.1518  1.8262  0.9700
12593TIP3   OH259193   6.726   5.203  17.200  0.1263 -0.0652  0.4293
12593TIP3    H159194   6.807   5.168  17.162  0.4464  2.1304 -1.0572
12593TIP3    H259195   6.657   5.175  17.139  0.2813  1.1375 -0.3283
12594TIP3   OH259196   6.139   2.242   2.102 -0.1014  0.6250  0.1689
12594TIP3    H159197   6.136   2.250   2.198 -0.3123  1.5787  0.0986
12594TIP3    H259198   6.216   2.293   2.077 -0.6978  1.3339 -0.2458
12595TIP3   OH259199   2.787   2.185   1.019  0.0067 -0.0223 -0.1936
12595TIP3    H159200   2.767   2.211   1.109 -1.8451 -0.7942 -0.3404
12595TIP3    H259201   2.882   2.183   1.016  0.1632  1.6946  1.2541
12596TIP3   OH259202   5.101   4.640  11.856 -0.0409 -0.0647 -0.2990
12596TIP3    H159203   5.122   4.689  11.776  3.0925 -1.0541 -0.2342
12596TIP3    H259204   5.129   4.550  11.837 -1.1036 -0.7697  1.2469
12597TIP3   OH259205   1.427   2.365   3.928  0.1072 -0.1690  0.0498
12597TIP3    H159206   1.359   2.303   3.957 -0.8885  0.6893 -0.3774
12597TIP3    H259207   1.509   2.317   3.940 -0.6603 -1.8157 -0.8647
12598TIP3   OH259208   4.572   2.706   2.785 -0.4127  0.9383  0.5509
12598TIP3    H159209   4.567   2.611   2.777  0.6864  0.4491  4.0212
12598TIP3    H259210   4.481   2.735   2.785 -0.7896 -0.1850  0.1176
12599TIP3   OH259211   1.034   5.228  17.022 -0.5683 -0.4631 -0.0267
12599TIP3    H159212   0.983   5.249  17.101  0.2360 -0.0770  0.4030
12599TIP3    H259213   1.088   5.154  17.048  0.1426  0.0459 -0.0045
12600TIP3   OH259214   2.350   0.565   0.203  0.0945 -0.3159 -0.3278
12600TIP3    H159215   2.404   0.495   0.239 -0.6253 -0.9533 -0.4770
12600TIP3    H259216   2.413   0.629   0.169  0.7978  0.1883  1.8012
12601TIP3   OH259217   0.469   2.499  15.125 -0.0967 -0.0279 -0.1127
12601TIP3    H159218   0.420   2.423  15.155 -0.6190  0.6243  0.7055
12601TIP3    H259219   0.413   2.540  15.059  0.6668 -0.9513 -1.4120
12602TIP3   OH259220   6.058   3.011   5.805  0.4069  0.2020  0.0571
12602TIP3    H159221   5.982   3.029   5.860 -1.1425 -2.0750 -1.1544
12602TIP3    H259222   6.066   3.087   5.748 -0.8863  0.5533  0.3253
12603TIP3   OH259223   0.746   5.849  13.431 -0.2782 -0.1720  0.0789
12603TIP3    H159224   0.831   5.805  13.424 -0.0186  0.4866 -1.1112
12603TIP3    H259225   0.682   5.779  13.419  0.1263 -0.0848 -3.6018
12604TIP3   OH259226   6.502   2.426  11.831 -0.7215 -0.2283  0.2987
12604TIP3    H159227   6.518   2.426  11.925 -0.5535 -0.3742  0.2694
12604TIP3    H259228   6.443   2.352  11.816  0.2938 -1.0239  0.1134
12605TIP3   OH259229   5.724   3.318  12.669  0.0417 -0.0607 -0.0115
12605TIP3    H159230   5.813   3.290  12.689 -0.5440 -2.3047 -0.2714
12605TIP3    H259231   5.669   3.265  12.726 -1.2142 -0.2338 -1.3154
12606TIP3   OH259232   0.114   0.130   5.245  0.2755 -0.0865  0.3337
12606TIP3    H159233   0.131   0.056   5.188 -1.6690  0.1803 -0.6712
12606TIP3    H259234   0.169   0.201   5.211  1.6482 -0.8357  0.9047
12607TIP3   OH259235   2.350   6.473   2.231  0.2342 -0.1809 -0.0816
12607TIP3    H159236   2.372   6.557   2.269  2.7406 -0.9988  0.5093
12607TIP3    H259237   2.284   6.436   2.289  0.6214  0.5307  0.8330
12608TIP3   OH259238   2.070   5.728   6.050 -0.2141  0.1773  0.2003
12608TIP3    H159239   2.010   5.661   6.018  1.4298 -1.5069  0.4592
12608TIP3    H259240   2.051   5.735   6.143  0.5793 -1.0529  0.4780
12609TIP3   OH259241   6.532   6.424  12.267  0.2607  0.1289  0.1315
12609TIP3    H159242   6.445   6.416  12.306 -1.6610  0.7654 -3.5535
12609TIP3    H259243   6.574   6.340  12.283  0.4021  0.8073  4.6701
12610TIP3   OH259244   2.341   4.248   1.545  0.2369 -0.0493  0.2574
12610TIP3    H159245   2.339   4.311   1.473 -0.9452 -1.6141 -1.1620
12610TIP3    H259246   2.280   4.284   1.610 -0.7333  0.1006 -0.7032
12611TIP3   OH259247   5.596   5.250  12.943  0.5375 -0.1684 -0.2481
12611TIP3    H159248   5.611   5.309  13.017  0.9364 -0.6773  0.0851
12611TIP3    H259249   5.632   5.297  12.868  1.5945 -0.3112  0.1482
12612TIP3   OH259250   5.026   5.152  13.992 -0.2580 -0.0656 -0.5523
12612TIP3    H159251   5.064   5.239  13.980 -1.8366  0.8266  0.4794
12612TIP3    H259252   4.961   5.164  14.061 -0.4507 -2.1047 -0.3120
12613TIP3   OH259253   1.369   4.035  15.334  0.0288  0.2835 -0.1672
12613TIP3    H159254   1.383   4.128  15.348  0.3089  0.1408  0.5383
12613TIP3    H259255   1.278   4.019  15.362 -0.4734  0.5845 -1.5619
12614TIP3   OH259256   4.041   4.306   3.453  0.2217  0.0623  0.1340
12614TIP3    H159257   4.004   4.355   3.380  0.4491 -1.8865 -1.3562
12614TIP3    H259258   3.985   4.229   3.461  1.3948 -0.7509  0.6880
12615TIP3   OH259259   2.723   5.282  12.907  0.0871 -0.1745  0.8006
12615TIP3    H159260   2.721   5.196  12.948 -2.2264 -1.2182 -1.2836
12615TIP3    H259261   2.655   5.332  12.952  0.8682  0.3552  1.4439
12616TIP3   OH259262   4.885   0.565   0.087 -0.4015  0.7427  0.1190
12616TIP3    H159263   4.978   0.587   0.095 -0.0055 -1.2439  1.4308
12616TIP3    H259264   4.845   0.604   0.164 -0.1600 -0.7376  1.0143
12617TIP3   OH259265   3.325   0.753  15.562  0.2509  0.0264  0.8881
12617TIP3    H159266   3.307   0.668  15.522  0.3381 -0.8845  2.6671
12617TIP3    H259267   3.362   0.806  15.491 -2.5345 -0.4098 -1.0679
12618TIP3   OH259268   0.234   0.813  16.784  0.0203 -0.0509 -0.5051
12618TIP3    H159269   0.248   0.762  16.864 -2.1925 -0.6860 -0.4600
12618TIP3    H259270   0.318   0.856  16.769  1.0651 -1.3694  1.1134
12619TIP3   OH259271   4.390   1.127   1.917 -0.2288  0.1944  0.2482
12619TIP3    H159272   4.327   1.193   1.946 -1.4752  0.5605 -2.8542
12619TIP3    H259273   4.458   1.178   1.872  0.6169 -0.4389  0.7834
12620TIP3   OH259274   2.725   1.302   0.782  0.0733  0.0454 -0.2004
12620TIP3    H159275   2.667   1.305   0.858  0.7614  1.1746  0.3109
12620TIP3    H259276   2.742   1.393   0.760  1.1359 -0.2542 -0.7408
12621TIP3   OH259277   2.962   1.142   4.515  0.0854  0.1098  0.0388
12621TIP3    H159278   2.896   1.140   4.446  0.2688 -0.1477 -0.1326
12621TIP3    H259279   3.006   1.057   4.509 -0.2689 -0.1414  0.8411
12622TIP3   OH259280   2.346   2.118  15.067  0.1541 -0.0913  0.3317
12622TIP3    H159281   2.434   2.106  15.103  0.3323 -0.0763 -0.0957
12622TIP3    H259282   2.361   2.155  14.980 -0.2946  0.4495  0.4798
12623TIP3   OH259283   3.038   5.813   1.811  0.0279  0.2127  0.1692
12623TIP3    H159284   2.946   5.825   1.832 -0.1423  0.6276 -0.7669
12623TIP3    H259285   3.065   5.895   1.769  0.1769 -0.7354 -1.7053
12624TIP3   OH259286   4.276   0.268  10.513 -0.3591 -0.3388  0.0571
12624TIP3    H159287   4.367   0.297  10.521 -0.2135 -0.3427 -1.2939
12624TIP3    H259288   4.281   0.173  10.507 -0.3021 -0.2737 -1.3580
12625TIP3   OH259289   6.705   6.522  13.560 -0.7915  0.3479  0.1997
12625TIP3    H159290   6.616   6.514  13.593 -0.9826 -0.4107 -0.4812
12625TIP3    H259291   6.729   6.612  13.579 -2.5850  1.3265 -1.7606
12626TIP3   OH259292   3.627   2.866   4.838 -0.5553 -0.0043  0.1181
12626TIP3    H159293   3.713   2.867   4.882 -0.2915  0.4822 -0.3935
12626TIP3    H259294   3.617   2.955   4.803 -0.4524 -0.5606 -1.3816
12627TIP3   OH259295   5.730   4.556   3.323 -0.0042  0.6731 -0.3353
12627TIP3    H159296   5.683   4.473   3.333  2.2362 -0.4773  1.9040
12627TIP3    H259297   5.726   4.597   3.410  0.7713  1.8502 -0.8268
12628TIP3   OH259298   4.374   2.339  12.729 -0.0046  0.0633 -0.2026
12628TIP3    H159299   4.335   2.343  12.641 -1.6477  0.9646  0.5144
12628TIP3    H259300   4.341   2.258  12.766 -0.3398  0.2984  0.0208
12629TIP3   OH259301   6.282   2.580   4.608 -0.6280 -0.2976  0.5752
12629TIP3    H159302   6.209   2.558   4.551 -1.2022  0.5382  0.9647
12629TIP3    H259303   6.268   2.672   4.631  0.0200 -0.3966  1.4353
12630TIP3   OH259304   3.515   6.650   5.020 -0.1476  0.4485  0.2449
12630TIP3    H159305   3.602   6.653   5.058 -0.8423  0.6405  1.8945
12630TIP3    H259306   3.513   6.723   4.958  0.3369  1.4691  1.3906
12631TIP3   OH259307   4.830   5.197   1.624  0.0399 -0.2337  0.3922
12631TIP3    H159308   4.784   5.185   1.541  1.8539 -0.7599 -0.5787
12631TIP3    H259309   4.841   5.291   1.632 -0.4547 -0.1558  0.2360
12632TIP3   OH259310   0.757   1.035  14.660  0.2043 -0.4438  0.1766
12632TIP3    H159311   0.723   1.040  14.571 -0.4146  2.3634  0.4873
12632TIP3    H259312   0.813   1.112  14.669  0.7834 -1.0284  2.0205
12633TIP3   OH259313   0.479   2.147   4.080  0.0125  0.1775 -0.2927
12633TIP3    H159314   0.537   2.083   4.122  0.1593 -0.3504 -1.2799
12633TIP3    H259315   0.394   2.132   4.123  0.0548 -0.6647 -0.4802
12634TIP3   OH259316   1.263   0.381   4.284  0.2606 -0.3461  0.6264
12634TIP3    H159317   1.178   0.359   4.244  0.6272  0.2997 -0.5526
12634TIP3    H259318   1.309   0.429   4.216  1.1600  0.2588  1.6485
12635TIP3   OH259319   4.114   0.359   3.264 -0.2346  0.1980 -0.4001
12635TIP3    H159320   4.063   0.356   3.183 -2.1772 -1.8373  0.7795
12635TIP3    H259321   4.144   0.269   3.276 -2.2123 -0.2138  2.3958
12636TIP3   OH259322   4.416   5.397  12.350  0.8140 -0.6483 -0.7357
12636TIP3    H159323   4.471   5.416  12.426 -0.2381 -3.7211  0.9776
12636TIP3    H259324   4.372   5.479  12.331  0.8881  0.1968  2.2158
12637TIP3   OH259325   3.638   0.128   3.650  0.2487  0.1709 -0.3374
12637TIP3    H159326   3.726   0.141   3.686 -0.1161  2.3890 -0.0709
12637TIP3    H259327   3.606   0.049   3.691  1.7781 -0.1684  0.2608
12638TIP3   OH259328   2.340   2.132  11.514 -0.2227 -0.7394 -0.1754
12638TIP3    H159329   2.396   2.164  11.585 -0.8628 -0.8458  0.3830
12638TIP3    H259330   2.392   2.063  11.472  0.1687 -0.6645  0.1712
12639TIP3   OH259331   5.298   4.555   3.294  0.0304  0.2869  0.2329
12639TIP3    H159332   5.320   4.647   3.279 -0.8869  1.0170  2.7551
12639TIP3    H259333   5.353   4.530   3.368  0.1457 -1.1799 -0.3178
12640TIP3   OH259334   1.156   0.244   0.409  0.1085 -0.1024 -0.0884
12640TIP3    H159335   1.093   0.180   0.376  0.1391  0.0621 -0.4687
12640TIP3    H259336   1.232   0.192   0.435  0.1275 -0.2217 -0.3835
12641TIP3   OH259337   3.039   0.173  15.727  0.2746 -0.0082  0.6793
12641TIP3    H159338   3.095   0.106  15.689  0.5945  0.7717 -0.2733
12641TIP3    H259339   3.096   0.223  15.785  1.1274  1.9196 -1.6415
12642TIP3   OH259340   5.221   4.245  12.910 -0.1576 -0.4416 -0.3871
12642TIP3    H159341   5.169   4.325  12.903 -0.2959 -0.3778  1.0619
12642TIP3    H259342   5.284   4.251  12.838  0.9165  1.7906  0.6455
12643TIP3   OH259343   1.135   0.066   1.841  0.5778 -0.1553 -0.4018
12643TIP3    H159344   1.128   0.061   1.936  2.1282 -0.6617 -0.2897
12643TIP3    H259345   1.072   0.001   1.809  0.6683 -0.6009  0.3037
12644TIP3   OH259346   4.766   4.293   1.978 -0.4884 -0.2825 -0.6334
12644TIP3    H159347   4.793   4.202   1.989  1.1409  0.3660  1.3217
12644TIP3    H259348   4.671   4.292   1.988 -0.4049 -1.6411  0.2200
12645TIP3   OH259349   2.461   1.362  11.401 -0.1998 -0.5734 -0.0835
12645TIP3    H159350   2.371   1.380  11.430  0.2642 -0.6706  1.5153
12645TIP3    H259351   2.452   1.296  11.332 -1.4270  0.3743 -0.8653
12646TIP3   OH259352   2.989   4.208  16.168  0.4476  0.2505  0.2013
12646TIP3    H159353   2.985   4.303  16.182 -0.0847  0.2704 -0.0590
12646TIP3    H259354   2.979   4.198  16.073 -1.8858 -0.1852  0.4562
12647TIP3   OH259355   1.953   4.919   3.501 -0.0550  0.4395  0.8370
12647TIP3    H159356   1.957   4.917   3.405  0.4005  0.1458  0.8606
12647TIP3    H259357   2.034   4.877   3.529 -0.6143 -0.3264  1.3539
12648TIP3   OH259358   3.460   4.391   1.972 -0.0089  0.5573  0.4797
12648TIP3    H159359   3.507   4.351   1.898  0.0018 -0.5574  1.0618
12648TIP3    H259360   3.383   4.336   1.983 -0.3311  1.0957  0.9064
12649TIP3   OH259361   1.988   5.432   0.921  0.2614  0.1200 -0.2516
12649TIP3    H159362   1.923   5.455   0.854  2.4943  0.6881 -2.4006
12649TIP3    H259363   1.951   5.465   1.003 -2.0679  0.5192 -1.3769
12650TIP3   OH259364   0.742   2.919   5.141  0.4651  0.3606 -0.0258
12650TIP3    H159365   0.671   2.950   5.085 -0.2956 -2.2394 -0.6037
12650TIP3    H259366   0.703   2.911   5.228 -0.6924 -3.0324 -0.7249
12651TIP3   OH259367   4.386   5.653  16.709  0.2873 -0.4045  0.4625
12651TIP3    H159368   4.395   5.664  16.804  0.6813  1.8687  0.2085
12651TIP3    H259369   4.308   5.704  16.686  0.4540 -0.5723 -0.5111
12652TIP3   OH259370   0.804   0.469   5.342 -0.3675  0.2091  0.1213
12652TIP3    H159371   0.735   0.413   5.379 -2.8405  2.8389 -0.1519
12652TIP3    H259372   0.795   0.552   5.389  2.3149  0.8494 -0.3310
12653TIP3   OH259373   4.630   5.525  15.225  0.5021 -0.1898  0.8194
12653TIP3    H159374   4.725   5.524  15.235  0.5075  2.1751  1.6046
12653TIP3    H259375   4.598   5.573  15.302 -1.0818  1.4403 -0.7508
12654TIP3   OH259376   3.218   6.549   1.702  0.1057 -0.3498 -0.0830
12654TIP3    H159377   3.168   6.537   1.782  0.6792  0.0156  0.3442
12654TIP3    H259378   3.152   6.563   1.634 -0.3808 -0.4896  0.3541
12655TIP3   OH259379   6.738   6.636  12.882 -0.3999 -1.3479  0.1209
12655TIP3    H159380   6.708   6.651  12.793 -0.6406 -1.6879  0.1446
12655TIP3    H259381   6.834   6.632  12.875 -0.3723 -0.5481  0.0074
12656TIP3   OH259382   4.513   3.972  13.630  0.0505  0.1250 -0.8055
12656TIP3    H159383   4.566   4.027  13.687  0.8885 -0.9548 -0.4952
12656TIP3    H259384   4.426   4.012  13.631  0.5589  1.2554 -0.3772
12657TIP3   OH259385   3.536   2.175   2.279 -0.1228  0.0578  0.5197
12657TIP3    H159386   3.530   2.173   2.374 -1.0098  0.2369  0.4727
12657TIP3    H259387   3.598   2.105   2.257  0.9369  0.7168  1.2847
12658TIP3   OH259388   0.867   0.684   2.021 -0.4575 -0.6950 -0.3869
12658TIP3    H159389   0.810   0.696   1.944  1.1687 -0.2656 -1.5741
12658TIP3    H259390   0.855   0.764   2.072  0.1315  0.0540 -1.3728
12659TIP3   OH259391   3.095   6.785   2.372 -0.0484 -0.7931 -0.1408
12659TIP3    H159392   3.115   6.691   2.370 -2.5637 -1.4169 -2.6291
12659TIP3    H259393   3.179   6.827   2.354  0.7283 -2.7185 -1.3798
12660TIP3   OH259394   0.410   5.908  12.917 -0.5000 -0.3527 -0.0095
12660TIP3    H159395   0.458   5.890  12.836 -0.0540 -0.0647  0.1881
12660TIP3    H259396   0.477   5.936  12.979 -0.6441 -1.8116  0.8495
12661TIP3   OH259397   3.656   4.703  13.489 -0.2985 -1.2216 -0.1491
12661TIP3    H159398   3.676   4.730  13.399 -0.4551 -0.9554 -0.1064
12661TIP3    H259399   3.563   4.681  13.488 -0.2580 -1.3979 -0.0941
12662TIP3   OH259400   5.644   2.569  16.448 -0.2256  0.4033  0.2029
12662TIP3    H159401   5.635   2.514  16.369 -0.8437 -0.7588  1.0484
12662TIP3    H259402   5.554   2.597  16.467 -0.2778 -0.4169  1.2354
12663TIP3   OH259403   1.262   3.660   6.246  0.1463  0.0645  0.1576
12663TIP3    H159404   1.289   3.576   6.284 -2.7174 -1.7755 -1.4980
12663TIP3    H259405   1.188   3.688   6.300 -0.0120  0.6122 -0.3361
12664TIP3   OH259406   3.134   5.812  16.156  0.1162 -0.2525 -0.2054
12664TIP3    H159407   3.100   5.724  16.170  2.8502 -1.3999 -0.0471
12664TIP3    H259408   3.188   5.804  16.077 -0.7561  1.7049 -1.0688
12665TIP3   OH259409   0.229   0.024   1.775 -0.0051  0.2495  0.1831
12665TIP3    H159410   0.289  -0.002   1.845  0.3920  1.7636  0.4360
12665TIP3    H259411   0.277   0.088   1.724 -0.4859 -0.4412 -1.1963
12666TIP3   OH259412   4.350   1.892   3.282  0.1903  0.2691 -1.0298
12666TIP3    H159413   4.382   1.960   3.341  0.7243 -0.8177 -0.0103
12666TIP3    H259414   4.426   1.835   3.269 -0.9922 -1.9065  0.7506
12667TIP3   OH259415   5.126   2.864  17.145  0.2536 -0.0430  0.0621
12667TIP3    H159416   5.127   2.827  17.056 -0.3537  1.0728 -0.4289
12667TIP3    H259417   5.042   2.837  17.181  0.0501  0.3949 -0.0894
12668TIP3   OH259418   1.814   6.394  15.081  0.9458 -0.8505 -0.1062
12668TIP3    H159419   1.752   6.332  15.043  0.8928 -0.0650 -1.3690
12668TIP3    H259420   1.818   6.371  15.174 -1.4977 -0.6912  0.0990
12669TIP3   OH259421   1.107   4.724  13.291  0.4798  0.2738 -0.1521
12669TIP3    H159422   1.177   4.774  13.332  0.8242 -0.0885 -0.2957
12669TIP3    H259423   1.040   4.717  13.359  0.1917  1.3797 -0.2908
12670TIP3   OH259424   5.553   1.023   2.645 -0.0345 -0.2285  0.3429
12670TIP3    H159425   5.553   0.989   2.555 -0.7238  1.0330 -0.1568
12670TIP3    H259426   5.615   0.966   2.692 -0.6065 -1.7028 -0.6099
12671TIP3   OH259427   0.104   4.805   3.350 -0.5473 -0.4952  0.1593
12671TIP3    H159428   0.090   4.723   3.303  1.2272 -0.6088 -0.2228
12671TIP3    H259429   0.131   4.867   3.282 -0.6629  0.0771  0.6269
12672TIP3   OH259430   4.970   3.800  13.396 -0.2245  0.0320  0.3752
12672TIP3    H159431   4.982   3.778  13.488  1.6743  2.2303  0.7720
12672TIP3    H259432   4.877   3.821  13.388 -1.1282 -3.3084  0.9451
12673TIP3   OH259433   5.938   3.958  12.226  0.0078  0.2613 -0.2482
12673TIP3    H159434   5.968   3.869  12.246 -0.3512 -0.0608 -1.0816
12673TIP3    H259435   6.014   4.001  12.186 -0.2551 -0.1526 -1.2081
12674TIP3   OH259436   0.454   0.104  11.711 -0.2514 -0.0566 -0.2396
12674TIP3    H159437   0.468   0.186  11.757  2.8382 -0.4150 -0.3077
12674TIP3    H259438   0.376   0.066  11.752  0.0064  1.5189  1.8835
12675TIP3   OH259439   4.097   4.189   5.948  0.5925 -0.0919  0.3324
12675TIP3    H159440   4.015   4.169   5.903  0.6218  0.1364  0.1736
12675TIP3    H259441   4.107   4.119   6.012  1.5310 -1.5311 -1.3181
12676TIP3   OH259442   2.651   5.765   2.182  0.3922 -0.0951  0.3391
12676TIP3    H159443   2.665   5.856   2.157 -0.1662 -0.1959 -0.3849
12676TIP3    H259444   2.721   5.717   2.139  0.6772 -0.0142  0.7082
12677TIP3   OH259445   6.468   5.480  16.411  0.3916 -0.3304  0.6059
12677TIP3    H159446   6.380   5.507  16.441  0.6951  1.6670 -0.1244
12677TIP3    H259447   6.452   5.401  16.358 -1.1613  0.6534 -0.5022
12678TIP3   OH259448   3.230   6.305   0.587 -0.2857 -0.1603 -0.3184
12678TIP3    H159449   3.266   6.223   0.555 -0.8534 -0.8902  0.8631
12678TIP3    H259450   3.282   6.373   0.543  1.0580 -1.1604 -0.3190
12679TIP3   OH259451   1.681   5.159  12.187  0.4343 -0.6579 -0.1143
12679TIP3    H159452   1.603   5.120  12.226  0.7775 -0.9590  0.2616
12679TIP3    H259453   1.719   5.089  12.134  1.1610 -0.8970  0.7214
12680TIP3   OH259454   5.016   0.820  11.736  0.2916  0.0303 -0.6904
12680TIP3    H159455   4.990   0.730  11.718 -1.8011  0.3925  0.3300
12680TIP3    H259456   4.955   0.850  11.803  1.9734  1.7024  0.1783
12681TIP3   OH259457   1.581   3.269   4.299 -0.2162  0.1612 -0.0799
12681TIP3    H159458   1.670   3.302   4.289 -0.0090 -0.6130 -0.9666
12681TIP3    H259459   1.541   3.281   4.212 -1.5466  2.0622  0.7448
12682TIP3   OH259460   3.707   2.426  16.320 -0.7357 -0.1182 -0.6525
12682TIP3    H159461   3.802   2.434  16.332 -0.8617  0.9315 -0.2826
12682TIP3    H259462   3.681   2.359  16.384 -0.4408  0.6514  0.2960
12683TIP3   OH259463   3.678   2.574   1.112  0.1020 -0.6615  0.1234
12683TIP3    H159464   3.743   2.552   1.178  0.8029 -1.5987 -0.8610
12683TIP3    H259465   3.680   2.670   1.107  2.3305 -0.7135 -0.7898
12684TIP3   OH259466   6.209   0.494   0.371 -0.0833 -0.0153  0.1907
12684TIP3    H159467   6.140   0.436   0.342 -2.5775  1.1970  3.1011
12684TIP3    H259468   6.213   0.482   0.466  1.9059  1.8314  0.4395
12685TIP3   OH259469   6.140   6.193  13.394 -0.9844 -0.3258  0.6735
12685TIP3    H159470   6.066   6.220  13.448 -0.4839  0.1813  1.1129
12685TIP3    H259471   6.169   6.111  13.433  0.1277  0.6314  1.9454
12686TIP3   OH259472   4.400   5.587  15.068  0.5063  0.7548 -0.5785
12686TIP3    H159473   4.329   5.631  15.115 -0.0276 -0.1395 -0.5362
12686TIP3    H259474   4.471   5.581  15.132  0.3564  0.9863 -0.3906
12687TIP3   OH259475   4.151   6.175  16.190 -0.1563 -0.0460 -0.0365
12687TIP3    H159476   4.086   6.124  16.239 -0.1717  0.4666  0.4957
12687TIP3    H259477   4.227   6.118  16.184 -0.1294 -0.0972  0.6585
12688TIP3   OH259478   6.174   3.835  12.518  0.6124  0.6704  0.3927
12688TIP3    H159479   6.241   3.852  12.584  0.0237 -1.3698  1.6226
12688TIP3    H259480   6.109   3.903  12.532 -0.3690 -0.6820  3.2404
12689TIP3   OH259481   3.001   1.617  11.596  0.4828 -0.3973 -0.2892
12689TIP3    H159482   3.018   1.554  11.667  0.6612 -0.2973 -0.2402
12689TIP3    H259483   3.073   1.602  11.535 -0.4388 -1.4592 -1.1539
12690TIP3   OH259484   4.521   2.208  16.835  1.0960 -0.4319  0.2014
12690TIP3    H159485   4.574   2.262  16.776  1.7466  0.7996  1.8349
12690TIP3    H259486   4.585   2.151  16.878  0.7920 -0.5468  0.5022
12691TIP3   OH259487   5.852   5.309  13.293  0.3693 -0.5606  0.2874
12691TIP3    H159488   5.884   5.292  13.205 -2.2411 -0.8774 -0.6767
12691TIP3    H259489   5.918   5.267  13.350  2.1005 -0.3652 -1.4503
12692TIP3   OH259490   6.346   1.940   1.120  0.7847  0.1648 -0.5116
12692TIP3    H159491   6.372   1.900   1.203  0.0555 -0.6217 -0.6495
12692TIP3    H259492   6.356   1.870   1.055  1.8747  0.9156 -1.2062
12693TIP3   OH259493   4.256   6.292  11.100 -0.0436 -0.0535  0.3691
12693TIP3    H159494   4.290   6.212  11.141 -0.4579 -0.5301 -0.2035
12693TIP3    H259495   4.229   6.265  11.013 -1.8473  0.3061  0.7774
12694TIP3   OH259496   0.145   1.460   5.685  0.5554  0.0440 -0.5733
12694TIP3    H159497   0.079   1.417   5.631  0.9037 -1.5959  0.2413
12694TIP3    H259498   0.222   1.404   5.678  1.4946  1.2738 -0.5403
12695TIP3   OH259499   5.105   2.597   1.429 -0.4078 -0.1067 -0.2464
12695TIP3    H159500   5.026   2.552   1.400 -0.3255 -0.8689  0.6521
12695TIP3    H259501   5.173   2.571   1.367 -0.6281 -0.2793 -0.4111
12696TIP3   OH259502   2.646   1.660  11.637  0.2823 -0.2542  0.3239
12696TIP3    H159503   2.562   1.656  11.684  0.2203  0.2628  0.2520
12696TIP3    H259504   2.622   1.650  11.545  0.3997 -1.2120  0.3857
12697TIP3   OH259505   4.396   6.097   4.716  0.0718 -0.2310 -0.3414
12697TIP3    H159506   4.331   6.161   4.686  0.0152 -0.0890  0.0873
12697TIP3    H259507   4.449   6.080   4.638 -0.6018 -0.5044 -0.7469
12698TIP3   OH259508   3.365   5.574   4.864  0.1053 -0.4622 -0.3199
12698TIP3    H159509   3.377   5.482   4.886  1.6392 -0.6813 -1.8044
12698TIP3    H259510   3.346   5.574   4.770 -1.9410  0.6345  0.0462
12699TIP3   OH259511   4.610   4.291   5.194 -0.4303 -0.2831 -0.2223
12699TIP3    H159512   4.677   4.358   5.184 -0.4710  0.2853  2.6452
12699TIP3    H259513   4.559   4.296   5.113  1.4401  0.9733 -1.3949
12700TIP3   OH259514   0.545   3.313   4.956 -0.1370 -0.1125  0.0685
12700TIP3    H159515   0.636   3.336   4.975  0.1151 -1.9677  1.3169
12700TIP3    H259516   0.512   3.388   4.906  2.5043 -0.0328 -1.7829
12701TIP3   OH259517   1.918   2.893  14.616  0.3937 -0.1190  0.9961
12701TIP3    H159518   1.860   2.820  14.637  0.0712  0.6413  3.0271
12701TIP3    H259519   1.860   2.970  14.616  1.0974  0.4252  1.2752
12702TIP3   OH259520   1.023   0.671  12.073  0.4763  0.0513 -0.1773
12702TIP3    H159521   1.086   0.614  12.029 -0.0467 -0.4323 -0.3096
12702TIP3    H259522   1.049   0.760  12.046  0.6851 -0.1852 -0.7716
12703TIP3   OH259523   0.682   1.220   2.911  0.0898  0.3096 -0.6860
12703TIP3    H159524   0.673   1.285   2.980 -1.1923  0.7227 -1.2081
12703TIP3    H259525   0.725   1.146   2.953  0.8079  1.1561  0.1327
12704TIP3   OH259526   2.607   0.066  16.249  0.4201 -0.0433 -0.4087
12704TIP3    H159527   2.644  -0.016  16.282 -0.7599 -0.1359  0.7591
12704TIP3    H259528   2.529   0.081  16.303  0.6387  1.8853 -0.5474
12705TIP3   OH259529   0.202   1.990  15.611 -0.0062  0.5191  0.1995
12705TIP3    H159530   0.129   2.006  15.670 -0.0260  0.7388  0.1194
12705TIP3    H259531   0.235   2.078  15.590 -0.9149  0.5435 -1.2642
12706TIP3   OH259532   6.292   4.675   5.323  0.0114  0.1642  0.1255
12706TIP3    H159533   6.265   4.679   5.415  2.3794  2.5381  0.8649
12706TIP3    H259534   6.288   4.582   5.300 -1.1502 -0.4295  2.4327
12707TIP3   OH259535   4.226   2.282  12.184 -0.7073  0.0922  0.1694
12707TIP3    H159536   4.233   2.190  12.158  0.5472  0.3018 -0.2997
12707TIP3    H259537   4.141   2.310  12.150  0.9651  0.4943 -4.4235
12708TIP3   OH259538   5.413   2.353  11.837  0.0284 -0.0947  0.3639
12708TIP3    H159539   5.491   2.318  11.881  2.0851  1.7204 -1.5650
12708TIP3    H259540   5.379   2.419  11.898 -0.7838 -1.6723  1.7196
12709TIP3   OH259541   4.053   6.608  11.664 -0.1554 -0.1142 -0.2524
12709TIP3    H159542   4.101   6.526  11.651  1.1031  0.7882 -1.6600
12709TIP3    H259543   4.105   6.655  11.729 -0.7375 -0.3231  0.3662
12710TIP3   OH259544   1.921   3.565   5.712  0.5193  0.0412 -0.5696
12710TIP3    H159545   1.940   3.480   5.671  1.6743  1.8590 -4.3101
12710TIP3    H259546   1.855   3.604   5.656 -1.0841  1.1502  1.9309
12711TIP3   OH259547   1.893   6.340   2.956  1.0026  0.1927 -0.0800
12711TIP3    H159548   1.870   6.282   2.884 -1.2951  0.2849  0.5180
12711TIP3    H259549   1.868   6.427   2.926 -1.8199  0.0148  1.4652
12712TIP3   OH259550   4.316   0.299   2.666 -0.4172  0.0331 -0.0659
12712TIP3    H159551   4.361   0.248   2.599 -1.1184  0.6981 -1.0781
12712TIP3    H259552   4.275   0.371   2.618 -0.2085  1.0403  1.1987
12713TIP3   OH259553   6.008   2.495   5.663  0.4858 -0.0171  0.3028
12713TIP3    H159554   6.073   2.468   5.728  0.0480 -0.6906  0.4739
12713TIP3    H259555   6.053   2.561   5.610  0.3613  1.7400  2.2519
12714TIP3   OH259556   6.450   0.227  11.625  0.0700  0.8351  0.2168
12714TIP3    H159557   6.399   0.198  11.701 -0.1577 -1.6291 -0.8056
12714TIP3    H259558   6.442   0.323  11.627  1.0356  1.0141  3.9420
12715TIP3   OH259559   5.409   3.240  15.497  0.4822  0.7274 -0.1991
12715TIP3    H159560   5.408   3.273  15.407 -0.7972  1.9811  0.2389
12715TIP3    H259561   5.317   3.223  15.517  1.0106 -3.1667 -0.3592
12716TIP3   OH259562   1.415   0.456  14.235 -0.4771  0.0568  0.7230
12716TIP3    H159563   1.482   0.475  14.301 -0.8508 -0.8881  1.3958
12716TIP3    H259564   1.354   0.530  14.242 -0.2819  0.1860  1.1231
12717TIP3   OH259565   2.731   5.321   6.282  0.2982 -0.3991  0.1583
12717TIP3    H159566   2.684   5.388   6.330 -0.5244 -0.0399 -1.1085
12717TIP3    H259567   2.723   5.347   6.190  2.4093 -0.6830 -0.1560
12718TIP3   OH259568   1.320   0.626   3.444 -0.5441  0.1919 -0.6429
12718TIP3    H159569   1.374   0.620   3.523  1.1448  2.9124 -1.4172
12718TIP3    H259570   1.348   0.553   3.390  0.6237  0.1192  0.0132
12719TIP3   OH259571   1.215   4.017   4.867 -0.5317  0.2340 -0.5253
12719TIP3    H159572   1.305   4.003   4.897 -0.7444  3.0784  1.9558
12719TIP3    H259573   1.211   4.111   4.846 -2.5224 -0.1580 -2.2526
12720TIP3   OH259574   6.262   3.209  13.702 -0.3020 -0.0427 -0.4745
12720TIP3    H159575   6.316   3.201  13.623  0.9615 -2.5946  0.5341
12720TIP3    H259576   6.304   3.279  13.753  1.0060 -0.7530 -0.5346
12721TIP3   OH259577   5.976   5.345   4.996  0.4364  0.1888  0.3308
12721TIP3    H159578   5.946   5.256   4.976 -1.2887  0.8527 -0.2569
12721TIP3    H259579   6.031   5.335   5.073  1.8033 -1.6044 -0.7948
12722TIP3   OH259580   6.135   4.141  14.922 -0.4514 -0.1121 -0.2387
12722TIP3    H159581   6.153   4.104  14.836 -1.8398 -1.2848 -0.0632
12722TIP3    H259582   6.156   4.070  14.984 -2.8498 -0.5900  0.1253
12723TIP3   OH259583   2.935   2.287  11.742  0.1761  0.0342 -0.3345
12723TIP3    H159584   2.969   2.368  11.703 -3.0753  1.9026  0.3414
12723TIP3    H259585   2.935   2.305  11.836 -1.3280 -0.3882 -0.2339
12724TIP3   OH259586   5.306   5.594  12.274 -0.1196 -0.2879  0.3437
12724TIP3    H159587   5.373   5.548  12.224 -1.3108 -2.2854  0.4695
12724TIP3    H259588   5.258   5.645  12.209  0.7492  0.2025  0.0723
12725TIP3   OH259589   4.930   2.829  15.081 -0.3980  0.3452  0.1447
12725TIP3    H159590   5.009   2.871  15.115 -0.7966  1.7598 -0.5752
12725TIP3    H259591   4.859   2.862  15.137 -0.4896 -0.9287  0.8027
12726TIP3   OH259592   3.062   5.033  12.940  0.0805  0.1036 -0.1713
12726TIP3    H159593   3.112   4.985  12.873  0.0123 -1.1029  0.6174
12726TIP3    H259594   2.995   4.970  12.969  1.4842 -0.2376  2.6202
12727TIP3   OH259595   2.229   1.441   0.949 -0.7936  0.0213  0.8806
12727TIP3    H159596   2.233   1.374   0.880 -1.7517  0.1408  0.6962
12727TIP3    H259597   2.175   1.401   1.018 -4.0438  1.6760 -0.5101
12728TIP3   OH259598   2.765   4.917  17.036 -0.0849 -0.2712 -0.2027
12728TIP3    H159599   2.823   4.887  17.107  0.5826 -0.9139 -1.0075
12728TIP3    H259600   2.814   4.900  16.956 -0.2136  1.8060 -0.7784
12729TIP3   OH259601   1.676   1.251   2.941  0.3373 -0.1209  0.4021
12729TIP3    H159602   1.745   1.287   2.997  2.7142 -2.9071 -0.4456
12729TIP3    H259603   1.614   1.210   3.001  0.0358  1.3799  1.1449
12730TIP3   OH259604   1.188   5.440   6.380 -0.5441  0.1000 -0.2254
12730TIP3    H159605   1.239   5.402   6.451 -1.8106 -0.9978  0.1256
12730TIP3    H259606   1.099   5.446   6.415 -1.2072 -0.5462 -1.7381
12731TIP3   OH259607   6.076   2.837   0.928 -0.2105  0.0862  0.7318
12731TIP3    H159608   5.981   2.835   0.939 -0.1442 -0.3751  1.2417
12731TIP3    H259609   6.093   2.779   0.854 -0.5316  2.0990 -1.0365
12732TIP3   OH259610   2.944   4.511  14.727 -0.2879 -0.0124  0.0539
12732TIP3    H159611   2.897   4.473  14.800  2.2210 -2.0361  0.7557
12732TIP3    H259612   2.876   4.547  14.670 -2.4373 -0.4469  2.2085
12733TIP3   OH259613   5.082   4.729  11.230 -0.7746  0.6464 -0.2576
12733TIP3    H159614   5.135   4.660  11.190 -1.5370  0.9499 -1.9063
12733TIP3    H259615   5.145   4.795  11.258 -0.1470 -0.0099 -0.0957
12734TIP3   OH259616   6.271   0.301  14.463  0.2174 -0.1740  0.0793
12734TIP3    H159617   6.201   0.306  14.529  0.0009  1.1583 -0.2164
12734TIP3    H259618   6.346   0.345  14.504 -0.2548  1.6585 -0.9382
12735TIP3   OH259619   0.803   4.436  15.886  0.0515  0.4560 -0.0498
12735TIP3    H159620   0.876   4.494  15.911 -0.5679  1.3154 -0.1885
12735TIP3    H259621   0.836   4.389  15.810  1.4813 -1.2349  1.4949
12736TIP3   OH259622   1.379   0.905   0.877 -0.1227 -0.1016 -0.5486
12736TIP3    H159623   1.360   0.814   0.855 -0.2410 -0.6387  1.5672
12736TIP3    H259624   1.300   0.936   0.922  0.3217  0.7035 -0.2896
12737TIP3   OH259625   3.993   2.602   4.651  0.1279 -0.0116 -0.4828
12737TIP3    H159626   4.056   2.595   4.579  0.2757  0.2150 -0.3757
12737TIP3    H259627   4.005   2.691   4.685  1.7366 -0.8749  1.3762
12738TIP3   OH259628   5.911   0.588  13.145  0.5447 -0.0564 -0.4796
12738TIP3    H159629   5.849   0.658  13.161  1.2301  0.2406  1.0501
12738TIP3    H259630   5.882   0.517  13.204  0.3887 -0.7270 -1.3489
12739TIP3   OH259631   6.772   4.713  14.752 -0.3975 -0.3049  0.1110
12739TIP3    H159632   6.815   4.727  14.837 -0.3693 -0.5517  0.1409
12739TIP3    H259633   6.842   4.683  14.694 -0.4655 -0.3965  0.0743
12740TIP3   OH259634   0.657   0.189   0.086 -0.2302 -0.1725 -0.3455
12740TIP3    H159635   0.668   0.251   0.014 -1.1309  1.3515  0.7471
12740TIP3    H259636   0.715   0.222   0.154 -0.4005 -0.7858  0.0977
12741TIP3   OH259637   3.801   2.497   6.209  0.1858  0.2302  0.3180
12741TIP3    H159638   3.843   2.432   6.264  0.4250 -0.0256 -0.1546
12741TIP3    H259639   3.718   2.517   6.253  0.0415 -0.4996  0.3981
12742TIP3   OH259640   6.574   0.915  15.940 -0.1534  0.2018 -0.6848
12742TIP3    H159641   6.650   0.973  15.940  0.6442 -0.6273  2.6063
12742TIP3    H259642   6.508   0.962  15.990 -0.3651 -0.6871 -0.0984
12743TIP3   OH259643   6.482   6.388   2.265  0.3261  0.1779  0.2483
12743TIP3    H159644   6.439   6.396   2.181  0.9456 -1.4740 -0.2570
12743TIP3    H259645   6.543   6.462   2.268  1.1498 -0.4168 -1.2773
12744TIP3   OH259646   3.767   1.814   2.767  0.3755 -0.2390 -0.7711
12744TIP3    H159647   3.729   1.844   2.685 -1.2145  0.5995  0.2169
12744TIP3    H259648   3.735   1.724   2.777 -0.1074 -0.0614 -0.6879
12745TIP3   OH259649   2.988   0.355  13.836 -0.3768  0.0959 -0.2658
12745TIP3    H159650   3.055   0.404  13.788  0.0568  0.3056  0.5472
12745TIP3    H259651   2.968   0.409  13.912 -0.3564 -0.6849  0.3113
12746TIP3   OH259652   5.561   5.071  10.568  0.2461  0.2897 -0.6314
12746TIP3    H159653   5.630   5.132  10.592 -0.9260  0.9701  1.3043
12746TIP3    H259654   5.504   5.122  10.510  0.8635  0.0232 -1.4859
12747TIP3   OH259655   5.796   4.664  15.150  0.3094  0.6503  0.5971
12747TIP3    H159656   5.850   4.730  15.106 -1.2256  1.3619 -0.3016
12747TIP3    H259657   5.769   4.604  15.081 -1.2517  1.1694  0.7094
12748TIP3   OH259658   0.710   5.247  14.402  0.0072 -0.4450  0.8131
12748TIP3    H159659   0.672   5.311  14.462  0.8259  0.2373  0.6197
12748TIP3    H259660   0.793   5.222  14.442 -0.4250 -1.6001  1.0199
12749TIP3   OH259661   2.049   5.593   1.447  0.0160 -0.5113  0.0001
12749TIP3    H159662   2.114   5.523   1.445  0.4909 -0.0597 -1.4258
12749TIP3    H259663   2.100   5.673   1.455 -0.3925 -0.1915 -0.5462
12750TIP3   OH259664   5.215   1.269   4.841  0.0115 -0.2815  0.8342
12750TIP3    H159665   5.281   1.202   4.821 -0.1242 -0.1235 -0.2390
12750TIP3    H259666   5.229   1.291   4.933  0.9686 -0.7789  0.8186
12751TIP3   OH259667   2.838   1.067  16.178 -0.5752  0.1067  0.8531
12751TIP3    H159668   2.771   1.081  16.111  1.2434  1.0121 -0.8515
12751TIP3    H259669   2.804   0.994  16.230 -1.7439 -1.0875 -1.4520
12752TIP3   OH259670   0.807   4.057   2.241 -0.0596  0.5474 -0.2819
12752TIP3    H159671   0.720   4.056   2.200 -1.1108 -1.8361  1.7036
12752TIP3    H259672   0.804   4.133   2.300 -0.1374  1.4573 -1.4281
12753TIP3   OH259673   4.383   5.807  10.802 -0.2150  0.6167  0.0396
12753TIP3    H159674   4.350   5.722  10.772  0.4450  0.5840 -0.6085
12753TIP3    H259675   4.450   5.786  10.867  0.6079  0.6058 -0.7930
12754TIP3   OH259676   2.359   3.384   4.372 -0.0409  0.4007 -0.0237
12754TIP3    H159677   2.386   3.475   4.384  0.2054  0.1814  1.1887
12754TIP3    H259678   2.440   3.334   4.378 -0.2201  0.0712 -0.3268
12755TIP3   OH259679   5.485   2.249   5.380 -0.0076  0.4244 -0.3077
12755TIP3    H159680   5.422   2.226   5.448  1.1605 -0.4837  0.5058
12755TIP3    H259681   5.501   2.167   5.333  0.6907  0.5901 -0.3771
12756TIP3   OH259682   2.375   2.659  13.709 -0.4141  0.2681  0.8378
12756TIP3    H159683   2.286   2.630  13.730 -0.5461 -1.5149 -1.8169
12756TIP3    H259684   2.432   2.601  13.760 -0.7670 -1.1215 -0.2955
12757TIP3   OH259685   0.538   4.676  11.924 -0.0690 -0.2833 -0.1519
12757TIP3    H159686   0.622   4.630  11.928 -0.6731 -1.3943  0.1439
12757TIP3    H259687   0.515   4.676  11.831  1.0496  1.5648 -0.4919
12758TIP3   OH259688   2.358   5.836  16.179 -0.3340 -0.0769  0.1387
12758TIP3    H159689   2.355   5.831  16.083 -4.0110 -1.1675  0.1560
12758TIP3    H259690   2.391   5.923  16.197 -3.0468  1.6415 -2.3040
12759TIP3   OH259691   0.253   3.845   0.817  0.1759  0.0838  0.1713
12759TIP3    H159692   0.327   3.787   0.835  0.6634  0.3303 -0.9804
12759TIP3    H259693   0.278   3.929   0.857 -0.6210 -0.4919  2.0258
12760TIP3   OH259694   4.712   3.598  12.177  0.0559 -0.1269 -0.1728
12760TIP3    H159695   4.750   3.528  12.230  0.6623 -0.4761 -1.0428
12760TIP3    H259696   4.704   3.561  12.089 -0.4652  0.5980 -0.4478
12761TIP3   OH259697   0.138   4.511   4.573  0.2420  0.3347 -0.1871
12761TIP3    H159698   0.093   4.525   4.490  1.3563  1.1705 -0.6761
12761TIP3    H259699   0.230   4.528   4.554  0.7440 -1.0188  0.8545
12762TIP3   OH259700   1.136   1.146  16.002  0.0508  0.2784  0.5510
12762TIP3    H159701   1.071   1.149  16.072 -1.1138  0.5995 -0.5007
12762TIP3    H259702   1.135   1.235  15.965  1.0899  0.2818  0.5085
12763TIP3   OH259703   4.530   4.241  13.808 -0.1746  0.7534  0.2354
12763TIP3    H159704   4.517   4.225  13.902 -0.4437  2.2196  0.4811
12763TIP3    H259705   4.624   4.260  13.800 -0.2072  0.9294  0.2628
12764TIP3   OH259706   4.947   2.855   1.070 -0.0074 -0.1462  0.4978
12764TIP3    H159707   4.902   2.939   1.070  0.6833  0.2550 -0.8962
12764TIP3    H259708   4.938   2.824   0.979  0.3702 -1.2297  0.8192
12765TIP3   OH259709   3.744   0.297   5.756 -0.2392  0.5021 -0.5981
12765TIP3    H159710   3.763   0.307   5.663 -1.0496  0.7586 -0.7413
12765TIP3    H259711   3.764   0.206   5.775 -0.4305  0.3534 -1.1036
12766TIP3   OH259712   0.417   1.683   5.023 -0.5214  0.5275  0.4034
12766TIP3    H159713   0.397   1.591   5.006 -0.2783  0.1120  2.1375
12766TIP3    H259714   0.513   1.689   5.016 -0.6969  1.4547 -3.0717
12767TIP3   OH259715   0.049   4.413  16.635  0.1485  0.1174  0.0415
12767TIP3    H159716   0.092   4.331  16.612  0.2451 -0.6058  2.4649
12767TIP3    H259717   0.039   4.408  16.730  0.0721  2.8912  0.2411
12768TIP3   OH259718   5.831   1.908   6.345  0.0073 -0.2578  0.0772
12768TIP3    H159719   5.843   1.823   6.388  0.4677 -0.6687 -0.8278
12768TIP3    H259720   5.886   1.968   6.395 -3.2321  0.4551  3.1984
12769TIP3   OH259721   5.747   0.794   3.767 -0.3661 -0.1742 -0.8598
12769TIP3    H159722   5.732   0.708   3.807  1.3411  0.3032  0.9745
12769TIP3    H259723   5.675   0.848   3.801 -0.7569 -0.5721 -1.0388
12770TIP3   OH259724   0.596   1.308  12.499 -0.1527 -0.0247 -0.2232
12770TIP3    H159725   0.683   1.278  12.472 -0.3200 -1.0700  0.3528
12770TIP3    H259726   0.611   1.393  12.540  0.4475  0.3176 -1.1311
12771TIP3   OH259727   2.297   1.678  12.471  0.3085  0.1732  0.1895
12771TIP3    H159728   2.208   1.658  12.502  0.8103 -0.0967  1.5069
12771TIP3    H259729   2.283   1.732  12.393 -1.0247  1.2844  1.1336
12772TIP3   OH259730   5.643   0.095  15.294 -0.0779 -0.4056  0.6146
12772TIP3    H159731   5.582   0.024  15.275  0.7419 -0.9561 -0.0715
12772TIP3    H259732   5.670   0.127  15.208  0.4239 -0.0295  0.9036
12773TIP3   OH259733   1.347   5.464   5.775 -0.0653 -0.1583 -0.2068
12773TIP3    H159734   1.360   5.543   5.827 -0.9905 -0.5112  0.6129
12773TIP3    H259735   1.433   5.442   5.741  0.5891  0.0737  1.2269
12774TIP3   OH259736   4.900   4.966  10.836  0.3593 -0.0932 -0.0137
12774TIP3    H159737   4.871   5.038  10.780  0.5562 -0.4444 -0.5899
12774TIP3    H259738   4.981   4.935  10.794  0.2141 -0.7181  0.1494
12775TIP3   OH259739   4.645   6.139   3.865  0.0576 -0.0995 -0.2508
12775TIP3    H159740   4.738   6.150   3.885  0.0994 -0.2938 -0.3335
12775TIP3    H259741   4.602   6.142   3.950  0.3235 -1.8057 -0.0266
12776TIP3   OH259742   6.500   6.261  15.560 -0.1384 -0.6111  0.1168
12776TIP3    H159743   6.589   6.237  15.533  0.1285 -2.2359  2.1769
12776TIP3    H259744   6.458   6.292  15.480  2.1090 -0.2797 -1.0140
12777TIP3   OH259745   4.328   1.692   1.238 -0.4592 -0.0392  0.6766
12777TIP3    H159746   4.409   1.698   1.187 -1.0179  0.2897 -0.1843
12777TIP3    H259747   4.315   1.598   1.252  0.8406 -0.0544  2.1029
12778TIP3   OH259748   1.289   5.674  11.450  0.4474  0.0906 -0.4841
12778TIP3    H159749   1.359   5.615  11.421  2.4326  0.5072  2.8969
12778TIP3    H259750   1.314   5.759  11.416  3.2988  0.7728  2.7039
12779TIP3   OH259751   2.868   2.555  13.401 -0.1104  0.1709  0.5081
12779TIP3    H159752   2.835   2.519  13.319 -2.4178  2.4585  0.2968
12779TIP3    H259753   2.814   2.514  13.469  1.8142 -1.7415  0.9738
12780TIP3   OH259754   2.330   3.366  13.209  0.6395  0.5563 -0.7226
12780TIP3    H159755   2.292   3.454  13.218  0.2950  0.3808 -0.4480
12780TIP3    H259756   2.402   3.378  13.147  0.6069  1.0374 -0.6746
12781TIP3   OH259757   2.553   6.265  15.127 -0.0197 -0.1601 -0.1796
12781TIP3    H159758   2.599   6.326  15.069  1.1518 -0.6275  0.2168
12781TIP3    H259759   2.471   6.309  15.148 -0.0012  0.4767 -1.3362
12782TIP3   OH259760   5.854   3.343  11.558 -0.0513  0.0310 -0.2118
12782TIP3    H159761   5.864   3.340  11.463 -0.6453  0.1006 -0.2761
12782TIP3    H259762   5.815   3.258  11.581 -1.0073  0.4763 -0.1623
12783TIP3   OH259763   1.731   2.307   1.232  0.3807  0.5511 -0.8878
12783TIP3    H159764   1.803   2.366   1.257  0.0770  1.2133 -1.5348
12783TIP3    H259765   1.774   2.224   1.211  0.8612  0.6737 -0.4182
12784TIP3   OH259766   4.789   5.769   4.927  0.1356 -0.4118 -0.2378
12784TIP3    H159767   4.762   5.678   4.911 -0.3491  0.0961 -2.7904
12784TIP3    H259768   4.716   5.821   4.894  0.5205  0.9338  0.9596
12785TIP3   OH259769   3.087   5.421  14.753 -0.2484  0.4707 -0.7274
12785TIP3    H159770   3.069   5.393  14.843 -0.3673  3.2385  0.1894
12785TIP3    H259771   3.005   5.405  14.706  0.4839 -3.2379 -1.1156
12786TIP3   OH259772   5.547   4.319   3.450 -0.0782 -0.2255  0.1859
12786TIP3    H159773   5.614   4.279   3.505 -0.9891 -0.7183  0.9678
12786TIP3    H259774   5.467   4.272   3.472 -0.6893  0.3742 -0.7072
12787TIP3   OH259775   0.838   4.539  14.721 -0.3749 -0.5245 -0.4217
12787TIP3    H159776   0.857   4.499  14.806 -2.6246 -0.7747  0.0272
12787TIP3    H259777   0.799   4.624  14.743  1.9528  0.8792 -1.3213
12788TIP3   OH259778   4.891   3.554   2.242  0.4438 -0.4564  0.5138
12788TIP3    H159779   4.928   3.475   2.281  0.2014 -0.2278  1.2216
12788TIP3    H259780   4.935   3.626   2.287  0.0031 -0.1855  0.5106
12789TIP3   OH259781   5.045   2.346   2.590 -0.4296  0.4703 -0.3329
12789TIP3    H159782   4.991   2.424   2.604 -1.2301 -0.4028  2.0206
12789TIP3    H259783   4.982   2.277   2.569  0.3733  0.6290 -3.6766
12790TIP3   OH259784   1.637   0.923  14.091  0.1714 -0.3708 -0.0081
12790TIP3    H159785   1.667   0.953  14.005 -2.5544 -0.8101 -1.2220
12790TIP3    H259786   1.682   0.840  14.105 -1.3649 -1.7541 -2.4332
12791TIP3   OH259787   0.829   5.600  15.033 -0.5350  0.6601 -0.7336
12791TIP3    H159788   0.885   5.561  15.100 -1.6046 -0.2639 -0.3565
12791TIP3    H259789   0.844   5.547  14.955 -0.4449  0.7821 -0.7996
12792TIP3   OH259790   2.291   6.464   4.873  0.3447 -0.3786 -0.1502
12792TIP3    H159791   2.328   6.460   4.962 -2.5271  0.6125  1.2228
12792TIP3    H259792   2.266   6.555   4.862 -3.2056 -1.1779 -0.1259
12793TIP3   OH259793   4.332   2.197   2.001  0.0108  0.3524  0.0227
12793TIP3    H159794   4.377   2.119   2.031  2.2180  1.2816 -0.7053
12793TIP3    H259795   4.326   2.252   2.079 -2.7667 -0.9772  0.8780
12794TIP3   OH259796   6.262   6.134   1.090 -0.0801 -0.3045  0.3666
12794TIP3    H159797   6.330   6.069   1.075 -1.6779 -1.8366 -0.7233
12794TIP3    H259798   6.181   6.083   1.091 -1.4250  1.6858 -0.6396
12795TIP3   OH259799   3.348   4.051   7.020 -0.9306 -0.0459 -0.3394
12795TIP3    H159800   3.371   4.073   6.929  0.4170 -2.1780 -0.5712
12795TIP3    H259801   3.412   3.985   7.046 -2.6733 -1.1500  1.4160
12796TIP3   OH259802   5.819   4.356  14.267  0.2937 -0.0357 -0.2860
12796TIP3    H159803   5.782   4.339  14.354 -1.5431 -0.8809 -1.1840
12796TIP3    H259804   5.810   4.274  14.220  1.5767  0.3170 -1.2088
12797TIP3   OH259805   0.616   6.103  16.536 -0.4444 -0.7150  0.1793
12797TIP3    H159806   0.542   6.079  16.592 -0.0151 -1.1635  0.5764
12797TIP3    H259807   0.578   6.153  16.465 -1.2967 -1.9392 -0.2644
12798TIP3   OH259808   2.937   3.442  10.890  0.2439 -0.1528  0.2182
12798TIP3    H159809   2.979   3.529  10.894  0.1309 -0.1279  1.1888
12798TIP3    H259810   2.988   3.394  10.824  0.9538  0.3218  0.4040
12799TIP3   OH259811   0.071   5.676   1.961 -0.3769  0.1338 -0.1182
12799TIP3    H159812  -0.004   5.685   1.902 -0.5555 -1.8644 -0.2655
12799TIP3    H259813   0.139   5.635   1.908 -0.3134 -1.0712  0.8461
12800TIP3   OH259814   2.521   5.493   3.304  0.5970 -0.5443 -0.1967
12800TIP3    H159815   2.500   5.484   3.211 -0.0058  1.8167 -0.3719
12800TIP3    H259816   2.603   5.543   3.305  1.2432 -1.5763  0.5660
12801TIP3   OH259817   4.854   2.136  12.792  0.4114  0.4811 -0.3369
12801TIP3    H159818   4.810   2.216  12.819 -0.9372 -0.3570  0.0248
12801TIP3    H259819   4.849   2.136  12.696 -2.0211 -0.4458 -0.2767
12802TIP3   OH259820   2.147   2.590  15.243  0.1955 -0.4078 -0.7049
12802TIP3    H159821   2.126   2.519  15.304  1.1568  0.7621  1.0720
12802TIP3    H259822   2.241   2.581  15.227  0.3469  0.5007 -0.3772
12803TIP3   OH259823   1.645   4.861  13.403 -0.2355  1.2493  0.1025
12803TIP3    H159824   1.664   4.771  13.376 -2.5049  0.7090  0.1757
12803TIP3    H259825   1.729   4.907  13.392  0.8691 -0.7556 -0.3142
12804TIP3   OH259826   4.141   6.443  15.728  0.0696 -0.1042 -0.8560
12804TIP3    H159827   4.172   6.373  15.786 -0.7967  0.4152  0.2575
12804TIP3    H259828   4.180   6.523  15.764 -1.3324  0.3660 -0.3173
12805TIP3   OH259829   4.279   0.446  16.445  0.0601 -0.4254  0.0943
12805TIP3    H159830   4.258   0.433  16.538 -1.3385  1.3070  0.0700
12805TIP3    H259831   4.201   0.414  16.399  1.5406 -3.2474 -0.6979
12806TIP3   OH259832   4.759   3.826  16.778  0.4777 -0.1566  0.3870
12806TIP3    H159833   4.829   3.890  16.783 -0.7977  1.2650  1.0218
12806TIP3    H259834   4.787   3.765  16.711  1.5588  1.3121 -0.5664
12807TIP3   OH259835   1.613   6.426  11.716 -0.1735 -0.6934 -0.2148
12807TIP3    H159836   1.703   6.414  11.686 -0.2440 -0.5398 -0.4953
12807TIP3    H259837   1.562   6.365  11.662 -0.4534  0.3908 -1.2142
12808TIP3   OH259838   3.817   1.100   5.971 -0.2593 -0.4034  0.2456
12808TIP3    H159839   3.783   1.167   6.030  1.4146  2.6485 -1.9692
12808TIP3    H259840   3.739   1.059   5.934 -1.3292 -0.3209  2.2621
12809TIP3   OH259841   4.161   2.246   1.774  0.7766 -0.2964  0.5661
12809TIP3    H159842   4.219   2.240   1.850  0.0574  1.3311  1.2905
12809TIP3    H259843   4.128   2.336   1.776 -1.5944 -1.0766  0.0663
12810TIP3   OH259844   6.685   5.027  12.546  0.3164 -0.7530 -0.1588
12810TIP3    H159845   6.656   5.077  12.469  1.0854 -0.0711 -0.0236
12810TIP3    H259846   6.672   5.086  12.619  1.8520 -0.4767 -0.0726
12811TIP3   OH259847   4.086   4.002   6.146  0.1402  0.4772  0.0188
12811TIP3    H159848   3.996   3.998   6.178  0.2070  0.4741  0.2068
12811TIP3    H259849   4.140   3.991   6.224  0.3004 -0.8135 -0.2510
12812TIP3   OH259850   3.679   2.792  15.878 -0.0071  0.1961  0.4045
12812TIP3    H159851   3.591   2.779  15.841  0.1502  2.4940 -1.0339
12812TIP3    H259852   3.681   2.738  15.956 -2.2170 -0.9822 -0.2643
12813TIP3   OH259853   3.281   3.958   2.389 -0.2253  0.0630 -0.1641
12813TIP3    H159854   3.318   4.029   2.441 -1.2699  0.2816  0.3010
12813TIP3    H259855   3.195   3.943   2.427 -0.3515 -0.8908 -0.7950
12814TIP3   OH259856   6.607   4.930  15.984 -0.3377  0.6418  1.0516
12814TIP3    H159857   6.564   5.015  15.977  0.9909  1.2945  0.2498
12814TIP3    H259858   6.537   4.869  16.007 -1.2233  2.0276  2.1940
12815TIP3   OH259859   1.438   2.696  17.153  0.2288  0.0132  0.2056
12815TIP3    H159860   1.497   2.772  17.153  1.6495 -1.0694  0.3563
12815TIP3    H259861   1.487   2.626  17.111  0.1133 -1.6973  2.7085
12816TIP3   OH259862   2.613   5.831   0.803 -0.5736 -0.3678  0.2235
12816TIP3    H159863   2.647   5.830   0.714  0.8988  0.7124  0.7387
12816TIP3    H259864   2.574   5.744   0.814  1.9436 -1.6858 -0.4774
12817TIP3   OH259865   0.240   2.280   2.350  0.1023  0.4178 -0.6281
12817TIP3    H159866   0.291   2.297   2.270  1.6124  0.0937  0.2242
12817TIP3    H259867   0.304   2.285   2.421 -0.3807 -2.9681  0.2405
12818TIP3   OH259868   4.642   4.653  12.898  0.0637 -0.2571  0.1039
12818TIP3    H159869   4.667   4.743  12.917 -0.9087 -0.1184  0.7623
12818TIP3    H259870   4.640   4.649  12.802  0.1105  0.4160  0.0691
12819TIP3   OH259871   1.036   4.026  13.613  0.5102  0.2819  0.3879
12819TIP3    H159872   0.958   3.973  13.626  1.2249 -1.0859 -0.6330
12819TIP3    H259873   1.063   4.052  13.701 -0.3665 -0.3035  0.8401
12820TIP3   OH259874   1.285   5.787  16.455 -0.2524  0.1914  0.1892
12820TIP3    H159875   1.335   5.861  16.490 -1.5549  1.0377  0.3262
12820TIP3    H259876   1.343   5.749  16.388  0.1431  1.8421 -0.4702
12821TIP3   OH259877   3.679   4.782  16.854  0.2548  0.0398  0.1669
12821TIP3    H159878   3.720   4.697  16.839 -1.7413 -0.7574 -1.0245
12821TIP3    H259879   3.715   4.838  16.785 -0.4385 -0.5827 -0.7142
12822TIP3   OH259880   0.384   3.598  12.261 -0.6499  0.3217  0.5501
12822TIP3    H159881   0.410   3.516  12.219 -1.3910 -0.0341  0.7676
12822TIP3    H259882   0.398   3.665  12.193 -1.2105 -0.1583 -0.0597
12823TIP3   OH259883   5.361   1.959  14.577 -0.6656 -0.6308 -0.0570
12823TIP3    H159884   5.366   1.908  14.658  0.1170 -1.0872 -0.3793
12823TIP3    H259885   5.324   1.898  14.513  2.0145 -1.4850 -0.9295
12824TIP3   OH259886   1.349   2.825   1.187  0.4381 -0.0160 -0.3260
12824TIP3    H159887   1.387   2.870   1.111  0.7495 -1.2867 -0.9427
12824TIP3    H259888   1.256   2.818   1.165  0.3747  0.3639 -0.1971
12825TIP3   OH259889   5.930   0.012  16.641 -0.8108  0.7930 -0.2315
12825TIP3    H159890   5.987  -0.020  16.711 -2.0350  2.5472  1.6652
12825TIP3    H259891   5.978   0.087  16.604 -0.3126  0.0649 -1.1051
12826TIP3   OH259892   0.621   1.423  11.529  0.1241 -0.5081 -0.4316
12826TIP3    H159893   0.714   1.432  11.552  0.0875  1.5785 -0.9530
12826TIP3    H259894   0.579   1.500  11.566 -1.3763 -1.2642 -0.4772
12827TIP3   OH259895   2.694   0.964   1.088  0.4294  0.2840  0.3991
12827TIP3    H159896   2.671   0.994   1.000  1.3940 -0.1892 -0.0372
12827TIP3    H259897   2.621   0.991   1.143 -0.8143 -0.5387 -0.7658
12828TIP3   OH259898   4.821   6.356  13.890  0.4327  0.0838  0.1421
12828TIP3    H159899   4.872   6.297  13.945  1.5879  1.4960  0.6693
12828TIP3    H259900   4.738   6.366  13.935 -0.3193 -2.1308 -0.6368
12829TIP3   OH259901   3.627   5.492  10.595 -0.1552  0.1556 -0.3480
12829TIP3    H159902   3.698   5.486  10.658  0.8957  0.5130 -1.4696
12829TIP3    H259903   3.592   5.403  10.589  2.2180 -0.7434 -2.0294
12830TIP3   OH259904   5.918   3.080   0.270  0.1849  0.1439  0.1142
12830TIP3    H159905   5.889   2.994   0.299 -0.6381  0.3559 -0.0397
12830TIP3    H259906   5.945   3.125   0.350  0.8367 -0.3342  0.1648
12831TIP3   OH259907   6.659   4.283   3.227  0.5138 -0.0826  0.4396
12831TIP3    H159908   6.631   4.268   3.137  1.5843  1.5465 -0.2110
12831TIP3    H259909   6.582   4.318   3.271  0.0829 -0.5615  0.0837
12832TIP3   OH259910   2.147   4.852  14.194  0.4012  0.0515  0.3040
12832TIP3    H159911   2.147   4.896  14.109  1.7640  1.0014  0.7774
12832TIP3    H259912   2.147   4.923  14.258  3.6236 -0.5250  1.0902
12833TIP3   OH259913   1.083   0.100   0.637 -0.2114 -0.7436  0.2712
12833TIP3    H159914   1.142   0.040   0.591  0.0909 -0.2209 -0.0259
12833TIP3    H259915   1.008   0.109   0.579 -0.3604 -1.0092  0.4195
12834TIP3   OH259916   5.322   3.084   2.583 -0.1317  0.1152  0.2483
12834TIP3    H159917   5.417   3.072   2.576 -0.0920  1.3935 -2.8052
12834TIP3    H259918   5.285   3.000   2.557  0.2398  0.5770 -2.0267
12835TIP3   OH259919   5.629   2.350  10.867  0.5760  0.4781  0.1990
12835TIP3    H159920   5.584   2.305  10.939 -0.3619 -0.6758 -1.0626
12835TIP3    H259921   5.586   2.435  10.861  0.2277  0.3318  0.5883
12836TIP3   OH259922   2.138   5.141   3.958  0.0785  1.2325  0.1438
12836TIP3    H159923   2.158   5.086   4.034 -0.1052 -0.6135 -1.0554
12836TIP3    H259924   2.047   5.121   3.937  0.4694  0.7247 -1.2499
12837TIP3   OH259925   4.250   5.911  14.115 -0.0944 -0.0227  0.0351
12837TIP3    H159926   4.315   5.843  14.131 -0.3604 -0.1933  0.3992
12837TIP3    H259927   4.173   5.865  14.082  0.2397  0.2624 -1.2112
12838TIP3   OH259928   5.031   6.604  16.228  0.2395  0.3224 -0.2025
12838TIP3    H159929   5.038   6.549  16.307 -2.1834  1.0967  0.6513
12838TIP3    H259930   5.119   6.639  16.215  1.2415 -1.6731  0.7646
12839TIP3   OH259931   0.038   2.317  15.665 -0.9320 -0.0441  0.1541
12839TIP3    H159932   0.101   2.363  15.721 -0.8451 -1.7114  1.4970
12839TIP3    H259933  -0.046   2.358  15.685 -0.5638  0.9558 -0.2765
12840TIP3   OH259934   3.680   5.913   4.342 -0.2964  0.2097 -0.2886
12840TIP3    H159935   3.753   5.939   4.286  0.5670  0.6853  0.9997
12840TIP3    H259936   3.722   5.873   4.419 -1.4840 -1.8584 -0.6311
12841TIP3   OH259937   5.161   3.465   0.368  0.1389  0.0491  0.1181
12841TIP3    H159938   5.154   3.425   0.454 -0.0721  0.6878  0.4019
12841TIP3    H259939   5.245   3.512   0.370 -0.7365  1.6707  0.6783
12842TIP3   OH259940   0.715   1.870  15.095  0.0337  0.7472 -0.6709
12842TIP3    H159941   0.652   1.817  15.144  2.0051 -2.7340 -1.5686
12842TIP3    H259942   0.773   1.907  15.162 -0.6860  0.8255 -0.0778
12843TIP3   OH259943   1.488   3.310   2.573 -0.2844  0.3972  0.5898
12843TIP3    H159944   1.514   3.234   2.521 -1.4454 -0.9120  1.8527
12843TIP3    H259945   1.571   3.350   2.600  0.3476  0.4903 -1.2977
12844TIP3   OH259946   0.368   3.061  13.012  0.0105  0.1171  0.4540
12844TIP3    H159947   0.363   3.064  13.108 -2.2126  2.5559  0.3799
12844TIP3    H259948   0.276   3.061  12.984  0.6214 -0.3667 -1.7032
12845TIP3   OH259949   3.989   2.808   2.284  0.4715 -0.3151 -0.0979
12845TIP3    H159950   4.034   2.855   2.215 -0.5697  1.1249  0.1633
12845TIP3    H259951   4.016   2.851   2.365 -0.4618 -0.1717  0.1498
12846TIP3   OH259952   3.384   6.584   4.106 -0.0363 -0.5796 -0.0327
12846TIP3    H159953   3.336   6.592   4.024  1.8126  2.5943 -0.9561
12846TIP3    H259954   3.350   6.655   4.161  2.4737  0.8631 -0.2003
12847TIP3   OH259955   0.340   1.607   2.508 -0.5400  0.7238 -0.0796
12847TIP3    H159956   0.328   1.636   2.599 -0.3520  0.4438  0.0354
12847TIP3    H259957   0.260   1.636   2.463  0.2064  2.6262 -0.2831
12848TIP3   OH259958   3.806   6.234   0.020 -0.5355  0.3688 -0.0468
12848TIP3    H159959   3.838   6.320   0.046 -0.8828 -0.3053  2.9725
12848TIP3    H259960   3.883   6.176   0.026 -0.5584  0.2203 -0.9461
12849TIP3   OH259961   5.833   6.517   4.593  0.0712 -1.1042 -0.2996
12849TIP3    H159962   5.874   6.599   4.566 -1.4041  0.1377  1.0714
12849TIP3    H259963   5.875   6.496   4.677 -0.7288 -0.8274  0.1829
12850TIP3   OH259964   4.296   6.125  15.903 -0.1801 -0.6948 -0.3098
12850TIP3    H159965   4.331   6.078  15.979 -1.2101  0.6556  1.0815
12850TIP3    H259966   4.201   6.122  15.915 -0.4599 -1.6071 -2.3174
12851TIP3   OH259967   1.164   5.580  14.635  0.2215  0.2427 -0.3850
12851TIP3    H159968   1.252   5.593  14.670  0.6434 -0.7972 -1.0069
12851TIP3    H259969   1.178   5.570  14.541 -0.6198  0.5318 -0.5445
12852TIP3   OH259970   0.506   4.568  16.049 -0.1059 -0.0276  0.6041
12852TIP3    H159971   0.425   4.612  16.074 -0.4436 -0.2741 -0.0294
12852TIP3    H259972   0.499   4.557  15.954  1.0405  0.6841  0.4163
12853TIP3   OH259973   0.296   5.317  16.364  0.3118 -0.0232 -0.1182
12853TIP3    H159974   0.279   5.280  16.450 -1.8375 -2.1677 -1.3451
12853TIP3    H259975   0.210   5.325  16.323  1.3318 -0.0484 -2.4515
12854TIP3   OH259976   3.035   0.563   2.556 -0.5658  0.0894  0.4063
12854TIP3    H159977   2.968   0.512   2.602 -0.5723  0.8148  1.2254
12854TIP3    H259978   3.056   0.635   2.616  0.5705  0.1679 -0.0530
12855TIP3   OH259979   1.536   6.764   2.136  0.0700 -0.8903  0.0126
12855TIP3    H159980   1.470   6.738   2.201 -2.0702 -0.5344 -1.9007
12855TIP3    H259981   1.520   6.857   2.122 -0.4296 -1.2257 -1.9534
12856TIP3   OH259982   4.291   0.737   0.955  0.3849 -0.2624  0.3141
12856TIP3    H159983   4.380   0.724   0.987  1.2808  0.5401 -1.6669
12856TIP3    H259984   4.239   0.668   0.997  2.2177 -1.6625  0.3873
12857TIP3   OH259985   3.466   0.465  11.960  0.4610 -0.4945 -0.6825
12857TIP3    H159986   3.559   0.476  11.942  0.4156 -0.7636 -1.0706
12857TIP3    H259987   3.461   0.462  12.056  1.0825 -2.4438 -0.6615
12858TIP3   OH259988   3.768   3.605  16.698 -0.2471  0.1926 -0.0299
12858TIP3    H159989   3.838   3.671  16.705  0.4171 -0.5396  0.3509
12858TIP3    H259990   3.723   3.609  16.782 -0.7833  0.7717 -0.3306
12859TIP3   OH259991   1.106   5.836   6.052 -0.0228  0.1510 -0.7862
12859TIP3    H159992   1.086   5.798   5.966  2.4400 -1.3238 -0.8199
12859TIP3    H259993   1.081   5.928   6.044 -1.3210 -0.3034 -2.5332
12860TIP3   OH259994   5.487   3.204   1.418  0.4553 -0.1308 -0.3167
12860TIP3    H159995   5.513   3.279   1.364  0.7427 -1.1038 -1.5560
12860TIP3    H259996   5.565   3.149   1.423  0.6008  0.1592  1.5365
12861TIP3   OH259997   0.884   6.621  16.863 -0.0231  0.7094 -0.6048
12861TIP3    H159998   0.909   6.529  16.865  0.7012  0.9109 -0.0945
12861TIP3    H259999   0.793   6.622  16.894  1.3054  0.5749  3.9846
12862TIP3   OH260000   6.662   4.070  14.110 -0.4860 -0.2710  0.0562
12862TIP3    H160001   6.693   4.069  14.200 -2.4688 -1.1248  0.7891
12862TIP3    H260002   6.568   4.088  14.117 -0.8286 -1.1052 -1.7820
12863TIP3   OH260003   2.311   4.369  16.145 -0.5717 -0.1958 -0.0535
12863TIP3    H160004   2.282   4.432  16.080  0.3442 -1.1593 -1.4523
12863TIP3    H260005   2.364   4.420  16.207 -0.0517  0.4659 -1.0174
12864TIP3   OH260006   0.409   6.762  15.915  0.2552  0.2882  0.1582
12864TIP3    H160007   0.483   6.788  15.860  0.7922 -0.0943  0.6823
12864TIP3    H260008   0.364   6.844  15.935  1.3426  0.7201  0.9625
12865TIP3   OH260009   4.896   2.218  16.454  0.1001 -0.6010  0.5137
12865TIP3    H160010   4.835   2.160  16.501  1.8157 -1.4639  1.7953
12865TIP3    H260011   4.845   2.252  16.381 -2.4000 -0.0596  2.3753
12866TIP3   OH260012   1.361   2.084  11.709  0.2263  0.5253  0.0732
12866TIP3    H160013   1.418   2.137  11.655 -0.6415  4.2555  2.4699
12866TIP3    H260014   1.275   2.125  11.701 -1.0536 -1.8609  0.4924
12867TIP3   OH260015   5.803   4.173  15.835 -0.6216  0.5037  0.3722
12867TIP3    H160016   5.851   4.241  15.788  0.1679 -0.3950 -0.1782
12867TIP3    H260017   5.807   4.097  15.777 -0.8901 -0.2046  1.2613
12868TIP3   OH260018   3.645   6.752  11.651  0.5524 -0.0659  0.0340
12868TIP3    H160019   3.702   6.677  11.667 -0.4343 -1.0413 -0.8410
12868TIP3    H260020   3.680   6.822  11.707  1.9006 -0.9636  0.3556
12869TIP3   OH260021   4.148   4.972  13.265  0.0775  0.4512  0.5426
12869TIP3    H160022   4.222   5.032  13.256 -0.8041  1.6157  0.8289
12869TIP3    H260023   4.073   5.029  13.282 -0.5468 -0.7938  2.2897
12870TIP3   OH260024   3.092   1.852   0.374 -0.6051  0.1710 -0.4479
12870TIP3    H160025   3.015   1.870   0.427 -0.2758  0.0694  0.0756
12870TIP3    H260026   3.150   1.801   0.431 -0.9968 -1.5342 -1.4929
12871TIP3   OH260027   5.324   0.276  14.095 -0.0037  0.0748 -0.2998
12871TIP3    H160028   5.303   0.353  14.043  0.1975  0.9137  0.8200
12871TIP3    H260029   5.412   0.250  14.065 -0.0971  0.2309 -0.7181
12872TIP3   OH260030   6.427   3.477  12.268 -0.6996  0.2684  0.1944
12872TIP3    H160031   6.411   3.509  12.179 -0.2391  2.1953  0.7686
12872TIP3    H260032   6.460   3.553  12.316 -0.6435 -0.8037  1.9486
12873TIP3   OH260033   4.148   2.658   4.428  0.6803  0.0431  0.1638
12873TIP3    H160034   4.124   2.639   4.338  1.7138 -0.3586 -0.0411
12873TIP3    H260035   4.129   2.752   4.438 -0.9298 -0.2441  0.0400
12874TIP3   OH260036   0.436   1.657  13.038  0.8747  0.1718  0.5297
12874TIP3    H160037   0.406   1.731  12.985  1.2951  0.0651  0.1404
12874TIP3    H260038   0.462   1.696  13.121 -1.1663  0.1791  1.2350
12875TIP3   OH260039   3.543   3.629  16.883 -0.0894  0.0601  0.3417
12875TIP3    H160040   3.533   3.674  16.967 -0.0949  0.5349  0.0899
12875TIP3    H260041   3.454   3.603  16.859  0.2133 -3.1356  2.1172
12876TIP3   OH260042   3.542   1.684   3.253  0.2693  0.0737 -0.0216
12876TIP3    H160043   3.606   1.725   3.196 -0.8719 -0.4467 -1.7651
12876TIP3    H260044   3.545   1.591   3.229 -1.6356  0.1507 -0.6944
12877TIP3   OH260045   0.176   2.509   3.493  0.1393 -0.4246  0.6632
12877TIP3    H160046   0.112   2.452   3.535 -0.2032  0.1871  0.9862
12877TIP3    H260047   0.134   2.536   3.411  0.5591 -1.1312  0.2049
12878TIP3   OH260048   5.734   0.215  14.641  0.5802  0.4668 -0.4326
12878TIP3    H160049   5.715   0.135  14.691  1.9068 -1.7625 -3.2301
12878TIP3    H260050   5.661   0.222  14.580  0.9275  0.8803 -0.8004
12879TIP3   OH260051   4.707   2.642   5.512 -0.7991  0.1108  0.2133
12879TIP3    H160052   4.633   2.647   5.573 -0.6721  0.6386  0.3273
12879TIP3    H260053   4.689   2.710   5.447 -1.8648 -1.6240 -1.4024
12880TIP3   OH260054   1.516   4.413  13.491 -0.6364 -0.0338 -0.1153
12880TIP3    H160055   1.544   4.351  13.558 -0.6273  1.0882  0.9593
12880TIP3    H260056   1.540   4.371  13.408 -0.2655 -1.2660  0.5831
12881TIP3   OH260057   0.652   3.254   5.256  0.3973  0.8711  0.4695
12881TIP3    H160058   0.682   3.225   5.170 -0.9471 -0.7013  0.4947
12881TIP3    H260059   0.610   3.339   5.239  0.4554  0.7457 -0.3565
12882TIP3   OH260060   6.669   4.164   4.887  0.5343 -0.5511 -0.0072
12882TIP3    H160061   6.637   4.253   4.871 -0.1780 -0.2759  2.6014
12882TIP3    H260062   6.739   4.174   4.951  1.0272 -1.8215 -0.3031
12883TIP3   OH260063   6.208   2.932  14.596  0.6342 -1.0454  0.5651
12883TIP3    H160064   6.293   2.937  14.640  0.8115 -0.0972  0.1238
12883TIP3    H260065   6.145   2.920  14.667  0.6626  2.6395  1.3887
12884TIP3   OH260066   5.719   3.871  12.981  0.8384 -0.4097 -0.6160
12884TIP3    H160067   5.757   3.952  13.015  3.4415 -1.1830 -1.4042
12884TIP3    H260068   5.757   3.802  13.036  0.7770 -1.2653 -1.6028
12885TIP3   OH260069   1.012   1.112   2.870 -0.1297  0.1430  0.4365
12885TIP3    H160070   0.975   1.029   2.840  0.8582 -0.0268 -0.3463
12885TIP3    H260071   1.031   1.097   2.963 -0.3444 -0.3685  0.4032
12886TIP3   OH260072   1.610   3.022  10.770 -0.4653 -0.0928 -0.1403
12886TIP3    H160073   1.677   3.065  10.825  0.7840  0.8596 -2.2736
12886TIP3    H260074   1.657   2.950  10.728 -1.0503 -0.0643 -0.8605
12887TIP3   OH260075   5.796   3.140  15.050 -0.4339  0.6568  0.4737
12887TIP3    H160076   5.757   3.107  15.131  1.5568 -0.7505  0.9494
12887TIP3    H260077   5.884   3.166  15.075  0.0509  0.6848 -1.1415
12888TIP3   OH260078   5.619   3.618   5.982 -0.5526  0.4105 -0.2071
12888TIP3    H160079   5.637   3.561   5.907 -0.2246  0.2274  0.0073
12888TIP3    H260080   5.589   3.558   6.051  0.5794  0.3889  0.2808
12889TIP3   OH260081   5.282   3.817  14.903  0.6427 -0.4157 -0.4733
12889TIP3    H160082   5.247   3.764  14.832 -2.0127 -0.0480  0.4614
12889TIP3    H260083   5.276   3.761  14.980 -1.5492  0.9120  0.3953
12890TIP3   OH260084   6.317   1.872  12.020 -0.5292  0.0976  0.1813
12890TIP3    H160085   6.274   1.825  12.091 -0.1577 -0.0762  0.2922
12890TIP3    H260086   6.407   1.838  12.018 -0.5878 -0.0387 -0.4959
12891TIP3   OH260087   0.847   4.149   5.373 -0.0829  0.1647 -0.3740
12891TIP3    H160088   0.772   4.163   5.316 -0.5751 -1.0597 -0.0535
12891TIP3    H260089   0.809   4.133   5.460  0.5722  0.0436 -0.1012
12892TIP3   OH260090   5.346   3.843   6.289 -0.1625 -0.3924  0.2626
12892TIP3    H160091   5.372   3.761   6.246  0.3075 -1.6428  2.7483
12892TIP3    H260092   5.284   3.816   6.357 -0.2614  1.3686  0.9226
12893TIP3   OH260093   0.871   1.660   3.239 -0.5555 -0.2255 -0.2041
12893TIP3    H160094   0.848   1.669   3.332  0.2221 -1.4963  0.1567
12893TIP3    H260095   0.789   1.672   3.192 -0.9431  0.5620  0.6344
12894TIP3   OH260096   5.033   6.508  14.074  0.4175 -0.2227  0.5332
12894TIP3    H160097   4.996   6.528  14.160 -0.1346  0.8347  0.0585
12894TIP3    H260098   4.973   6.444  14.036  0.0086  0.2190  0.4430
12895TIP3   OH260099   0.834   0.592   4.459 -0.6139 -0.5924  0.0386
12895TIP3    H160100   0.824   0.497   4.453  2.1052 -0.9393 -0.3613
12895TIP3    H260101   0.898   0.604   4.530 -0.4007  0.8809 -0.3789
12896TIP3   OH260102   3.381   1.093  17.236 -0.0618 -0.2710 -0.1361
12896TIP3    H160103   3.455   1.084  17.295  1.1346  1.0984 -1.3341
12896TIP3    H260104   3.330   1.166  17.273  0.3293  0.1470 -0.4018
12897TIP3   OH260105   2.533   1.814   3.705 -0.8068  0.0656 -0.5401
12897TIP3    H160106   2.576   1.866   3.637  0.2864  0.1962  0.2275
12897TIP3    H260107   2.557   1.858   3.787 -0.4516 -1.2368  0.0705
12898TIP3   OH260108   1.138   2.738   5.859  0.4646  0.1606  0.1262
12898TIP3    H160109   1.173   2.827   5.851 -0.9202  0.7038 -0.2206
12898TIP3    H260110   1.108   2.732   5.949  1.3202 -0.2765  0.3985
12899TIP3   OH260111   2.875   0.851  14.066  0.0065 -0.1058  0.6941
12899TIP3    H160112   2.832   0.842  14.151 -0.5398 -0.5359  0.3725
12899TIP3    H260113   2.814   0.813  14.003 -0.6464  2.2901 -0.2113
12900TIP3   OH260114   0.335   1.796   5.263 -0.6903 -0.2483  0.7648
12900TIP3    H160115   0.383   1.748   5.195 -0.8759  0.0377  0.4241
12900TIP3    H260116   0.258   1.741   5.280 -1.6086  0.5337 -0.5916
12901TIP3   OH260117   0.996   3.506   5.685 -0.3099  0.2921  0.0633
12901TIP3    H160118   1.076   3.455   5.679  0.6009  1.8186 -1.8071
12901TIP3    H260119   0.926   3.441   5.680  0.7201 -1.1778  2.8147
12902TIP3   OH260120   6.094   3.534   3.184  0.1447  0.3126  0.1587
12902TIP3    H160121   6.005   3.507   3.160  0.2545 -0.3111  0.4257
12902TIP3    H260122   6.122   3.590   3.111 -0.1242 -0.2522 -0.3946
12903TIP3   OH260123   5.048   5.772   2.775 -0.2267  0.1116 -0.6050
12903TIP3    H160124   4.979   5.758   2.840  0.4986 -0.6999  0.0179
12903TIP3    H260125   5.088   5.686   2.764  0.9922  0.6499 -0.5891
12904TIP3   OH260126   4.652   6.541   2.775  0.2335  0.0685 -0.1575
12904TIP3    H160127   4.703   6.513   2.851 -0.3927 -1.2234 -0.1903
12904TIP3    H260128   4.636   6.461   2.725 -2.2458  0.3154  0.1124
12905TIP3   OH260129   3.730   0.677   2.674 -0.2888  0.5232 -0.0532
12905TIP3    H160130   3.662   0.620   2.641 -0.9767  0.8656  0.7386
12905TIP3    H260131   3.725   0.755   2.620 -0.0032  0.2409 -0.4936
12906TIP3   OH260132   4.069   0.079  13.807  0.1540  0.2581  0.4419
12906TIP3    H160133   4.151   0.039  13.836 -0.1443 -0.9604 -0.3058
12906TIP3    H260134   4.089   0.116  13.721 -0.3301 -1.0198 -0.2451
12907TIP3   OH260135   5.158   2.839   5.494 -0.2696  0.0176 -0.3096
12907TIP3    H160136   5.149   2.788   5.413 -0.3383 -0.5967  0.0783
12907TIP3    H260137   5.073   2.881   5.505  0.1422  1.1569 -1.2389
12908TIP3   OH260138   2.332   1.556  14.894 -0.3035 -0.1335  0.2010
12908TIP3    H160139   2.293   1.540  14.980  0.3193  1.9930  0.9290
12908TIP3    H260140   2.263   1.597  14.843 -0.4296 -0.6752 -0.0735
12909TIP3   OH260141   5.664   0.686  13.789  0.8170 -0.0497  0.7556
12909TIP3    H160142   5.714   0.644  13.859  0.6912 -2.0457 -0.2773
12909TIP3    H260143   5.686   0.636  13.710 -1.1252  0.3962 -0.1393
12910TIP3   OH260144   1.861   2.370   0.904  0.7795  0.3124 -0.4574
12910TIP3    H160145   1.948   2.374   0.945  0.7580  1.3112 -0.4850
12910TIP3    H260146   1.832   2.280   0.918  1.9588 -0.1337 -0.7413
12911TIP3   OH260147   6.551   5.755   5.571  0.0744  0.6821  0.1091
12911TIP3    H160148   6.474   5.801   5.537 -0.0255 -0.2257 -0.9489
12911TIP3    H260149   6.516   5.695   5.636 -0.3423 -0.7001 -1.3160
12912TIP3   OH260150   2.881   5.614  12.070 -0.1935 -0.1969  0.2926
12912TIP3    H160151   2.956   5.589  12.016  0.8601  0.7650  1.2467
12912TIP3    H260152   2.853   5.698  12.033 -1.4999 -1.0357 -0.7136
12913TIP3   OH260153   1.790   4.012   0.457 -0.5088  0.4021 -0.6367
12913TIP3    H160154   1.836   4.096   0.467 -0.5492  0.3505  0.0563
12913TIP3    H260155   1.717   4.018   0.519 -0.2720 -0.3072 -0.2883
12914TIP3   OH260156   4.814   5.022   1.109 -0.2598 -0.6069  0.0919
12914TIP3    H160157   4.795   5.051   1.020 -0.0692 -1.4752 -0.2361
12914TIP3    H260158   4.830   4.928   1.102  1.3640 -0.4297  0.7752
12915TIP3   OH260159   1.324   6.309  15.268  0.7641 -0.4178  0.0249
12915TIP3    H160160   1.407   6.316  15.315  0.6846  0.3418  0.0552
12915TIP3    H260161   1.270   6.251  15.322  1.0461 -0.3940  0.3308
12916TIP3   OH260162   6.264   5.441   0.518  0.4483 -0.4274 -0.1703
12916TIP3    H160163   6.339   5.460   0.575  1.3941 -0.3436 -1.4084
12916TIP3    H260164   6.248   5.523   0.471 -1.3371 -0.0089  1.0550
12917TIP3   OH260165   1.792   5.292   3.448  0.5259 -0.3047 -0.1024
12917TIP3    H160166   1.736   5.344   3.506  4.5560  3.0319  1.3176
12917TIP3    H260167   1.860   5.257   3.506  2.2680 -0.6185 -2.2190
12918TIP3   OH260168   2.500   5.045   0.402 -0.4974  0.0532  0.2544
12918TIP3    H160169   2.441   5.109   0.442  0.1963  0.3204  0.8553
12918TIP3    H260170   2.511   5.076   0.312 -0.5957  0.4770  0.3860
12919TIP3   OH260171   5.642   3.936   1.312 -0.4796 -0.0982  0.1321
12919TIP3    H160172   5.737   3.931   1.308 -0.4326  0.4530  0.4277
12919TIP3    H260173   5.624   3.990   1.389 -1.0387 -0.4640  0.2651
12920TIP3   OH260174   3.926   5.888  16.823  0.2986  0.1042 -0.1818
12920TIP3    H160175   3.980   5.967  16.822 -0.6054  0.8657  2.7254
12920TIP3    H260176   3.837   5.921  16.807  0.1990 -0.6935 -1.4123
12921TIP3   OH260177   0.339   0.249   2.039  0.4748 -0.2277  0.5416
12921TIP3    H160178   0.434   0.254   2.049  0.7183 -2.1668 -0.4730
12921TIP3    H260179   0.325   0.237   1.946 -0.8236  0.4758  0.6200
12922TIP3   OH260180   6.271   0.014   4.967 -0.0054  0.0734  0.1036
12922TIP3    H160181   6.239  -0.076   4.974 -0.1952  0.0606 -0.7819
12922TIP3    H260182   6.349   0.017   5.022  0.5626 -0.8957 -0.6472
12923TIP3   OH260183   4.025   5.626  13.309  0.1560  0.4511 -0.2420
12923TIP3    H160184   4.115   5.609  13.337 -0.2403  0.2308  0.9648
12923TIP3    H260185   3.995   5.543  13.273 -0.5790 -0.4483  2.2814
12924TIP3   OH260186   1.581   4.927   5.756  0.7526 -0.5134  0.0210
12924TIP3    H160187   1.668   4.910   5.793  0.5496 -0.0938  0.7211
12924TIP3    H260188   1.571   4.862   5.687  1.3697 -0.9766  0.3575
12925TIP3   OH260189   4.263   5.348   6.403  0.0500  1.0726  0.1079
12925TIP3    H160190   4.285   5.290   6.476  0.4301  0.3888 -0.5484
12925TIP3    H260191   4.167   5.340   6.395 -0.0328  1.3723  0.7037
12926TIP3   OH260192   3.637   0.808  11.761 -0.4853 -0.1739  0.0621
12926TIP3    H160193   3.574   0.802  11.688 -1.6081  1.6727  0.8024
12926TIP3    H260194   3.697   0.735  11.747 -1.0113 -0.2214 -2.3834
12927TIP3   OH260195   3.053   6.444  12.077 -0.9749  0.6481 -0.4943
12927TIP3    H160196   2.997   6.520  12.094 -0.7773  1.7821 -4.0740
12927TIP3    H260197   3.000   6.388  12.020 -0.4520 -1.0952  0.6578
12928TIP3   OH260198   3.935   3.086  14.946 -0.2480 -0.5089 -0.7460
12928TIP3    H160199   3.997   3.047  15.008 -1.1987 -0.5787  0.1706
12928TIP3    H260200   3.988   3.148  14.895 -0.0608  2.1674  2.4054
12929TIP3   OH260201   6.146   3.011  12.478  0.3713  0.0048 -0.0494
12929TIP3    H160202   6.131   2.936  12.421  0.4401 -0.0501  0.0042
12929TIP3    H260203   6.141   3.087  12.420 -0.7809  0.0344  0.0680
12930TIP3   OH260204   0.729   0.068   3.441 -0.6842 -0.1017  0.7040
12930TIP3    H160205   0.780   0.123   3.381 -1.7546 -1.4071 -1.5630
12930TIP3    H260206   0.731   0.114   3.524  2.6169  0.8032  0.2502
12931TIP3   OH260207   1.724   1.437   4.963 -0.7076  0.3390 -0.2746
12931TIP3    H160208   1.647   1.402   4.918  0.1539  0.8594 -2.2808
12931TIP3    H260209   1.696   1.522   4.996 -0.8797  0.7678 -1.4636
12932TIP3   OH260210   5.384   2.732  17.017 -0.1987  0.4811  0.2661
12932TIP3    H160211   5.402   2.772  16.932 -0.3246  0.3009  0.1532
12932TIP3    H260212   5.380   2.806  17.077 -1.1728  0.7282 -0.0672
12933TIP3   OH260213   2.817   0.944  11.639 -0.3033  0.3114  0.1545
12933TIP3    H160214   2.911   0.924  11.630 -0.3064  0.8043 -1.1224
12933TIP3    H260215   2.773   0.864  11.610 -0.2826  1.1408 -2.3773
12934TIP3   OH260216   1.138   0.633  15.642 -0.2216 -0.1451 -0.2197
12934TIP3    H160217   1.090   0.550  15.641  0.6669 -0.6672 -0.4384
12934TIP3    H260218   1.201   0.625  15.571  0.2577  0.4922  0.1251
12935TIP3   OH260219   6.548   6.137   3.103 -0.3012  0.8384 -0.1051
12935TIP3    H160220   6.579   6.102   3.020  1.0554 -0.5579  0.9266
12935TIP3    H260221   6.594   6.220   3.113  1.6504 -0.2452  0.4469
12936TIP3   OH260222   3.641   5.165  13.406 -0.1195 -0.7336 -0.2289
12936TIP3    H160223   3.591   5.139  13.484 -2.0691  1.5976 -0.5835
12936TIP3    H260224   3.617   5.256  13.392  2.3849 -0.2469 -1.9517
12937TIP3   OH260225   6.482   6.674   0.275  0.0027  0.4102 -0.0064
12937TIP3    H160226   6.402   6.652   0.227 -1.4194  0.5926  2.1145
12937TIP3    H260227   6.493   6.768   0.262 -0.0427  0.3544 -0.4430
12938TIP3   OH260228   6.130   3.939  11.271  1.1585 -0.0847 -0.1412
12938TIP3    H160229   6.197   3.902  11.214  1.8278 -1.2318  1.3162
12938TIP3    H260230   6.134   4.034  11.255  2.3235 -0.2444 -0.9083
12939TIP3   OH260231   0.599   2.786  15.937 -0.3318 -0.2540  0.1067
12939TIP3    H160232   0.534   2.753  15.875  1.9141  0.2173 -2.6879
12939TIP3    H260233   0.611   2.878  15.912  3.9932 -1.1960 -2.0819
12940TIP3   OH260234   0.969   0.541   3.761  0.0319 -0.0049 -0.1130
12940TIP3    H160235   0.914   0.501   3.829  0.7298 -0.9372 -0.0613
12940TIP3    H260236   0.908   0.570   3.694 -0.6324  0.4377  0.6639
12941TIP3   OH260237   3.542   2.224   1.665  0.1153  0.0268 -0.2946
12941TIP3    H160238   3.491   2.274   1.601  0.4278  1.0476  0.2260
12941TIP3    H260239   3.619   2.278   1.682 -0.2894  0.1156  1.4535
12942TIP3   OH260240   6.474   1.090   0.060 -1.2205 -0.1495 -0.1088
12942TIP3    H160241   6.428   1.168   0.028 -1.7044 -0.9470 -1.4443
12942TIP3    H260242   6.446   1.082   0.152 -0.5802  1.6313  0.2911
12943TIP3   OH260243   5.133   1.190  13.921  0.2303 -0.6752 -0.0810
12943TIP3    H160244   5.154   1.116  13.865  0.2909 -0.7742  0.0742
12943TIP3    H260245   5.216   1.237  13.930  0.4472 -1.2042  0.7366
12944TIP3   OH260246   6.613   2.425  14.460  0.4631  0.9236  0.4589
12944TIP3    H160247   6.635   2.460  14.546 -0.3014  0.7201  0.7510
12944TIP3    H260248   6.693   2.435  14.408  1.4089 -0.3105  1.6184
12945TIP3   OH260249   2.750   1.708  12.848 -0.6966  0.3581  0.0413
12945TIP3    H160250   2.672   1.761  12.834 -0.8277  0.3347  0.6901
12945TIP3    H260251   2.809   1.733  12.776 -0.8716  1.1614  0.1699
12946TIP3   OH260252   0.128   4.822  13.837 -0.4458  0.6923 -0.4936
12946TIP3    H160253   0.076   4.771  13.898  0.1276  2.0840  1.2222
12946TIP3    H260254   0.217   4.786  13.845  0.0371  2.1322  0.9945
12947TIP3   OH260255   1.498   1.745   2.274 -0.2290 -0.4351 -0.3133
12947TIP3    H160256   1.544   1.667   2.244 -0.6213 -0.2675 -1.4133
12947TIP3    H260257   1.522   1.754   2.366  0.9171 -1.0561 -0.5415
12948TIP3   OH260258   1.417   6.517   0.518 -0.6168  0.8522  0.7029
12948TIP3    H160259   1.416   6.473   0.433 -3.2089 -0.0536  1.1251
12948TIP3    H260260   1.449   6.449   0.578 -3.2830 -0.1111  1.1322
12949TIP3   OH260261   5.530   2.589  14.490  0.2464 -0.1274  0.0660
12949TIP3    H160262   5.447   2.638  14.482 -0.3069 -1.2391 -1.4959
12949TIP3    H260263   5.507   2.499  14.468  1.7850 -0.5620  0.1277
12950TIP3   OH260264   1.414   3.406   0.888  0.1241 -0.0331 -0.0594
12950TIP3    H160265   1.463   3.461   0.827  2.1422 -2.5547 -0.8789
12950TIP3    H260266   1.328   3.395   0.847  0.9833 -0.5742 -1.7849
12951TIP3   OH260267   5.277   5.707  16.969 -0.7317  0.5272  0.5075
12951TIP3    H160268   5.342   5.650  17.009 -0.3424  0.7922  0.2670
12951TIP3    H260269   5.290   5.696  16.875 -1.4964  0.0673  0.4466
12952TIP3   OH260270   5.027   4.536  13.574 -0.2329 -0.1169  0.5572
12952TIP3    H160271   5.069   4.451  13.558  0.3659  0.0253  1.3039
12952TIP3    H260272   4.989   4.560  13.490  1.5513 -0.0686 -0.2853
12953TIP3   OH260273   5.260   0.783   4.244  0.1040  0.3517  0.1678
12953TIP3    H160274   5.177   0.740   4.265 -0.1137  1.0652  0.8124
12953TIP3    H260275   5.325   0.713   4.247 -0.1910  0.1063  1.5048
12954TIP3   OH260276   2.884   3.464   5.949 -0.4577 -0.3142 -0.2047
12954TIP3    H160277   2.893   3.460   5.854  2.3430 -0.5118 -0.0110
12954TIP3    H260278   2.950   3.528   5.977 -1.0508 -0.4294  1.6466
12955TIP3   OH260279   0.387   4.232  15.736  0.6167 -0.5222 -0.4555
12955TIP3    H160280   0.371   4.175  15.811  0.3595  1.1513  0.8174
12955TIP3    H260281   0.415   4.173  15.667  3.3924 -1.9034  1.6660
12956TIP3   OH260282   2.466   6.754   3.841  0.4954 -0.1107 -0.1765
12956TIP3    H160283   2.409   6.828   3.863 -0.2622 -0.6628 -0.2982
12956TIP3    H260284   2.474   6.757   3.746 -0.0556 -0.5770 -0.2352
12957TIP3   OH260285   2.449   6.089   2.245 -0.0560  0.5308  0.3229
12957TIP3    H160286   2.488   6.095   2.332 -1.2057  1.0722  0.8187
12957TIP3    H260287   2.364   6.132   2.254  0.2772  1.6236 -1.3441
12958TIP3   OH260288   1.719   1.845  16.296  0.0004 -0.4472  0.3590
12958TIP3    H160289   1.714   1.754  16.268 -0.3939 -0.1872 -0.4336
12958TIP3    H260290   1.662   1.893  16.236  0.8057  0.4477  0.2733
12959TIP3   OH260291   5.213   3.939  10.916 -0.2266  0.1904 -0.1978
12959TIP3    H160292   5.141   3.884  10.886  0.9512 -1.9194  0.6364
12959TIP3    H260293   5.263   3.883  10.975  1.9491  1.6643 -0.5247
12960TIP3   OH260294   6.260   5.878  12.973 -0.5302  0.0146 -0.0794
12960TIP3    H160295   6.290   5.788  12.961 -0.1763 -0.0182  0.9561
12960TIP3    H260296   6.215   5.877  13.057 -0.8713  0.7301 -0.2450
12961TIP3   OH260297   1.597   6.719  14.473  0.0510  0.3389 -0.2491
12961TIP3    H160298   1.605   6.765  14.556  1.2099 -0.3160  0.0256
12961TIP3    H260299   1.566   6.785  14.411  0.1095  1.0656  0.4879
12962TIP3   OH260300   4.817   3.950   3.258 -0.5566  0.4382 -0.3384
12962TIP3    H160301   4.791   3.910   3.341  0.0668  1.2215  0.2509
12962TIP3    H260302   4.886   4.011   3.282 -0.0718  0.3612 -1.5025
12963TIP3   OH260303   3.498   6.056  15.218 -0.3722 -0.6735  0.1675
12963TIP3    H160304   3.473   6.131  15.271 -0.6080  0.1943 -1.1083
12963TIP3    H260305   3.433   5.988  15.239 -1.3441  0.1583 -0.0785
12964TIP3   OH260306   4.490   0.979   2.143 -0.0305 -0.1927  0.1876
12964TIP3    H160307   4.426   1.019   2.084  0.5569 -1.9504 -1.7826
12964TIP3    H260308   4.529   1.053   2.190  1.2205  1.7131 -3.4235
12965TIP3   OH260309   3.659   5.285   4.124 -0.3861 -0.3661 -0.0248
12965TIP3    H160310   3.569   5.317   4.109  0.0570  1.0004  0.1099
12965TIP3    H260311   3.712   5.335   4.063  0.3927 -0.6503  0.4137
12966TIP3   OH260312   1.650   5.868   0.158  0.7571 -1.0351  0.1319
12966TIP3    H160313   1.708   5.937   0.190 -1.1489  0.4270  0.7038
12966TIP3    H260314   1.619   5.901   0.073  1.3428 -2.1524 -0.5308
12967TIP3   OH260315   3.630   1.739   1.818 -0.2237 -0.6787  0.0433
12967TIP3    H160316   3.720   1.705   1.814  0.4812  0.4839  3.0464
12967TIP3    H260317   3.631   1.815   1.759  0.8277 -0.5542  0.2026
12968TIP3   OH260318   4.330   3.615  13.164 -0.2409 -0.1847 -0.5876
12968TIP3    H160319   4.309   3.577  13.250 -0.5702  2.3248  0.5254
12968TIP3    H260320   4.423   3.639  13.172 -0.1416 -0.3831 -1.1308
12969TIP3   OH260321   3.821   3.411  13.097  0.1244 -0.4590  0.5062
12969TIP3    H160322   3.885   3.481  13.087  0.4254 -0.7435  0.4040
12969TIP3    H260323   3.842   3.370  13.181 -0.1229 -0.3540  0.6190
12970TIP3   OH260324   0.628   2.335   0.889  0.4818  0.2656  0.6926
12970TIP3    H160325   0.622   2.282   0.968  1.4950 -0.0798  0.5566
12970TIP3    H260326   0.682   2.410   0.914  1.2761 -0.1275  0.2024
12971TIP3   OH260327   5.572   3.506   2.510  0.0903  0.2814  0.0130
12971TIP3    H160328   5.665   3.483   2.520  0.4787  2.2750  1.7728
12971TIP3    H260329   5.551   3.480   2.420  2.4708  0.1437 -0.5936
12972TIP3   OH260330   3.550   5.646  14.513  0.2487  0.2417  0.6319
12972TIP3    H160331   3.499   5.683  14.585 -0.5954 -1.7562  1.1315
12972TIP3    H260332   3.569   5.720  14.456 -2.2642  1.2752  1.0122
12973TIP3   OH260333   4.730   1.128   0.642  0.1846  0.3588  0.4317
12973TIP3    H160334   4.820   1.097   0.636  0.0121  0.0981 -1.4163
12973TIP3    H260335   4.685   1.061   0.694  0.8066 -0.1365  0.3469
12974TIP3   OH260336   0.777   6.356  16.581  0.0530 -0.1843  0.0398
12974TIP3    H160337   0.728   6.404  16.514  0.7659 -0.7251 -0.8816
12974TIP3    H260338   0.725   6.277  16.596 -0.4982  0.2849  0.6939
12975TIP3   OH260339   1.798   0.166  11.267  0.1608  0.0821  0.7000
12975TIP3    H160340   1.741   0.193  11.339  1.3245  0.6241  1.4442
12975TIP3    H260341   1.763   0.210  11.190 -1.3165 -0.7846  0.8357
12976TIP3   OH260342   4.447   3.818  15.026  0.2364  0.0262 -0.5761
12976TIP3    H160343   4.410   3.816  14.937 -3.5575  0.9007  0.7776
12976TIP3    H260344   4.508   3.891  15.025 -0.8509  0.9849 -2.1371
12977TIP3   OH260345   1.598   2.445   5.780 -0.1764  0.2069  0.3642
12977TIP3    H160346   1.525   2.494   5.817  0.3043 -0.0872  1.7641
12977TIP3    H260347   1.635   2.397   5.854  0.6659 -0.6264 -0.5621
12978TIP3   OH260348   2.667   4.705   6.008 -0.2124 -0.5780  0.0815
12978TIP3    H160349   2.620   4.632   6.049 -1.3851 -0.0281 -0.2228
12978TIP3    H260350   2.613   4.782   6.028 -1.4802 -0.3869 -3.2866
12979TIP3   OH260351   1.613   0.073   2.864  0.0638 -0.6890 -0.1351
12979TIP3    H160352   1.612   0.010   2.936 -2.4550 -0.9381 -0.2981
12979TIP3    H260353   1.702   0.109   2.865  0.7884 -2.3398  1.6121
12980TIP3   OH260354   0.586   4.301   3.930 -0.5634 -0.1151 -0.1370
12980TIP3    H160355   0.527   4.361   3.884  0.1330  0.7221  0.0479
12980TIP3    H260356   0.654   4.280   3.865  0.9404  1.7941  0.7282
12981TIP3   OH260357   6.076   0.765  15.592  0.0479 -0.4337  0.3604
12981TIP3    H160358   6.073   0.834  15.525 -0.2593 -0.8360 -0.0442
12981TIP3    H260359   5.992   0.772  15.638 -0.7855 -1.7283 -0.8992
12982TIP3   OH260360   0.349   0.037   0.643  0.5965 -0.8432 -0.7376
12982TIP3    H160361   0.325   0.044   0.736  1.6415 -0.3389 -0.4913
12982TIP3    H260362   0.322  -0.052   0.619  0.5460 -1.0803  0.1308
12983TIP3   OH260363   5.717   4.755  14.389 -0.2417 -0.0451  0.3237
12983TIP3    H160364   5.790   4.784  14.334 -0.2990 -0.3641  0.0734
12983TIP3    H260365   5.755   4.688  14.446 -0.2222  0.1562  0.5436
12984TIP3   OH260366   0.060   1.141  17.140  0.5260  0.4425  0.4077
12984TIP3    H160367   0.036   1.089  17.217 -0.8127 -1.0001 -0.9195
12984TIP3    H260368   0.154   1.124  17.129  0.1865 -1.5533  0.1744
12985TIP3   OH260369   3.309   4.444  17.228  0.5954 -0.1757  0.9696
12985TIP3    H160370   3.373   4.430  17.159 -0.4959  0.8697 -0.2966
12985TIP3    H260371   3.265   4.525  17.205  0.3133  0.3108  3.0072
12986TIP3   OH260372   2.862   0.330   3.220 -0.1269  0.1689 -0.0598
12986TIP3    H160373   2.777   0.309   3.180  1.0827 -1.4268 -1.9840
12986TIP3    H260374   2.914   0.365   3.148  1.9483 -2.2069  0.1524
12987TIP3   OH260375   5.992   0.140  13.804  0.1688 -0.3299  0.2834
12987TIP3    H160376   5.912   0.097  13.774  0.9721 -1.6004 -0.1047
12987TIP3    H260377   5.978   0.233  13.785 -0.6490 -0.7074 -1.0538
12988TIP3   OH260378   4.208   0.660  13.845 -0.0346  0.0591  0.0839
12988TIP3    H160379   4.157   0.696  13.772  0.5544  1.2557  0.2388
12988TIP3    H260380   4.198   0.724  13.915  0.3854 -0.4844  0.6489
12989TIP3   OH260381   5.857   5.164  15.313 -0.4366  0.5900  0.4037
12989TIP3    H160382   5.891   5.139  15.399 -0.0083  0.0976  0.0918
12989TIP3    H260383   5.934   5.183  15.261 -0.6245 -0.4112 -0.2706
12990TIP3   OH260384   1.984   1.918   2.625  0.1488  0.5993  0.3610
12990TIP3    H160385   2.019   2.007   2.618  1.4997  0.2089  1.6170
12990TIP3    H260386   2.019   1.885   2.707  0.6378 -1.4999 -0.6235
12991TIP3   OH260387   0.894   6.012   0.053  0.0242 -0.1088  0.0416
12991TIP3    H160388   0.986   5.986   0.051  0.1688  0.1630  1.7921
12991TIP3    H260389   0.892   6.096   0.008  0.8300  0.3825  0.8829
12992TIP3   OH260390   4.486   4.851  14.380  0.1066 -0.9801  0.1888
12992TIP3    H160391   4.434   4.908  14.436 -0.7054  0.1351 -1.6092
12992TIP3    H260392   4.432   4.772  14.369 -1.3117  0.1775 -1.6799
12993TIP3   OH260393   5.449   5.001  13.950 -0.0018  0.2906  0.3872
12993TIP3    H160394   5.460   4.977  13.858 -2.3361  2.9446 -0.7383
12993TIP3    H260395   5.524   5.059  13.968  0.1051  0.3028 -0.0654
12994TIP3   OH260396   1.374   5.111  10.989  0.0343  0.7650  0.0969
12994TIP3    H160397   1.459   5.154  10.982  0.3584 -0.0782 -1.5517
12994TIP3    H260398   1.311   5.176  10.958  0.3099  0.7044 -0.5961
12995TIP3   OH260399   6.312   3.111  14.073  0.4275  0.5607 -0.2108
12995TIP3    H160400   6.319   3.027  14.028  0.5309 -0.7460  2.1132
12995TIP3    H260401   6.385   3.162  14.038  0.6984 -0.4786 -1.2582
12996TIP3   OH260402   5.959   0.948   2.052  0.1499 -0.4321 -0.6976
12996TIP3    H160403   6.021   0.876   2.043 -0.1186 -0.5922 -1.3549
12996TIP3    H260404   5.997   1.019   2.000 -0.7111 -0.8783 -1.9975
12997TIP3   OH260405   6.170   2.485   5.207 -0.4800 -0.0543 -0.2669
12997TIP3    H160406   6.153   2.441   5.290 -2.5708  1.4391  0.1914
12997TIP3    H260407   6.236   2.431   5.164 -1.2058 -2.2862  1.2386
12998TIP3   OH260408   2.834   3.297   2.644  0.2421  0.2163  0.1793
12998TIP3    H160409   2.766   3.270   2.705  2.1256 -1.4174  1.6876
12998TIP3    H260410   2.906   3.326   2.700  0.9899  1.4538 -1.3433
12999TIP3   OH260411   3.215   1.767  15.661  0.0273  0.4821 -0.1329
12999TIP3    H160412   3.120   1.776  15.661 -0.2674 -1.8362 -1.6225
12999TIP3    H260413   3.240   1.772  15.753 -1.4516  1.5785  0.2481
13000TIP3   OH260414   6.488   4.762   3.810  0.6248  0.4292 -0.2043
13000TIP3    H160415   6.404   4.740   3.769  0.1963  0.4246  0.6456
13000TIP3    H260416   6.477   4.852   3.840 -0.0897 -0.3889  2.2716
13001TIP3   OH260417   3.599   2.925  16.276  0.8507 -0.3497 -0.1914
13001TIP3    H160418   3.650   2.886  16.347 -0.7129  0.2056  1.3277
13001TIP3    H260419   3.514   2.882  16.281 -0.6307  2.4094  0.9536
13002TIP3   OH260420   5.511   0.136   0.876 -0.3298 -0.0602 -0.5106
13002TIP3    H160421   5.550   0.073   0.815 -2.1995 -2.4567  0.5994
13002TIP3    H260422   5.495   0.086   0.956 -1.1729  2.0675  0.7547
13003TIP3   OH260423   4.031   3.851   6.488  0.3415  0.3499 -0.2997
13003TIP3    H160424   4.032   3.755   6.483  2.1371  0.3495 -0.8674
13003TIP3    H260425   4.123   3.876   6.478 -0.1708  2.1739 -0.8458
13004TIP3   OH260426   0.549   2.634   2.476  0.2638 -0.0358 -0.1803
13004TIP3    H160427   0.459   2.605   2.457  0.5531 -2.0431  1.2395
13004TIP3    H260428   0.577   2.678   2.395 -1.4676 -0.6857 -1.2022
13005TIP3   OH260429   1.375   4.114  13.453 -0.3187  0.2792  0.4698
13005TIP3    H160430   1.465   4.125  13.424  0.0729 -1.3999  0.9364
13005TIP3    H260431   1.347   4.031  13.414 -1.2811  0.2150  1.2417
13006TIP3   OH260432   2.360   1.073  15.382 -0.3086 -0.0967 -0.8430
13006TIP3    H160433   2.425   1.021  15.336  2.0506  2.4477 -0.6614
13006TIP3    H260434   2.327   1.134  15.316 -0.7461  0.1911 -0.3653
13007TIP3   OH260435   0.613   6.712  14.901  0.1600 -0.3066 -0.4151
13007TIP3    H160436   0.521   6.706  14.929  0.7803  0.5714  2.1042
13007TIP3    H260437   0.618   6.795  14.853 -0.3552 -0.3368 -0.5266
13008TIP3   OH260438   4.195   0.707  15.586 -0.2531  0.1481  0.2875
13008TIP3    H160439   4.260   0.642  15.558 -0.6350 -0.0982 -0.0444
13008TIP3    H260440   4.191   0.697  15.682 -2.7742 -2.7844  0.0460
13009TIP3   OH260441   4.792   1.998  17.149  0.0547  0.1260 -0.1289
13009TIP3    H160442   4.854   2.022  17.080  0.7759  0.5711  0.6456
13009TIP3    H260443   4.741   2.077  17.165  1.0191  0.5618  0.9748
13010TIP3   OH260444   2.776   0.670  14.841  0.4028 -0.1177  0.1968
13010TIP3    H160445   2.827   0.724  14.902  0.4450  1.1707 -0.9274
13010TIP3    H260446   2.718   0.732  14.797  0.5659 -0.9584 -1.2785
13011TIP3   OH260447   1.250   1.579  16.279 -0.0660 -0.1953 -0.0804
13011TIP3    H160448   1.304   1.576  16.358  1.4527 -1.4626 -1.1003
13011TIP3    H260449   1.287   1.650  16.227  1.8892 -2.1472 -1.5510
13012TIP3   OH260450   4.533   5.563  11.373 -0.0290  0.4237 -0.0416
13012TIP3    H160451   4.570   5.623  11.308  0.5089  1.3411  1.0589
13012TIP3    H260452   4.549   5.607  11.457 -3.2411  0.6692  0.5529
13013TIP3   OH260453   0.798   0.596  16.747  0.1820  0.4997 -0.2199
13013TIP3    H160454   0.885   0.595  16.786  0.3730  0.1950 -0.6543
13013TIP3    H260455   0.793   0.681  16.702  1.0355 -0.3070 -1.9286
13014TIP3   OH260456   4.465   5.809   0.918 -0.0295  0.3108 -0.0716
13014TIP3    H160457   4.517   5.868   0.972 -2.5844 -0.7520  3.9561
13014TIP3    H260458   4.482   5.722   0.953  0.2735 -0.8933 -2.9261
13015TIP3   OH260459   2.002   2.346  11.610  1.0846  0.5729  0.2735
13015TIP3    H160460   2.083   2.386  11.578  0.9710 -0.3336 -1.2663
13015TIP3    H260461   1.945   2.419  11.632  2.2570  1.2275  1.2586
13016TIP3   OH260462   1.384   0.167   0.770  0.1105  0.1051 -0.2901
13016TIP3    H160463   1.470   0.129   0.785 -0.3337 -1.0582 -0.5699
13016TIP3    H260464   1.337   0.100   0.720 -1.1797  0.4392  0.4450
13017TIP3   OH260465   5.870   4.572   6.131 -0.0953  0.8496 -0.1403
13017TIP3    H160466   5.868   4.618   6.214  1.3682  0.3668  0.1851
13017TIP3    H260467   5.870   4.480   6.154  2.6626  0.6748 -0.5243
13018TIP3   OH260468   2.067   3.619   2.138 -0.3741  0.0184  0.2812
13018TIP3    H160469   2.112   3.629   2.054 -1.1131  1.8758  0.0715
13018TIP3    H260470   2.079   3.526   2.160  1.6658 -0.0382 -0.8066
13019TIP3   OH260471   1.381   6.407   3.560  0.1046  0.4637  0.7212
13019TIP3    H160472   1.362   6.378   3.649  0.8979  0.2696  0.8395
13019TIP3    H260473   1.382   6.327   3.508 -0.0418  0.5416  0.5969
13020TIP3   OH260474   1.170   0.877   1.073  0.0974 -0.1220  0.1317
13020TIP3    H160475   1.180   0.807   1.137  2.1587  0.2551  0.2878
13020TIP3    H260476   1.147   0.954   1.125 -1.0726 -0.4078  0.0738
13021TIP3   OH260477   1.322   0.109   0.159 -1.0921  0.3181  0.0763
13021TIP3    H160478   1.406   0.113   0.205 -0.8361 -2.6133  0.0447
13021TIP3    H260479   1.275   0.038   0.202 -2.2900 -0.1571 -1.9066
13022TIP3   OH260480   0.527   3.569  15.848 -0.7885 -0.2775  0.4208
13022TIP3    H160481   0.619   3.567  15.821 -1.2254 -0.3403 -1.1936
13022TIP3    H260482   0.518   3.651  15.896 -0.2313  0.5682 -0.8561
13023TIP3   OH260483   3.308   5.701  11.800  0.5449 -0.2374  0.1531
13023TIP3    H160484   3.315   5.722  11.893 -1.5711  0.7990  0.1351
13023TIP3    H260485   3.356   5.619  11.790  0.3653 -0.6534  2.2556
13024TIP3   OH260486   4.763   5.045   5.390  0.5601 -0.3971 -0.1991
13024TIP3    H160487   4.737   5.110   5.325 -2.6715 -1.3754 -0.0773
13024TIP3    H260488   4.766   5.093   5.473 -0.3037 -0.0931 -0.3352
13025TIP3   OH260489   6.268   6.078   4.574 -0.0942  0.6159  0.4646
13025TIP3    H160490   6.293   6.024   4.650  0.9153  0.6897  0.2077
13025TIP3    H260491   6.352   6.111   4.540 -0.6218  1.5400  0.0189
13026TIP3   OH260492   0.452   4.034   0.042  0.0552  0.1845 -0.5992
13026TIP3    H160493   0.454   4.127   0.064  0.5380  0.2630 -0.9587
13026TIP3    H260494   0.543   4.005   0.054 -0.5688 -0.9056  2.2672
13027TIP3   OH260495   4.061   6.432  16.045 -0.0699 -0.0830 -0.0346
13027TIP3    H160496   3.967   6.425  16.066  0.2713 -0.2217  1.5619
13027TIP3    H260497   4.100   6.353  16.082  1.0193  1.1157  1.4971
13028TIP3   OH260498   1.144   2.372   0.967  0.6844 -0.0058  0.3569
13028TIP3    H160499   1.127   2.423   1.046  0.4180 -0.6571  0.7284
13028TIP3    H260500   1.060   2.333   0.945  1.1081 -1.1711  0.7142
13029TIP3   OH260501   5.194   4.175   1.097 -0.2853  0.1535  0.4369
13029TIP3    H160502   5.289   4.180   1.084 -0.4222 -0.5029 -1.0826
13029TIP3    H260503   5.161   4.258   1.063 -0.3469 -0.1086 -0.1531
13030TIP3   OH260504   0.864   6.557  16.275  0.3897 -0.5175  0.2877
13030TIP3    H160505   0.891   6.624  16.338 -0.2224  0.4215 -0.4278
13030TIP3    H260506   0.772   6.542  16.292 -0.1367  0.7251 -1.2137
13031TIP3   OH260507   3.732   0.878  14.536 -0.1422 -0.3841 -0.0834
13031TIP3    H160508   3.654   0.869  14.481  0.3213 -0.5396 -0.7307
13031TIP3    H260509   3.705   0.936  14.607 -2.1271 -3.6589  2.0853
13032TIP3   OH260510   4.177   2.647  17.226  0.2417  0.3796 -0.3441
13032TIP3    H160511   4.176   2.738  17.198 -3.0984  0.8521  0.9632
13032TIP3    H260512   4.198   2.651  17.319 -1.0404 -0.0758 -0.0289
13033TIP3   OH260513   1.544   6.058  14.066  0.0310 -0.2867 -0.0168
13033TIP3    H160514   1.598   6.121  14.019 -0.8046 -0.4299 -1.2175
13033TIP3    H260515   1.536   5.984  14.006  0.2241 -1.1609  0.9949
13034TIP3   OH260516   3.825   2.132  13.978 -0.7489 -0.3439 -0.2359
13034TIP3    H160517   3.860   2.123  13.890  0.5065 -0.1886  0.2225
13034TIP3    H260518   3.838   2.224  14.000 -2.4997 -0.0192 -0.4570
13035TIP3   OH260519   6.647   1.630   3.843 -0.0292  0.0791  0.2913
13035TIP3    H160520   6.595   1.689   3.897  2.0119  1.9377  0.3431
13035TIP3    H260521   6.607   1.636   3.756  0.3772  1.9258  0.1859
13036TIP3   OH260522   2.416   6.088  13.077 -0.4724 -0.3010 -0.1581
13036TIP3    H160523   2.457   6.153  13.134 -1.3027 -0.6291  0.8480
13036TIP3    H260524   2.488   6.053  13.024  0.5741 -0.8541  1.5537
13037TIP3   OH260525   1.142   5.979   1.184 -0.1725  0.0599  0.0611
13037TIP3    H160526   1.212   5.925   1.149 -0.7828 -0.4179 -0.4525
13037TIP3    H260527   1.134   6.051   1.121 -0.0383  0.1980  0.2023
13038TIP3   OH260528   0.117   6.594  13.172  0.1252  0.3120 -0.0607
13038TIP3    H160529   0.132   6.631  13.259  3.9923 -0.2765 -0.2900
13038TIP3    H260530   0.142   6.502  13.180 -2.1240 -0.4770 -1.2311
13039TIP3   OH260531   3.398   3.477   3.407 -0.2903  0.1344  0.4589
13039TIP3    H160532   3.385   3.526   3.488 -1.5766 -0.9960  0.9831
13039TIP3    H260533   3.312   3.439   3.387  0.1710 -0.2275 -1.0360
13040TIP3   OH260534   1.944   5.897   2.206 -0.0192  0.4158  0.2953
13040TIP3    H160535   1.885   5.962   2.243 -0.1122  0.3008  0.3515
13040TIP3    H260536   1.960   5.926   2.116 -0.3023  0.3539  0.2249
13041TIP3   OH260537   6.330   0.374  13.063 -0.4423 -0.1945 -0.3215
13041TIP3    H160538   6.398   0.309  13.042 -1.1685 -0.1010 -3.4110
13041TIP3    H260539   6.273   0.329  13.125 -0.8683 -2.5822 -2.2928
13042TIP3   OH260540   4.688   1.629   5.527  0.1742  0.9209 -0.3124
13042TIP3    H160541   4.621   1.688   5.491  0.9144  1.9685 -0.0438
13042TIP3    H260542   4.771   1.668   5.500  0.7317  1.0110  1.3838
13043TIP3   OH260543   4.024   0.216  12.843  0.4356  0.5012 -0.1621
13043TIP3    H160544   4.054   0.236  12.755  0.8681 -0.8144 -0.3341
13043TIP3    H260545   4.004   0.123  12.842  0.5461  0.4343  1.1612
13044TIP3   OH260546   2.683   0.514   3.729  0.3557  0.2743  0.0243
13044TIP3    H160547   2.617   0.507   3.660  0.8524  2.0836 -0.6962
13044TIP3    H260548   2.637   0.555   3.802  0.4835  0.8820 -0.2271
13045TIP3   OH260549   1.050   5.568   5.150 -0.7000  0.3656 -0.4112
13045TIP3    H160550   0.956   5.562   5.134 -0.3410 -1.9730 -2.1217
13045TIP3    H260551   1.060   5.555   5.244 -1.9825 -1.5302 -0.4898
13046TIP3   OH260552   1.593   0.425  13.459 -0.7668 -0.0308 -0.0743
13046TIP3    H160553   1.667   0.461  13.410  0.8428 -1.2843  1.3181
13046TIP3    H260554   1.632   0.391  13.539 -2.0740 -4.4728 -1.0441
13047TIP3   OH260555   6.303   2.833   4.697 -0.1893 -0.2924  0.2947
13047TIP3    H160556   6.259   2.892   4.636  0.9250 -0.8472 -1.0681
13047TIP3    H260557   6.395   2.858   4.693  0.3845 -2.3918 -0.6635
13048TIP3   OH260558   5.237   5.391   4.616 -0.1954  0.0996 -0.4215
13048TIP3    H160559   5.321   5.404   4.659  1.0736 -2.2563 -1.9618
13048TIP3    H260560   5.209   5.304   4.642 -2.5256  1.0365  0.5228
13049TIP3   OH260561   3.724   1.757  12.046  0.0957  0.3875  0.0442
13049TIP3    H160562   3.768   1.707  12.114 -0.5213  0.2697  0.3688
13049TIP3    H260563   3.645   1.706  12.025 -0.4588  1.1249  0.2678
13050TIP3   OH260564   5.723   1.163  15.441  0.1033  0.0116 -0.2537
13050TIP3    H160565   5.655   1.171  15.507  0.5446 -2.0246  0.5259
13050TIP3    H260566   5.681   1.189  15.359 -1.4705 -0.6897  0.2912
13051TIP3   OH260567   3.729   2.986  15.708 -0.0318  0.2314 -0.1909
13051TIP3    H160568   3.707   2.900  15.741 -0.9437  0.0068 -1.3114
13051TIP3    H260569   3.683   3.047  15.766 -0.2097 -0.0765 -0.0056
13052TIP3   OH260570   6.342   4.794  10.673 -0.2849 -0.1947 -0.2484
13052TIP3    H160571   6.423   4.746  10.658  0.8568  1.4505  0.4178
13052TIP3    H260572   6.347   4.868  10.613 -1.3952 -0.1594 -0.3229
13053TIP3   OH260573   3.185   3.991  13.194 -0.6269  0.2649 -0.1803
13053TIP3    H160574   3.128   4.014  13.267  0.3763 -1.1143  1.1115
13053TIP3    H260575   3.220   3.905  13.217  2.0795  1.0969 -0.8320
13054TIP3   OH260576   4.608   1.317  10.961 -0.5674 -0.8469 -0.2923
13054TIP3    H160577   4.615   1.315  11.057 -2.6255 -0.3106 -0.0933
13054TIP3    H260578   4.572   1.232  10.937 -0.3068 -0.8798 -0.5825
13055TIP3   OH260579   5.816   6.588   5.302  0.3682  0.2238 -0.0201
13055TIP3    H160580   5.770   6.530   5.362 -0.2043 -0.3800 -1.0139
13055TIP3    H260581   5.856   6.530   5.238  0.7769  0.8610 -0.3554
13056TIP3   OH260582   0.461   5.519  15.227 -0.9209 -0.0101  0.4771
13056TIP3    H160583   0.500   5.437  15.257 -0.6091 -0.5620 -1.2858
13056TIP3    H260584   0.372   5.517  15.262 -0.7186 -0.7878  0.9949
13057TIP3   OH260585   4.748   4.686  12.012  0.2133  0.1421  0.4407
13057TIP3    H160586   4.659   4.702  11.980 -0.3341 -1.1895  1.1685
13057TIP3    H260587   4.741   4.695  12.108  0.2896 -2.1616  0.7210
13058TIP3   OH260588   1.264   4.353   3.589 -0.0566 -0.1641  0.0400
13058TIP3    H160589   1.230   4.342   3.500  0.2889  0.1972 -0.1381
13058TIP3    H260590   1.356   4.326   3.583 -0.1579 -0.6040  0.3979
13059TIP3   OH260591   2.709   1.725   4.594 -0.4115  0.2738 -0.5510
13059TIP3    H160592   2.767   1.666   4.545 -0.8240  1.3319 -2.3846
13059TIP3    H260593   2.621   1.692   4.576 -0.4891 -0.9374  1.7040
13060TIP3   OH260594   1.341   4.877   0.150  0.3526 -0.1864  0.5213
13060TIP3    H160595   1.280   4.822   0.101 -0.5115  0.6521  0.6333
13060TIP3    H260596   1.291   4.909   0.224  0.2114  2.2653 -0.5289
13061TIP3   OH260597   2.178   1.304  11.048  0.5653 -0.5444  0.0587
13061TIP3    H160598   2.182   1.301  10.953  1.2000 -0.2056  0.0663
13061TIP3    H260599   2.242   1.240  11.078  0.6853 -0.3364  0.2562
13062TIP3   OH260600   0.065   2.908  12.658  0.1165  0.7696  0.2937
13062TIP3    H160601  -0.008   2.960  12.626  0.3525  0.2538 -1.1360
13062TIP3    H260602   0.127   2.973  12.692 -0.9043  1.2185  1.4164
13063TIP3   OH260603   2.358   4.085  15.628 -0.4375  0.2736  0.1898
13063TIP3    H160604   2.352   4.104  15.722  0.7993 -0.9318  0.5503
13063TIP3    H260605   2.354   3.990  15.623 -0.4846  0.3329 -0.9831
13064TIP3   OH260606   0.980   6.153   3.684  0.1561 -0.7273  0.1279
13064TIP3    H160607   0.976   6.154   3.588  1.5898 -1.1001  0.0398
13064TIP3    H260608   0.938   6.071   3.709 -2.1983  0.3469 -0.0128
13065TIP3   OH260609   6.368   3.923  10.758  0.2061 -0.0483  0.5048
13065TIP3    H160610   6.354   3.835  10.794 -2.1237 -0.1311 -0.3728
13065TIP3    H260611   6.301   3.977  10.801  1.4841  1.2851  0.8928
13066TIP3   OH260612   2.960   5.959   3.890 -0.0682 -0.6018  0.1372
13066TIP3    H160613   3.015   6.001   3.955  0.3117  0.1021 -0.6200
13066TIP3    H260614   2.895   5.910   3.941  0.7190 -0.7375  1.0311
13067TIP3   OH260615   3.219   2.776   4.208 -0.7086  0.0309 -0.3634
13067TIP3    H160616   3.152   2.812   4.267  0.5492 -0.8506  1.7200
13067TIP3    H260617   3.177   2.699   4.169 -1.6100  0.7067 -0.7811
13068TIP3   OH260618   3.145   6.729  12.610 -0.4738 -0.0363 -0.3352
13068TIP3    H160619   3.192   6.797  12.658 -0.7397  0.6263 -0.9953
13068TIP3    H260620   3.203   6.653  12.612 -0.5062 -0.0596  1.0952
13069TIP3   OH260621   3.632   5.510   3.880  0.3816  0.0199 -0.3906
13069TIP3    H160622   3.628   5.558   3.797  2.4443  0.1025 -0.5143
13069TIP3    H260623   3.648   5.578   3.946  0.9121 -0.2430 -0.2409
13070TIP3   OH260624   5.637   3.154  11.418 -0.1421  0.3285 -0.3070
13070TIP3    H160625   5.554   3.126  11.458  0.9625 -0.2041  1.7559
13070TIP3    H260626   5.625   3.247  11.401 -0.8062  0.5116  1.0080
13071TIP3   OH260627   0.278   1.663   0.057 -0.1479 -0.3567  0.5480
13071TIP3    H160628   0.237   1.741   0.019  0.5082 -0.3066 -0.0972
13071TIP3    H260629   0.216   1.631   0.122 -1.8825 -1.1474 -1.3965
13072TIP3   OH260630   4.503   4.730  11.861 -0.7163  0.5704  0.5661
13072TIP3    H160631   4.550   4.699  11.784  0.5210  1.4756  0.9262
13072TIP3    H260632   4.411   4.729  11.836 -0.3081  1.1631 -1.0326
13073TIP3   OH260633   6.064   6.644  13.109 -0.2619 -0.3723 -0.0802
13073TIP3    H160634   6.022   6.572  13.062 -0.3596  0.0776 -0.6912
13073TIP3    H260635   6.145   6.606  13.143  0.3924 -0.4161 -1.6129
13074TIP3   OH260636   2.810   3.498   3.416  0.3284 -0.1095  0.1968
13074TIP3    H160637   2.768   3.571   3.460 -1.8659 -0.8009 -0.6019
13074TIP3    H260638   2.895   3.532   3.387  0.6486  1.1642  2.4202
13075TIP3   OH260639   2.095   4.143   0.188 -0.2187 -0.5994 -0.2581
13075TIP3    H160640   2.173   4.173   0.236 -0.3145  0.0389 -0.4933
13075TIP3    H260641   2.123   4.062   0.145  0.1047 -0.7511  0.2278
13076TIP3   OH260642   1.770   6.298   5.966  0.0411 -0.1792 -0.2652
13076TIP3    H160643   1.836   6.265   6.026 -0.0708 -0.6840 -0.4160
13076TIP3    H260644   1.795   6.389   5.950  0.3171 -0.1730  0.2020
13077TIP3   OH260645   2.534   2.579  17.179 -0.3708  0.3331  0.4201
13077TIP3    H160646   2.504   2.538  17.260  0.8258 -0.5352  0.4558
13077TIP3    H260647   2.524   2.510  17.112 -0.9760  0.9105 -0.0970
13078TIP3   OH260648   0.288   2.486   6.632  0.1547 -0.6100  0.4716
13078TIP3    H160649   0.224   2.493   6.562  0.8000  2.3159  0.0731
13078TIP3    H260650   0.301   2.391   6.643 -1.2033 -1.1864 -2.1696
13079TIP3   OH260651   6.688   6.598  11.041  0.5903 -0.0787  0.9483
13079TIP3    H160652   6.693   6.524  10.980 -0.9462  0.4540  0.1099
13079TIP3    H260653   6.724   6.672  10.992  0.5939  0.0739  1.1796
13080TIP3   OH260654   5.409   5.132   4.371 -0.2046  0.6004  0.3353
13080TIP3    H160655   5.378   5.102   4.285 -0.2780  0.6276  0.3519
13080TIP3    H260656   5.329   5.146   4.421 -0.1857  1.3274  0.1624
13081TIP3   OH260657   4.339   1.565   0.612 -0.5479  0.4057  0.2350
13081TIP3    H160658   4.368   1.526   0.695 -1.0388  0.0102  0.2306
13081TIP3    H260659   4.282   1.498   0.573 -1.2686  1.0499  0.1417
13082TIP3   OH260660   5.223   2.591  16.746 -0.3029  0.1315  0.0101
13082TIP3    H160661   5.271   2.645  16.809 -1.5892  0.2260  0.9348
13082TIP3    H260662   5.252   2.502  16.764 -0.3703  0.2022  0.4694
13083TIP3   OH260663   5.499   5.270  14.719  0.3663 -0.4862  0.7623
13083TIP3    H160664   5.537   5.252  14.806 -1.4492 -2.6907  1.2032
13083TIP3    H260665   5.461   5.186  14.692 -0.6893  0.6053 -1.3756
13084TIP3   OH260666   1.639   4.069   3.810 -0.0998 -0.0159 -0.2763
13084TIP3    H160667   1.727   4.096   3.782  0.2844  0.0610  0.9562
13084TIP3    H260668   1.655   4.012   3.885 -1.1631  1.2544  0.9645
13085TIP3   OH260669   4.535   1.444  11.911 -0.1947  0.0574 -0.2211
13085TIP3    H160670   4.606   1.478  11.857 -0.9090  1.1658 -0.5047
13085TIP3    H260671   4.578   1.409  11.989  0.7906 -0.9834 -1.2155
13086TIP3   OH260672   0.090   3.036   5.538  0.4752 -0.1741 -0.0329
13086TIP3    H160673   0.174   3.051   5.581  0.8645  1.0057 -1.1319
13086TIP3    H260674   0.100   3.075   5.451 -1.2491  0.1173 -0.1449
13087TIP3   OH260675   5.920   4.527   0.350  0.1916  0.0158  0.0549
13087TIP3    H160676   5.852   4.580   0.309  0.3372 -0.3634 -0.6930
13087TIP3    H260677   5.909   4.440   0.312 -0.7629 -0.8125  2.0988
13088TIP3   OH260678   6.331   2.438  15.379  0.2796  0.3794  0.0526
13088TIP3    H160679   6.404   2.377  15.368 -0.5126 -0.8905  1.5054
13088TIP3    H260680   6.356   2.515  15.326  2.7446  0.0853  0.6646
13089TIP3   OH260681   1.351   1.304  11.060  0.0695 -0.1417  0.2519
13089TIP3    H160682   1.282   1.258  11.012  0.7405 -1.7326  0.7145
13089TIP3    H260683   1.418   1.322  10.993 -0.3331  0.4656  0.0064
13090TIP3   OH260684   2.755   4.481  12.046 -0.5442 -0.2745  0.1315
13090TIP3    H160685   2.752   4.404  12.103 -2.4432  1.0781  2.0268
13090TIP3    H260686   2.756   4.445  11.957  1.3603 -2.4562  0.9367
13091TIP3   OH260687   3.911   5.377  13.223  0.2645 -0.3533  0.1400
13091TIP3    H160688   3.824   5.412  13.205  0.3649  0.1710  0.6562
13091TIP3    H260689   3.898   5.320  13.299  0.6054  0.7951  1.0856
13092TIP3   OH260690   1.907   5.187  15.945  0.4479  0.9989  0.3348
13092TIP3    H160691   1.914   5.274  15.905  0.4891  1.3612  1.1050
13092TIP3    H260692   1.818   5.158  15.925  0.9410  0.5126 -1.2965
13093TIP3   OH260693   4.342   1.745  14.422  0.3330  0.2016  0.0326
13093TIP3    H160694   4.412   1.750  14.357  1.0592  0.0051  0.7860
13093TIP3    H260695   4.383   1.709  14.500 -1.1801 -2.4866 -0.2900
13094TIP3   OH260696   5.702   0.641   5.774 -0.2693  0.3086  0.7294
13094TIP3    H160697   5.615   0.605   5.789 -0.4028  0.5896  0.6172
13094TIP3    H260698   5.761   0.571   5.804 -0.4444 -1.4543 -2.6330
13095TIP3   OH260699   2.658   1.512  10.914 -0.4607  0.0824  0.2872
13095TIP3    H160700   2.714   1.448  10.870 -0.2827 -0.2512  0.9860
13095TIP3    H260701   2.582   1.521  10.856  1.1553  2.0168 -1.7014
13096TIP3   OH260702   2.745   4.262  15.010  0.1713 -0.4135  0.1313
13096TIP3    H160703   2.720   4.293  14.923  1.8481 -0.8976 -0.5796
13096TIP3    H260704   2.807   4.327  15.042  0.1533 -0.6347  0.6272
13097TIP3   OH260705   1.330   1.570   4.465  0.6766 -0.6933 -0.4972
13097TIP3    H160706   1.380   1.632   4.412 -0.5126 -0.8706 -1.8726
13097TIP3    H260707   1.313   1.617   4.547  3.6308 -0.8691  0.3260
13098TIP3   OH260708   5.528   4.600  15.227 -0.6063 -0.4664  0.0092
13098TIP3    H160709   5.465   4.597  15.156  0.6176 -0.1654 -1.1387
13098TIP3    H260710   5.613   4.610  15.183  0.1992 -0.4558  1.5047
13099TIP3   OH260711   2.885   2.129  12.825 -0.6432  0.3002 -0.1579
13099TIP3    H160712   2.938   2.171  12.756  1.3084 -0.6793  0.6599
13099TIP3    H260713   2.800   2.115  12.784 -0.0378  1.1894 -1.8429
13100TIP3   OH260714   5.186   6.737  11.684 -0.4784  0.2491  0.0844
13100TIP3    H160715   5.223   6.817  11.722 -3.3804  1.3206  0.9975
13100TIP3    H260716   5.157   6.686  11.760 -0.5035 -0.7074 -0.5491
13101TIP3   OH260717   5.465   1.689   2.600  0.4736  0.1794  0.0498
13101TIP3    H160718   5.440   1.596   2.607 -3.4600  1.1295  1.5858
13101TIP3    H260719   5.492   1.713   2.688  0.2936  0.7593 -0.0527
13102TIP3   OH260720   2.022   0.797   4.964  0.3240  0.3699  0.7371
13102TIP3    H160721   1.994   0.836   5.046  2.1004  0.9439  1.1155
13102TIP3    H260722   2.052   0.709   4.989 -2.1312 -0.7136  0.1467
13103TIP3   OH260723   4.804   1.189   3.687 -0.3590 -0.2649 -0.6058
13103TIP3    H160724   4.790   1.094   3.677 -3.2342 -0.0258  0.1377
13103TIP3    H260725   4.785   1.206   3.779  0.8880  0.9563 -0.5487
13104TIP3   OH260726   3.391   1.907   0.606 -0.6944 -0.3639  0.5861
13104TIP3    H160727   3.343   1.918   0.688 -2.4083  2.6942 -0.6786
13104TIP3    H260728   3.352   1.971   0.546  2.6500 -0.1705 -1.6542
13105TIP3   OH260729   1.447   6.301   5.929  0.5439  0.2497 -0.5343
13105TIP3    H160730   1.470   6.253   5.849  1.1142  0.4097 -0.4685
13105TIP3    H260731   1.524   6.294   5.984 -0.2528 -0.8548  0.4971
13106TIP3   OH260732   0.046   3.181  15.687 -0.2865  0.2625  0.0789
13106TIP3    H160733   0.023   3.271  15.710 -0.2055  0.0037  1.2265
13106TIP3    H260734   0.141   3.181  15.680 -0.2569  0.1850  0.4623
13107TIP3   OH260735   3.704   3.084  12.432  0.0317 -0.0958  0.8416
13107TIP3    H160736   3.683   3.157  12.490  0.4229 -0.3713  1.3401
13107TIP3    H260737   3.659   3.009  12.472 -0.3078 -0.1480  0.3727
13108TIP3   OH260738   0.521   3.962  14.415  0.5477 -0.5658  0.3884
13108TIP3    H160739   0.439   4.000  14.384 -0.5554 -1.1175  2.4126
13108TIP3    H260740   0.504   3.868  14.420  2.5508 -1.1954 -2.5614
13109TIP3   OH260741   0.805   3.279  12.527 -0.5636 -0.1180 -0.1269
13109TIP3    H160742   0.761   3.360  12.553 -2.7425 -2.3368  4.2638
13109TIP3    H260743   0.883   3.275  12.582 -0.9187 -1.2745  0.3436
13110TIP3   OH260744   2.683   6.359  14.895 -0.0094 -0.1835 -0.1767
13110TIP3    H160745   2.609   6.398  14.847  0.3654 -0.3802 -0.9266
13110TIP3    H260746   2.748   6.341  14.827  0.8787  0.3258  0.5273
13111TIP3   OH260747   5.674   5.650   2.278 -0.3400  0.2392  0.0185
13111TIP3    H160748   5.768   5.632   2.277 -0.0948  1.3177 -1.7765
13111TIP3    H260749   5.634   5.564   2.268  0.5051 -0.1287 -0.3818
13112TIP3   OH260750   1.636   1.480   3.220  1.2351  0.3195 -0.5727
13112TIP3    H160751   1.730   1.479   3.199  1.1357 -2.5364 -1.3242
13112TIP3    H260752   1.632   1.455   3.312  1.2296  0.4076 -0.5496
13113TIP3   OH260753   5.997   0.509  11.832 -0.6044 -0.2833  0.5772
13113TIP3    H160754   5.992   0.428  11.781 -0.2367  0.1508 -0.1577
13113TIP3    H260755   6.018   0.480  11.921  0.1238 -0.9585  0.1939
13114TIP3   OH260756   3.626   3.160   4.083 -0.2333  0.5394  0.1384
13114TIP3    H160757   3.685   3.194   4.015  0.2934 -1.3282 -0.3878
13114TIP3    H260758   3.593   3.077   4.048  0.7669 -0.9735  2.4880
13115TIP3   OH260759   3.602   4.550  16.727  0.2029  0.3901 -0.4886
13115TIP3    H160760   3.680   4.540  16.782 -0.1688  1.1193  0.2067
13115TIP3    H260761   3.545   4.478  16.754 -0.3417  1.2459  0.7534
13116TIP3   OH260762   3.898   6.305  11.885 -0.3789 -0.4355  0.5043
13116TIP3    H160763   3.822   6.254  11.912 -1.4547  0.5028 -0.6286
13116TIP3    H260764   3.971   6.242  11.887 -1.6303 -2.0311 -0.8086
13117TIP3   OH260765   5.309   0.513  12.461  0.3659  0.4518 -0.2538
13117TIP3    H160766   5.369   0.482  12.529 -0.5664 -2.2775 -0.5598
13117TIP3    H260767   5.247   0.569  12.508  0.2086 -0.7566  1.0489
13118TIP3   OH260768   2.122   5.950  12.827  0.0712 -0.3338 -0.2218
13118TIP3    H160769   2.038   5.925  12.787  0.0562  0.1928 -0.5325
13118TIP3    H260770   2.100   5.968  12.919  0.2544 -2.3569  0.2664
13119TIP3   OH260771   4.690   5.165   1.406 -0.2981 -0.4494  0.5564
13119TIP3    H160772   4.663   5.101   1.341 -2.0965 -1.0283  1.8113
13119TIP3    H260773   4.669   5.250   1.367 -1.7916 -0.8058  0.5527
13120TIP3   OH260774   3.650   0.632  16.332 -0.5493  0.6321  0.1110
13120TIP3    H160775   3.614   0.575  16.264  1.4919  0.2898 -0.7609
13120TIP3    H260776   3.579   0.693  16.352 -2.0142 -0.7825 -0.5578
13121TIP3   OH260777   0.392   2.421  14.010 -0.0857  0.2490 -0.0131
13121TIP3    H160778   0.480   2.392  13.986 -0.4696  0.8644 -2.4240
13121TIP3    H260779   0.339   2.341  14.010  0.3151 -0.0382  0.8908
13122TIP3   OH260780   1.937   6.458   1.892  0.2418  0.9416 -0.1542
13122TIP3    H160781   2.025   6.477   1.860 -0.0639  1.4858 -0.6793
13122TIP3    H260782   1.902   6.542   1.920 -0.0506  0.7012  0.2151
13123TIP3   OH260783   2.627   5.182   3.352 -0.6153 -0.6519  0.0122
13123TIP3    H160784   2.720   5.168   3.369 -0.3836  1.2490  0.5494
13123TIP3    H260785   2.614   5.153   3.262  0.9098  0.6759 -0.6867
13124TIP3   OH260786   5.440   6.419   0.211  0.3080 -0.0438 -0.6250
13124TIP3    H160787   5.441   6.409   0.116  1.5901 -0.3038 -0.6026
13124TIP3    H260788   5.439   6.329   0.245 -1.9267  0.0265 -0.3549
13125TIP3   OH260789   4.107   4.728  12.060  0.2102  0.0688 -0.0855
13125TIP3    H160790   4.045   4.767  11.998  1.9814  2.5012 -0.4902
13125TIP3    H260791   4.060   4.728  12.143 -1.2491 -0.6822 -0.8728
13126TIP3   OH260792   4.607   0.623   3.474 -0.0099 -0.1320 -0.2801
13126TIP3    H160793   4.515   0.605   3.453  0.4230 -1.3559 -1.2772
13126TIP3    H260794   4.604   0.698   3.534 -1.6335  0.0374 -0.5253
13127TIP3   OH260795   3.526   5.907   2.190 -0.1767 -0.2641 -0.7246
13127TIP3    H160796   3.571   5.832   2.151 -1.0179 -1.6502  0.8331
13127TIP3    H260797   3.559   5.911   2.279 -1.0196  0.4864 -0.4321
13128TIP3   OH260798   3.741   1.989   6.333  0.3335  0.4222 -0.1276
13128TIP3    H160799   3.717   1.896   6.335 -0.9116  0.7174 -0.3250
13128TIP3    H260800   3.813   1.997   6.395  0.1384 -0.5888  0.2447
13129TIP3   OH260801   2.777   6.540   2.822  0.0162 -0.0933 -0.1484
13129TIP3    H160802   2.808   6.629   2.808 -1.4650  0.5993  0.7534
13129TIP3    H260803   2.846   6.499   2.876 -0.6438  1.4970  2.0635
13130TIP3   OH260804   3.588   2.201  12.500  0.4328  0.4528  0.2488
13130TIP3    H160805   3.519   2.207  12.434  0.5743 -1.3303 -0.1046
13130TIP3    H260806   3.549   2.149  12.570  1.5816 -1.0914 -0.2146
13131TIP3   OH260807   4.732   4.040   1.457 -0.4778  0.8447 -0.0092
13131TIP3    H160808   4.821   4.051   1.489 -0.7482  2.5135  0.2674
13131TIP3    H260809   4.735   3.961   1.404  1.1771  0.8983 -0.0433
13132TIP3   OH260810   3.544   3.636   4.090  0.2109  0.3401 -0.8332
13132TIP3    H160811   3.508   3.549   4.071  1.2449  0.3537 -3.1544
13132TIP3    H260812   3.484   3.697   4.047 -1.0078  0.9287  1.5158
13133TIP3   OH260813   5.195   2.383  12.861 -0.1409  0.0490  0.2217
13133TIP3    H160814   5.124   2.446  12.874  0.1707  0.6668 -0.9370
13133TIP3    H260815   5.161   2.301  12.897 -1.4571  0.3314 -0.3123
13134TIP3   OH260816   2.035   5.807  15.448 -0.5858  0.1197 -0.0038
13134TIP3    H160817   2.105   5.872  15.449 -0.1979 -0.1771 -2.6032
13134TIP3    H260818   2.052   5.754  15.370 -3.4015 -0.3236 -0.4123
13135TIP3   OH260819   6.499   3.016   5.627 -0.2179  0.4721  0.3943
13135TIP3    H160820   6.412   2.997   5.593  0.6927 -2.4801 -0.6426
13135TIP3    H260821   6.554   2.947   5.591  2.8219  2.8236  0.1383
13136TIP3   OH260822   3.095   0.964  11.291  0.2738  0.7174 -0.1677
13136TIP3    H160823   3.145   0.886  11.315 -3.5494 -1.4699  1.6216
13136TIP3    H260824   3.056   0.942  11.206 -0.5235  0.8051  0.1683
13137TIP3   OH260825   2.365   3.798  15.572  0.1640 -0.1851 -0.7827
13137TIP3    H160826   2.277   3.795  15.535 -0.5621  2.5095  0.4168
13137TIP3    H260827   2.361   3.741  15.648 -0.4144 -0.4565 -1.0080
13138TIP3   OH260828   2.676   4.176   3.586  0.6364  0.2472  0.2761
13138TIP3    H160829   2.619   4.227   3.645  1.3009  2.2663 -0.7374
13138TIP3    H260830   2.742   4.138   3.643 -1.4253 -1.8689  1.4435
13139TIP3   OH260831   2.976   3.812  12.478  0.6023  0.3668 -0.6795
13139TIP3    H160832   2.889   3.845  12.497  1.1520  1.6963 -0.3952
13139TIP3    H260833   2.964   3.756  12.401 -0.5317  0.3077 -0.4778
13140TIP3   OH260834   2.196   4.680   3.183 -0.0230 -0.0157 -0.4411
13140TIP3    H160835   2.266   4.668   3.118  0.3159  0.3143 -0.1398
13140TIP3    H260836   2.150   4.759   3.154 -0.7616 -0.6612 -1.0749
13141TIP3   OH260837   5.523   4.069   2.115  0.5699  0.4501 -0.0879
13141TIP3    H160838   5.601   4.118   2.089 -0.0303  1.7154  0.3938
13141TIP3    H260839   5.540   4.043   2.206  0.7676  0.0268 -0.2476
13142TIP3   OH260840   4.289   6.704  15.229 -0.2434  0.0828 -0.1923
13142TIP3    H160841   4.284   6.797  15.207  2.0546  0.5483  0.9348
13142TIP3    H260842   4.289   6.702  15.325 -0.0543 -1.0404 -0.2032
13143TIP3   OH260843   6.659   3.892  13.895  0.0676  0.2596 -0.7758
13143TIP3    H160844   6.652   3.914  13.988 -0.6673 -2.6999 -0.0108
13143TIP3    H260845   6.702   3.968  13.856 -0.3364  1.9682  1.8049
13144TIP3   OH260846   2.557   0.392   0.891 -0.3098 -0.5463 -0.0385
13144TIP3    H160847   2.546   0.374   0.984 -0.6993  0.0674  0.0364
13144TIP3    H260848   2.468   0.399   0.856 -0.1828 -1.6098 -0.6327
13145TIP3   OH260849   2.149   2.831   1.657 -0.0755 -0.1112  0.0504
13145TIP3    H160850   2.102   2.906   1.619 -2.1162 -1.1088  0.4627
13145TIP3    H260851   2.240   2.860   1.661 -0.4711  1.6202 -1.6004
13146TIP3   OH260852   5.525   4.281  12.472 -0.1670  0.2265  0.5657
13146TIP3    H160853   5.496   4.366  12.438 -0.2298  0.0720  0.2207
13146TIP3    H260854   5.616   4.274  12.444 -0.9477 -1.0780 -2.0145
13147TIP3   OH260855   4.829   0.866  13.477 -0.7515  0.1654  0.0722
13147TIP3    H160856   4.921   0.892  13.485 -1.1058  1.0780  2.1703
13147TIP3    H260857   4.794   0.878  13.566 -2.6731 -1.0590 -0.4622
13148TIP3   OH260858   2.459   4.925  14.115  0.5100  0.0958  0.4182
13148TIP3    H160859   2.415   5.010  14.118 -0.8033 -0.5687  0.3368
13148TIP3    H260860   2.522   4.934  14.043 -1.0386  0.3429 -0.9735
13149TIP3   OH260861   5.149   1.074  16.142  0.1262 -0.3780 -0.2600
13149TIP3    H160862   5.153   0.999  16.083 -0.1595  0.4088 -1.3156
13149TIP3    H260863   5.240   1.088  16.169  0.3059 -0.5548 -0.7737
13150TIP3   OH260864   3.924   1.363  16.093  0.5233  0.3211  0.3081
13150TIP3    H160865   3.989   1.419  16.134 -1.4980  0.9790  2.8809
13150TIP3    H260866   3.918   1.287  16.151 -0.2116 -0.2748 -0.5155
13151TIP3   OH260867   0.237   2.669  16.765 -0.1311 -0.1076 -1.3392
13151TIP3    H160868   0.217   2.591  16.714 -0.4391 -0.5934 -0.4867
13151TIP3    H260869   0.248   2.638  16.854  0.8220  0.6774 -1.1685
13152TIP3   OH260870   6.399   4.895  12.064  0.6564 -0.5454 -0.1860
13152TIP3    H160871   6.369   4.873  12.152  1.8592  0.1400  0.4373
13152TIP3    H260872   6.476   4.840  12.051 -0.2898 -1.6380 -1.3900
13153TIP3   OH260873   1.051   0.949   4.201 -0.1529  0.2885 -0.0408
13153TIP3    H160874   1.116   0.948   4.131 -0.7402  1.2321 -0.6249
13153TIP3    H260875   1.008   0.864   4.195  0.0700  0.2094 -0.5720
13154TIP3   OH260876   2.262   2.968  16.956 -0.5708 -0.3941 -0.4631
13154TIP3    H160877   2.180   3.018  16.957 -0.0669  0.4513  0.3920
13154TIP3    H260878   2.330   3.035  16.964  0.0965 -1.2539  1.6317
13155TIP3   OH260879   1.635   0.437   2.770 -0.9447 -0.4561  0.1789
13155TIP3    H160880   1.608   0.403   2.855  0.6798 -2.0802  0.1265
13155TIP3    H260881   1.693   0.510   2.790 -1.9106  0.2696  0.3918
13156TIP3   OH260882   1.462   6.409   5.172 -0.4264  0.3796  0.0960
13156TIP3    H160883   1.426   6.443   5.253 -0.7046  0.0883  0.0973
13156TIP3    H260884   1.532   6.349   5.201 -0.5602  0.2354  0.1247
13157TIP3   OH260885   5.598   1.733   3.423  0.0479  0.1031  0.3521
13157TIP3    H160886   5.622   1.755   3.333 -0.3402 -0.6688  0.0451
13157TIP3    H260887   5.506   1.707   3.417 -0.0674  0.3398  1.0279
13158TIP3   OH260888   3.831   3.955   1.944  0.1150  0.1641  0.0292
13158TIP3    H160889   3.762   4.002   1.990 -0.8558  0.5201 -1.7030
13158TIP3    H260890   3.788   3.878   1.907  0.7151  0.1690 -0.7205
13159TIP3   OH260891   6.497   3.869  11.958  0.0384  0.0238 -0.1928
13159TIP3    H160892   6.587   3.875  11.991 -0.9845  0.1500  2.7950
13159TIP3    H260893   6.493   3.933  11.887  2.1310  0.3934 -0.0400
13160TIP3   OH260894   1.810   3.414  14.717 -0.7223 -0.3570 -0.0876
13160TIP3    H160895   1.890   3.414  14.663 -0.5903 -0.9096  0.1081
13160TIP3    H260896   1.794   3.507  14.735 -0.0052 -0.2526  0.0416
13161TIP3   OH260897   4.040   5.118  16.164 -0.0540  0.1822 -0.1298
13161TIP3    H160898   4.120   5.095  16.212 -0.0275  0.2914 -0.1215
13161TIP3    H260899   3.995   5.034  16.152  0.6871 -0.0843 -1.2548
13162TIP3   OH260900   2.475   0.037  12.571 -0.0600  0.3605 -0.3587
13162TIP3    H160901   2.389   0.077  12.581 -0.2645 -0.2638  0.4332
13162TIP3    H260902   2.478   0.011  12.479 -1.7933 -1.9695  0.1369
13163TIP3   OH260903   5.116   2.005   0.061  0.1834  0.7144  0.5280
13163TIP3    H160904   5.026   2.024   0.033 -0.4243 -0.4511  1.5772
13163TIP3    H260905   5.148   1.943  -0.004 -0.2626  0.0983  0.8837
13164TIP3   OH260906   3.176   2.056  15.909 -0.5652  0.0979 -0.4105
13164TIP3    H160907   3.177   2.107  15.828 -0.3016 -0.3094 -0.6649
13164TIP3    H260908   3.259   2.008  15.908  1.0706  2.5802  1.7061
13165TIP3   OH260909   3.146   2.044   5.511 -0.3327  0.5054 -0.1026
13165TIP3    H160910   3.052   2.030   5.506 -0.3254  0.5266 -0.3241
13165TIP3    H260911   3.159   2.098   5.589 -0.5017  0.4871 -0.0623
13166TIP3   OH260912   4.146   5.167   0.423  0.3525 -0.1712 -0.2453
13166TIP3    H160913   4.055   5.197   0.427 -0.0626 -1.4808  1.3587
13166TIP3    H260914   4.144   5.094   0.361 -0.3197 -1.9423  1.7246
13167TIP3   OH260915   1.519   4.776  15.786 -0.2159 -0.8504 -0.2971
13167TIP3    H160916   1.437   4.783  15.737  0.2018  1.8227 -0.7736
13167TIP3    H260917   1.494   4.737  15.869 -2.5461  2.0831  0.5556
13168TIP3   OH260918   4.168   3.484   6.009 -0.3620  0.5966 -0.4247
13168TIP3    H160919   4.123   3.562   6.041 -2.7606  0.8846 -3.9270
13168TIP3    H260920   4.212   3.513   5.928  0.8904 -1.1331 -0.4265
13169TIP3   OH260921   0.155   2.420   4.406  0.9413 -0.3212  0.2746
13169TIP3    H160922   0.247   2.426   4.379  0.7626 -2.9615 -1.2479
13169TIP3    H260923   0.153   2.345   4.466 -0.4268 -1.3084 -0.9454
13170TIP3   OH260924   0.147   5.304  15.920 -0.3282  0.5655 -0.0261
13170TIP3    H160925   0.145   5.259  15.836  0.2566 -1.8430  1.1568
13170TIP3    H260926   0.056   5.332  15.934 -0.8196 -0.6576 -0.6257
13171TIP3   OH260927   0.822   6.747  17.156 -0.1727  0.1599  0.2544
13171TIP3    H160928   0.782   6.807  17.093  3.6201  2.0816 -0.6060
13171TIP3    H260929   0.826   6.663  17.109 -4.4122 -0.7409  1.0308
13172TIP3   OH260930   5.719   3.074   5.439 -0.1493 -0.0267 -1.1169
13172TIP3    H160931   5.624   3.070   5.432 -0.1923  0.3502 -0.8413
13172TIP3    H260932   5.736   3.157   5.485  0.2836 -0.3219 -0.7242
13173TIP3   OH260933   4.836   3.870  11.113  0.2640  0.6509  0.1620
13173TIP3    H160934   4.920   3.830  11.137 -0.8690 -1.0570  1.5092
13173TIP3    H260935   4.836   3.871  11.017  0.7477 -1.7578  0.0869
13174TIP3   OH260936   2.720   0.612  11.823  0.5204 -0.0718 -0.2185
13174TIP3    H160937   2.775   0.658  11.886  0.1144 -0.3694  0.3710
13174TIP3    H260938   2.713   0.672  11.749 -2.0989  2.0575  1.5270
13175TIP3   OH260939   0.008   1.604   0.630  0.4032 -0.5933 -0.2476
13175TIP3    H160940   0.083   1.655   0.600  1.0635 -0.3899  1.6104
13175TIP3    H260941   0.046   1.531   0.679 -0.5466  0.2961  1.9763
13176TIP3   OH260942   1.848   3.312  13.589  0.2219  0.1052  0.2245
13176TIP3    H160943   1.896   3.306  13.506  1.5843 -0.2047  1.0135
13176TIP3    H260944   1.904   3.267  13.652  0.0055  1.7703  1.6779
13177TIP3   OH260945   3.539   6.150  13.441 -0.1424  0.2097  0.1812
13177TIP3    H160946   3.482   6.074  13.444 -1.2403  1.0084  0.3088
13177TIP3    H260947   3.625   6.117  13.466 -1.1719 -0.4781  3.3153
13178TIP3   OH260948   3.633   4.015   3.280 -0.4301  0.2272  0.4552
13178TIP3    H160949   3.672   3.953   3.342 -0.4149 -1.2000 -0.9253
13178TIP3    H260950   3.549   4.038   3.320  0.0245  0.1720  1.4993
13179TIP3   OH260951   1.491   2.233   4.337  0.3841 -0.3307  0.3285
13179TIP3    H160952   1.451   2.148   4.356 -0.2422 -1.2599 -4.0892
13179TIP3    H260953   1.585   2.216   4.340  0.2817 -0.8785  0.6379
13180TIP3   OH260954   4.801   2.376  12.026 -0.3418  0.6169 -0.2954
13180TIP3    H160955   4.827   2.325  12.103 -1.3865 -0.6086 -0.7255
13180TIP3    H260956   4.882   2.419  11.998  0.4184 -0.2326  0.5096
13181TIP3   OH260957   1.232   6.000  15.735 -0.4837  0.0176 -0.1778
13181TIP3    H160958   1.140   5.979  15.745 -0.3440  0.4722  2.9979
13181TIP3    H260959   1.276   5.915  15.731 -0.9654 -0.1950 -1.3868
13182TIP3   OH260960   1.712   2.706   2.348 -0.1247  0.2823 -0.2026
13182TIP3    H160961   1.722   2.684   2.441  0.4521 -0.0038 -0.3232
13182TIP3    H260962   1.791   2.756   2.327 -1.0153  1.7670 -0.1518
13183TIP3   OH260963   6.479   3.839  14.584  0.1932  0.1178  0.1110
13183TIP3    H160964   6.450   3.768  14.641  1.5076 -0.0895  0.5412
13183TIP3    H260965   6.398   3.887  14.564 -0.3655  0.0212  1.8961
13184TIP3   OH260966   0.421   4.488   2.018 -0.2060 -0.2699 -0.5723
13184TIP3    H160967   0.377   4.478   1.934  0.7247 -0.4807 -1.0397
13184TIP3    H260968   0.366   4.440   2.080 -1.6199  0.9924 -0.7926
13185TIP3   OH260969   5.340   6.630  12.827 -0.1263 -0.3219 -0.2199
13185TIP3    H160970   5.372   6.544  12.801 -0.9292 -0.3015 -1.3774
13185TIP3    H260971   5.250   6.615  12.855 -0.1967  0.1021 -0.2065
13186TIP3   OH260972   6.004   6.520   2.455 -0.6007  0.0054 -0.1246
13186TIP3    H160973   6.087   6.543   2.495 -2.5100  2.6172  2.7634
13186TIP3    H260974   6.028   6.470   2.377  3.5818  0.1164  0.8751
13187TIP3   OH260975   4.370   3.137  12.207  0.1549  0.0265 -0.0557
13187TIP3    H160976   4.385   3.227  12.180 -3.0949  0.4157 -0.9853
13187TIP3    H260977   4.342   3.092  12.127 -2.1475 -0.7480  1.1004
13188TIP3   OH260978   0.727   2.841   2.822 -0.0831 -0.6044  0.0916
13188TIP3    H160979   0.777   2.895   2.883  2.9972 -1.3603 -1.5893
13188TIP3    H260980   0.740   2.751   2.853 -0.2597 -0.8357 -0.4905
13189TIP3   OH260981   5.319   3.555   0.712 -0.4147  0.3416 -0.0376
13189TIP3    H160982   5.295   3.593   0.796 -1.6672 -1.5244  0.5082
13189TIP3    H260983   5.397   3.604   0.685  1.6166 -0.6251  3.4237
13190TIP3   OH260984   5.745   2.353  12.999  0.0946  0.3998  0.3027
13190TIP3    H160985   5.695   2.299  13.060 -0.7898 -0.9401 -1.5318
13190TIP3    H260986   5.681   2.412  12.959  0.0299 -0.8480 -1.5478
13191TIP3   OH260987   6.618   1.336  13.404 -0.4960 -0.0036 -0.3008
13191TIP3    H160988   6.692   1.276  13.405 -2.3727 -2.4772  0.3131
13191TIP3    H260989   6.573   1.319  13.486 -1.8779  1.2510 -0.7658
13192TIP3   OH260990   6.318   5.331   0.895 -0.2382  1.1000  0.4687
13192TIP3    H160991   6.292   5.310   0.805 -0.4036  1.5913  0.4015
13192TIP3    H260992   6.278   5.262   0.948  1.6734 -0.5171 -0.0344
13193TIP3   OH260993   0.239   1.319   6.820  0.9735 -0.1451 -0.0425
13193TIP3    H160994   0.331   1.318   6.795  0.7858 -0.4112 -0.7547
13193TIP3    H260995   0.199   1.250   6.767  0.4017 -0.1749  0.4132
13194TIP3   OH260996   3.919   6.471   2.186  0.1246  0.7564 -0.0290
13194TIP3    H160997   3.870   6.554   2.188 -1.7034 -0.2859  0.7211
13194TIP3    H260998   4.007   6.495   2.213 -0.7438  2.2356  1.7129
13195TIP3   OH260999   2.452   3.620   6.396  0.5629 -0.6045  0.6239
13195TIP3    H161000   2.513   3.596   6.327 -1.2000  0.8356 -1.5856
13195TIP3    H261001   2.368   3.633   6.351 -0.1689  2.8233  2.5930
13196TIP3   OH261002   4.525   5.445   0.617  0.1168  0.4548 -0.2928
13196TIP3    H161003   4.504   5.354   0.596  0.9246 -0.1923  1.4842
13196TIP3    H261004   4.515   5.450   0.712 -2.2041  2.8711 -0.5464
13197TIP3   OH261005   2.137   6.400  12.055 -0.2322 -0.5984  0.2434
13197TIP3    H161006   2.117   6.486  12.020  1.7833 -0.1054  0.2006
13197TIP3    H261007   2.123   6.408  12.149  2.0274  0.4838  0.5476
13198TIP3   OH261008   0.337   4.452  12.384 -0.1676  0.3217  0.1189
13198TIP3    H161009   0.381   4.443  12.299  1.1300  0.2290  0.7689
13198TIP3    H261010   0.269   4.385  12.382  1.9679 -2.0397  0.3910
13199TIP3   OH261011   0.691   5.318  11.992  0.4065 -0.3773 -0.2080
13199TIP3    H161012   0.684   5.295  11.899  0.8190 -0.7410 -0.1521
13199TIP3    H261013   0.779   5.290  12.017  0.7274  0.7866  0.0001
13200TIP3   OH261014   1.803   2.768   5.066 -0.4653  0.2303  0.3711
13200TIP3    H161015   1.880   2.825   5.056 -0.8094  0.3956 -1.9748
13200TIP3    H261016   1.731   2.827   5.086 -0.7445  0.6580 -1.6672
13201TIP3   OH261017   2.043   3.356   6.140  0.1267 -0.0885 -0.2320
13201TIP3    H161018   2.055   3.451   6.144  1.9378 -0.1475 -2.3487
13201TIP3    H261019   1.948   3.345   6.138 -0.1717  1.5494  1.3124
13202TIP3   OH261020   6.610   3.902   6.422 -0.0576 -0.3979  0.0418
13202TIP3    H161021   6.640   3.811   6.423 -0.7517 -0.7041 -2.0866
13202TIP3    H261022   6.541   3.904   6.489  1.9895 -0.6010  2.3019
13203TIP3   OH261023   5.379   4.724  13.557 -0.2630  0.3627 -0.1831
13203TIP3    H161024   5.324   4.737  13.480 -1.8611 -1.0735  0.6569
13203TIP3    H261025   5.442   4.657  13.531 -1.9972 -1.5516  0.2403
13204TIP3   OH261026   5.979   3.442   5.873  0.1408 -0.2666  0.0523
13204TIP3    H161027   5.984   3.513   5.809  0.1154 -0.1266  0.2063
13204TIP3    H261028   5.885   3.430   5.888  0.1376 -0.4609 -0.1161
13205TIP3   OH261029   5.190   1.810  13.662  0.1074  0.5291  0.0455
13205TIP3    H161030   5.110   1.827  13.710  0.2229 -0.2686  0.5315
13205TIP3    H261031   5.178   1.856  13.579 -1.4415 -0.7258 -0.4683
13206TIP3   OH261032   6.013   5.101  16.557  0.0281 -0.0827 -0.4844
13206TIP3    H161033   6.098   5.135  16.530  0.4563 -1.5433 -1.0261
13206TIP3    H261034   6.001   5.136  16.646  0.3446  1.6053 -1.0591
13207TIP3   OH261035   0.736   1.151  11.725  0.3478  0.6384  0.1918
13207TIP3    H161036   0.690   1.222  11.771  2.9730  0.5301  3.3505
13207TIP3    H261037   0.825   1.155  11.758  1.5206 -1.9900 -2.2136
13208TIP3   OH261038   6.330   4.601  14.505 -0.2083 -0.5044  0.4519
13208TIP3    H161039   6.289   4.521  14.472 -0.1464 -0.4906  0.3422
13208TIP3    H261040   6.258   4.664  14.509 -0.0489 -0.2582 -0.4694
13209TIP3   OH261041   4.739   3.237   6.202  0.6122 -0.4974  0.4710
13209TIP3    H161042   4.702   3.161   6.248  0.4426 -0.9214 -0.3424
13209TIP3    H261043   4.810   3.201   6.149  0.9881  0.0288  0.6051
13210TIP3   OH261044   1.636   1.315  11.751  0.3259  0.1490  0.3851
13210TIP3    H161045   1.550   1.355  11.744  0.7167  1.1527  1.0639
13210TIP3    H261046   1.645   1.262  11.672 -0.9265 -0.0090  0.3403
13211TIP3   OH261047   0.162   0.828  13.205  0.4220 -0.4590  0.1091
13211TIP3    H161048   0.108   0.831  13.285  0.9039 -1.4586  0.4862
13211TIP3    H261049   0.182   0.735  13.193  0.7435 -0.2624 -0.9185
13212TIP3   OH261050   2.318   3.494  15.469 -0.2575 -0.2694  0.2542
13212TIP3    H161051   2.272   3.577  15.481 -0.1890 -0.3469  1.0527
13212TIP3    H261052   2.290   3.464  15.382  1.1074  1.4592 -0.8730
13213TIP3   OH261053   1.012   1.710  15.955  0.4612  0.2481 -0.5036
13213TIP3    H161054   0.936   1.697  16.012  1.0351  0.4616  0.3259
13213TIP3    H261055   0.974   1.723  15.868 -0.3454 -1.9745 -0.5362
13214TIP3   OH261056   6.383   4.272   5.705  0.6304 -0.3527 -0.0346
13214TIP3    H161057   6.351   4.320   5.781  0.0370  1.1232 -1.1625
13214TIP3    H261058   6.340   4.186   5.712 -0.2791  0.1390  0.7205
13215TIP3   OH261059   1.085   0.019  11.790  0.2408  0.6948 -0.0217
13215TIP3    H161060   1.148   0.056  11.852 -0.3041 -0.7466  1.4774
13215TIP3    H261061   1.002   0.019  11.838  0.0561 -1.6225 -0.2186
13216TIP3   OH261062   5.795   6.105   4.254 -0.7120 -0.4910  0.5584
13216TIP3    H161063   5.811   6.184   4.307 -1.9333 -0.6766  1.2354
13216TIP3    H261064   5.735   6.053   4.307 -0.0412 -1.8237  0.0501
13217TIP3   OH261065   6.121   6.196   2.533  0.3855  0.1656  0.3758
13217TIP3    H161066   6.191   6.249   2.571 -0.4437  0.9602  0.8105
13217TIP3    H261067   6.164   6.113   2.512  1.4597  0.6337  0.6410
13218TIP3   OH261068   4.883   5.198   0.734 -0.1253  0.1963  0.1503
13218TIP3    H161069   4.957   5.246   0.697  0.0082  0.1564  0.3685
13218TIP3    H261070   4.851   5.253   0.805 -0.0504  0.0221  0.3204
13219TIP3   OH261071   2.485   3.408  13.737  0.1715  0.1179  0.2265
13219TIP3    H161072   2.510   3.318  13.757  1.3219  0.0630 -1.3283
13219TIP3    H261073   2.567   3.458  13.743 -0.4205  1.0501  0.9154
13220TIP3   OH261074   3.586   3.394  15.747  0.1577  0.0592 -0.5206
13220TIP3    H161075   3.672   3.376  15.785  0.3752  1.9877 -0.0097
13220TIP3    H261076   3.593   3.362  15.657  0.5588 -2.0163  0.1832
13221TIP3   OH261077   1.359   5.123  13.768 -0.2436  0.4680 -0.2691
13221TIP3    H161078   1.294   5.192  13.781  0.3454  1.6059 -2.6803
13221TIP3    H261079   1.443   5.167  13.786  0.0550 -0.0664 -0.3408
13222TIP3   OH261080   5.133   5.198  11.549 -0.3327 -0.1331  0.5094
13222TIP3    H161081   5.132   5.124  11.610 -4.8833 -0.2115  0.7477
13222TIP3    H261082   5.172   5.164  11.469 -0.4962 -2.1745  1.2512
13223TIP3   OH261083   1.061   0.346  15.550 -0.8235 -0.1563 -0.4102
13223TIP3    H161084   1.009   0.318  15.626 -1.3513  1.2240 -0.2392
13223TIP3    H261085   1.145   0.372  15.587 -0.6942 -0.5336 -0.4389
13224TIP3   OH261086   4.717   3.465  14.204  0.3745  0.6520 -0.1968
13224TIP3    H161087   4.729   3.377  14.169 -1.2036  0.1602  0.3829
13224TIP3    H261088   4.804   3.494  14.230  0.9270 -0.7104 -0.4912
13225TIP3   OH261089   4.120   6.464   4.495  0.1696  0.0977 -0.3070
13225TIP3    H161090   4.025   6.453   4.495 -0.2934  2.1522 -4.6084
13225TIP3    H261091   4.135   6.535   4.558 -0.9007 -1.0865  1.3732
13226TIP3   OH261092   4.268   0.713   6.728  0.1920 -0.1269 -0.1245
13226TIP3    H161093   4.312   0.644   6.779  0.0252  0.4176  0.7673
13226TIP3    H261094   4.337   0.777   6.712 -0.2716  0.8061  1.4128
13227TIP3   OH261095   2.995   1.461   1.778  0.0602 -0.4272  0.3841
13227TIP3    H161096   3.033   1.544   1.806  1.4014 -0.6509 -0.6711
13227TIP3    H261097   3.014   1.400   1.849  1.2916 -0.4169  0.0849
13228TIP3   OH261098   3.366   5.645   2.042  0.0109  0.4769 -0.2638
13228TIP3    H161099   3.438   5.702   2.014  0.1958  1.0599  1.3159
13228TIP3    H261100   3.298   5.705   2.072 -1.2646 -0.0678 -1.9374
13229TIP3   OH261101   2.198   6.492   4.146 -0.5406  0.0713 -0.3340
13229TIP3    H161102   2.176   6.555   4.215 -0.0668  0.8751 -0.9057
13229TIP3    H261103   2.286   6.463   4.167 -1.5798 -2.2326  1.2659
13230TIP3   OH261104   4.050   5.968  13.688  0.1975 -0.0261 -0.1736
13230TIP3    H161105   3.993   6.012  13.625 -0.3127 -1.4578 -0.7706
13230TIP3    H261106   4.126   5.942  13.636  0.7579  0.6476  0.3005
13231TIP3   OH261107   2.333   6.770  14.818  0.1088  0.2950 -0.2658
13231TIP3    H161108   2.289   6.818  14.747 -0.2212 -0.6817 -0.7411
13231TIP3    H261109   2.261   6.734  14.870  0.3449 -0.1028 -0.2132
13232TIP3   OH261110   0.499   5.439  14.955 -0.4574 -0.4181 -0.2413
13232TIP3    H161111   0.504   5.445  15.050  0.0318 -1.9625 -0.1420
13232TIP3    H261112   0.420   5.388  14.938 -0.2294 -0.6438 -0.6356
13233TIP3   OH261113   1.980   4.641  12.727  0.5214 -0.2282  0.3568
13233TIP3    H161114   2.057   4.597  12.691  1.1308 -1.2114  2.6210
13233TIP3    H261115   2.016   4.700  12.793 -0.5063  1.5391 -0.6176
13234TIP3   OH261116   6.657   3.237  12.265 -0.6266 -0.5329 -0.1048
13234TIP3    H161117   6.729   3.228  12.203 -0.4902 -0.5447  0.0548
13234TIP3    H261118   6.585   3.274  12.213  0.6121  3.1341  0.5182
13235TIP3   OH261119   5.914   1.541  11.532 -0.8017 -0.4229  0.1985
13235TIP3    H161120   5.982   1.516  11.595 -0.9148  0.6990  0.7875
13235TIP3    H261121   5.880   1.458  11.499 -0.2575 -1.0179  1.0961
13236TIP3   OH261122   5.609   1.080   4.062 -0.3184 -0.0629  0.0969
13236TIP3    H161123   5.624   1.168   4.026  1.2557 -0.1466  0.4624
13236TIP3    H261124   5.589   1.026   3.986  3.3768 -0.3286 -0.9031
13237TIP3   OH261125   2.080   6.213   6.391  0.1413  0.1236 -0.1830
13237TIP3    H161126   2.154   6.243   6.444  0.0529  2.4833 -1.2678
13237TIP3    H261127   2.078   6.118   6.404  3.2167 -0.0098  0.0360
13238TIP3   OH261128   6.046   2.219  15.955 -0.4394  0.3836  0.3140
13238TIP3    H161129   6.085   2.265  16.029  0.9458  0.3377 -0.3580
13238TIP3    H261130   6.067   2.274  15.879  0.2623 -0.7780 -0.3538
13239TIP3   OH261131   0.017   1.086  14.572 -0.5031  0.2836 -0.4296
13239TIP3    H161132   0.059   1.040  14.644  0.1353  0.6742 -0.5400
13239TIP3    H261133  -0.033   1.156  14.614  0.1807  0.7541 -0.3739
13240TIP3   OH261134   3.216   3.998   0.949  0.1665  0.8013 -0.0310
13240TIP3    H161135   3.300   4.017   0.907  1.3071 -0.9744  1.2825
13240TIP3    H261136   3.217   4.050   1.029  1.5215 -1.5374  1.5804
13241TIP3   OH261137   0.478   3.071   4.284 -0.6281 -0.6331  0.1757
13241TIP3    H161138   0.391   3.033   4.291 -1.3110  0.7568 -0.4555
13241TIP3    H261139   0.474   3.152   4.334 -0.3394  0.4649 -1.4964
13242TIP3   OH261140   3.939   3.495   3.109 -0.0380 -0.0870 -0.0950
13242TIP3    H161141   4.004   3.527   3.046  1.2673 -1.0406  0.7030
13242TIP3    H261142   3.969   3.406   3.130 -1.0864 -0.2038  0.9984
13243TIP3   OH261143   5.617   0.906  15.626  0.0351 -0.1445  0.2938
13243TIP3    H161144   5.640   0.989  15.667 -0.4634 -0.3064  0.9212
13243TIP3    H261145   5.565   0.931  15.549  0.8184  0.1549 -0.1473
13244TIP3   OH261146   0.417   1.204  10.664 -0.4181 -0.0804  0.1068
13244TIP3    H161147   0.471   1.185  10.587 -0.1950  0.4092  0.1393
13244TIP3    H261148   0.475   1.252  10.723 -0.1284 -1.7497  1.2366
13245TIP3   OH261149   1.838   5.685   0.135  0.1619 -0.0735  0.0323
13245TIP3    H161150   1.757   5.732   0.155  0.0992 -0.7251  1.4443
13245TIP3    H261151   1.866   5.721   0.051 -1.2936  0.5571 -0.2208
13246TIP3   OH261152   5.060   3.398  14.600 -0.5739 -0.1021  0.2022
13246TIP3    H161153   4.991   3.332  14.606  0.7095 -1.5163 -0.0577
13246TIP3    H261154   5.063   3.422  14.508 -0.9524  0.2322  0.2744
13247TIP3   OH261155   3.127   1.042  14.435 -0.4055  0.0677 -0.0989
13247TIP3    H161156   3.041   1.010  14.407 -0.1729  1.1207 -2.1805
13247TIP3    H261157   3.187   0.970  14.418 -0.5756  0.0226 -0.5148
13248TIP3   OH261158   2.745   5.485  16.715  0.5152  0.1180 -0.8300
13248TIP3    H161159   2.738   5.434  16.634  1.0367  0.3936 -1.0561
13248TIP3    H261160   2.807   5.555  16.693  0.0368  0.6697 -0.4358
13249TIP3   OH261161   4.650   0.223   2.008 -0.8339 -0.0581 -0.8101
13249TIP3    H161162   4.639   0.312   2.042 -2.7227  0.4167 -2.4420
13249TIP3    H261163   4.571   0.177   2.038 -1.0920 -0.4481 -2.0330
13250TIP3   OH261164   6.198   2.333  13.147  0.2360 -0.3057  0.5317
13250TIP3    H161165   6.128   2.325  13.083 -0.2810 -1.2290  1.1802
13250TIP3    H261166   6.164   2.395  13.211 -0.0040 -0.7409  0.8378
13251TIP3   OH261167   6.630   0.806  11.733 -0.3515  0.0608  0.1727
13251TIP3    H161168   6.683   0.880  11.703 -1.4798  1.4032  1.3114
13251TIP3    H261169   6.550   0.811  11.681 -0.8096  0.2007  0.8843
13252TIP3   OH261170   3.075   5.288   3.280 -0.0029  0.2308  0.8831
13252TIP3    H161171   3.043   5.361   3.228  0.6091  0.4243  0.7759
13252TIP3    H261172   3.164   5.272   3.248  0.9805  1.3250  2.8690
13253TIP3   OH261173   2.864   3.492  16.501  0.4232  0.1690 -0.1848
13253TIP3    H161174   2.886   3.560  16.437  0.2012 -2.3190 -3.1652
13253TIP3    H261175   2.769   3.498  16.509  0.4760  0.6509  0.1177
13254TIP3   OH261176   3.815   0.705  14.213 -0.4932 -0.0054  0.3524
13254TIP3    H161177   3.884   0.686  14.149  0.8344  1.2654  1.3323
13254TIP3    H261178   3.790   0.796  14.194  0.4820  0.6731  2.0687
13255TIP3   OH261179   4.447   5.557   2.831  0.5992 -0.0626  0.1166
13255TIP3    H161180   4.421   5.592   2.746  0.3995 -1.5033 -0.4522
13255TIP3    H261181   4.427   5.626   2.893 -0.8554  0.3818 -0.8031
13256TIP3   OH261182   2.335   0.320  12.858 -0.9397 -0.0638 -0.2298
13256TIP3    H161183   2.303   0.268  12.932 -0.7213  1.3507  0.9065
13256TIP3    H261184   2.389   0.388  12.898  3.0082 -1.8674 -1.9913
13257TIP3   OH261185   4.044   3.375  12.869 -0.5108  0.3274  0.3092
13257TIP3    H161186   4.069   3.333  12.787 -0.2327 -0.8456  0.9628
13257TIP3    H261187   3.960   3.334  12.893 -1.3644  1.7468 -0.1285
13258TIP3   OH261188   3.441   0.427  12.262  0.1454  0.3097 -0.4128
13258TIP3    H161189   3.445   0.459  12.352 -0.7836 -1.5871  0.3470
13258TIP3    H261190   3.410   0.337  12.269 -0.4820  0.2728 -2.6741
13259TIP3   OH261191   3.774   2.289   2.012 -0.3346  0.3665  0.3888
13259TIP3    H161192   3.712   2.219   1.991 -0.2057  1.1317 -3.1085
13259TIP3    H261193   3.860   2.250   1.996 -0.0146  0.2071  2.3076
13260TIP3   OH261194   2.636   3.491  12.376 -0.4679 -0.0402  0.7580
13260TIP3    H161195   2.719   3.470  12.419 -0.6826 -0.5670  0.9208
13260TIP3    H261196   2.569   3.447  12.429 -0.7963 -0.1524  0.2634
13261TIP3   OH261197   0.446   1.208  15.957  0.5417 -0.2745 -0.2154
13261TIP3    H161198   0.450   1.151  16.034  2.1353 -0.7007 -0.5740
13261TIP3    H261199   0.497   1.286  15.982 -1.4303  0.9677  0.1936
13262TIP3   OH261200   0.169   4.087   3.556  0.1679 -0.6129  0.1224
13262TIP3    H161201   0.150   4.181   3.547 -0.2019 -0.6489  0.5051
13262TIP3    H261202   0.259   4.078   3.526  0.5471  0.0330  1.0304
13263TIP3   OH261203   3.398   6.297  15.292 -0.6086  0.4526  0.0989
13263TIP3    H161204   3.395   6.387  15.326  0.2010  0.2864  0.6362
13263TIP3    H261205   3.308   6.266  15.301 -0.6287  0.7642  1.1878
13264TIP3   OH261206   0.168   2.331   0.752 -0.2872 -0.3469  0.1011
13264TIP3    H161207   0.247   2.361   0.796  0.3950 -0.2938 -1.1319
13264TIP3    H261208   0.111   2.302   0.824 -0.1225  1.8195  1.1832
13265TIP3   OH261209   0.564   2.156   0.688  0.1985 -0.3090 -0.1176
13265TIP3    H161210   0.638   2.095   0.694  0.8455  0.3927 -0.7441
13265TIP3    H261211   0.586   2.226   0.748 -0.7691 -0.8905  0.9545
13266TIP3   OH261212   0.113   1.589   5.015 -0.0068 -0.6071  0.0351
13266TIP3    H161213   0.083   1.680   5.022  0.1303 -0.3362 -2.3457
13266TIP3    H261214   0.042   1.543   4.971  0.9825 -1.0730 -1.1158
13267TIP3   OH261215   0.569   0.312   5.100  0.4597 -0.0190 -0.0435
13267TIP3    H161216   0.608   0.376   5.159  1.9055 -2.1095  1.4384
13267TIP3    H261217   0.638   0.247   5.085 -1.4378 -2.2267  0.0997
13268TIP3   OH261218   2.841   1.121  16.711 -0.2520  0.0669 -0.6813
13268TIP3    H161219   2.786   1.087  16.641  1.2753 -2.4496 -0.7896
13268TIP3    H261220   2.812   1.075  16.789 -0.0426  0.6791 -0.2368
13269TIP3   OH261221   3.538   1.597   2.882  0.2011  0.1551  0.2264
13269TIP3    H161222   3.483   1.529   2.920  0.2132 -1.0770 -1.8060
13269TIP3    H261223   3.618   1.552   2.854  0.7034  1.2174 -0.1135
13270TIP3   OH261224   1.473   5.734   4.241  0.1059 -0.1719  0.0049
13270TIP3    H161225   1.385   5.696   4.252 -0.2634  0.7896  0.4522
13270TIP3    H261226   1.461   5.827   4.257  1.4246 -0.1824  1.2416
13271TIP3   OH261227   2.902   5.522   4.028 -0.6151  0.3208 -0.4852
13271TIP3    H161228   2.886   5.480   4.112 -0.0288  0.2439 -0.4109
13271TIP3    H261229   2.946   5.604   4.050  0.4368 -0.1569 -0.7710
13272TIP3   OH261230   2.427   1.468  14.236  1.0151 -0.2582 -0.4813
13272TIP3    H161231   2.504   1.510  14.197 -0.4656  2.6289 -0.5246
13272TIP3    H261232   2.414   1.514  14.318 -0.7469 -0.5704 -0.5504
13273TIP3   OH261233   5.652   1.023   1.570  0.3344 -0.0935  0.0900
13273TIP3    H161234   5.587   1.017   1.501 -0.7151 -0.1718  1.0611
13273TIP3    H261235   5.664   0.933   1.600  0.5756 -0.0270  0.2003
13274TIP3   OH261236   5.227   3.504   3.357  0.4437 -0.6199  0.5157
13274TIP3    H161237   5.225   3.425   3.411  0.4382  0.1050  1.6047
13274TIP3    H261238   5.320   3.518   3.338  0.6552  0.2435  2.0643
13275TIP3   OH261239   2.005   0.541   4.788  0.0815  0.1877 -0.3105
13275TIP3    H161240   2.091   0.509   4.817 -0.2520 -1.6975 -1.2590
13275TIP3    H261241   1.975   0.475   4.726 -2.1372  0.7279  0.1148
13276TIP3   OH261242   0.644   6.602  11.451 -0.4714  0.6638 -0.5174
13276TIP3    H161243   0.580   6.660  11.410 -1.7320  0.2382  0.7450
13276TIP3    H261244   0.631   6.615  11.545  0.1778 -0.6403 -0.2210
13277TIP3   OH261245   6.353   6.000  15.285  0.0615  0.6678 -0.4045
13277TIP3    H161246   6.309   6.002  15.200 -0.0185  0.4465 -0.3714
13277TIP3    H261247   6.282   6.001  15.349  0.1516  2.2246 -0.3039
13278TIP3   OH261248   1.873   4.200  14.571 -0.4158  0.4229  0.0625
13278TIP3    H161249   1.842   4.125  14.621 -1.0805  0.5016 -0.2223
13278TIP3    H261250   1.949   4.231  14.619 -0.2975 -0.2682  0.3307
13279TIP3   OH261251   4.067   3.461   0.567  0.1079  0.6961  0.2230
13279TIP3    H161252   4.142   3.400   0.564  0.0157  0.5675  0.4803
13279TIP3    H261253   3.991   3.405   0.552 -0.0304  0.6447  1.0237
13280TIP3   OH261254   1.967   2.991   1.546 -0.2009  0.4587 -0.0431
13280TIP3    H161255   1.982   3.085   1.532  0.8688  0.5060  1.3245
13280TIP3    H261256   1.871   2.983   1.549 -0.3630  2.0315  2.8680
13281TIP3   OH261257   4.506   0.496   4.922  0.2632  0.2277  0.0043
13281TIP3    H161258   4.591   0.463   4.893  0.0354 -0.3341 -0.0348
13281TIP3    H261259   4.509   0.488   5.018 -0.8417 -2.6590 -0.0816
13282TIP3   OH261260   3.042   6.616  12.886  0.2197  0.1194  0.5908
13282TIP3    H161261   3.048   6.585  12.795 -0.7679 -0.0449  0.5653
13282TIP3    H261262   3.033   6.536  12.938  1.4085  0.1772  0.9095
13283TIP3   OH261263   3.345   0.749   1.744 -0.2619  0.3581 -0.1632
13283TIP3    H161264   3.436   0.778   1.741 -0.1444  0.0173 -0.0142
13283TIP3    H261265   3.307   0.778   1.661 -0.2666  1.3065  0.1587
13284TIP3   OH261266   5.536   2.668   0.879 -0.4834 -0.1390 -0.8556
13284TIP3    H161267   5.452   2.636   0.846 -1.2437 -0.1107  0.9132
13284TIP3    H261268   5.598   2.650   0.809 -1.7309 -1.3117 -1.7119
13285TIP3   OH261269   6.615   2.776  14.054 -0.4876 -0.2384  0.7478
13285TIP3    H161270   6.654   2.847  14.004  1.1824 -1.2600  0.5178
13285TIP3    H261271   6.661   2.778  14.138  1.1574 -2.3354 -0.0253
13286TIP3   OH261272   4.163   0.607   0.451  0.9162 -0.2798 -0.7703
13286TIP3    H161273   4.184   0.591   0.543 -1.8488 -1.9464 -0.3041
13286TIP3    H261274   4.187   0.699   0.436  1.6686 -0.0461  1.5179
13287TIP3   OH261275   0.542   3.054   5.006 -0.1158 -0.2218 -0.3423
13287TIP3    H161276   0.453   3.024   4.988 -0.2157 -0.2325  0.1595
13287TIP3    H261277   0.540   3.148   4.986 -0.6394  0.0876  1.0589
13288TIP3   OH261278   6.781   5.018   2.613 -0.0044 -0.5256 -0.2087
13288TIP3    H161279   6.720   5.029   2.540  2.8184 -0.4964 -2.7566
13288TIP3    H261280   6.779   5.102   2.659  0.6575  0.7900 -2.4141
13289TIP3   OH261281   3.917   3.562  14.378 -0.0719 -0.1376  0.5785
13289TIP3    H161282   3.853   3.603  14.437  0.3294  2.2560 -0.5181
13289TIP3    H261283   3.873   3.559  14.294  0.9491  0.7953 -0.0119
13290TIP3   OH261284   3.057   5.044   5.161  0.5120  0.1962  0.0557
13290TIP3    H161285   3.143   5.022   5.197  0.6655  0.3967 -0.1812
13290TIP3    H261286   3.048   5.138   5.177  0.2861  0.1526  0.1846
13291TIP3   OH261287   4.929   5.118  14.317  0.1364  0.0003 -0.1073
13291TIP3    H161288   4.852   5.125  14.260 -0.5204  2.1619  0.9403
13291TIP3    H261289   4.933   5.202  14.362  0.6629 -1.5417  2.9671
13292TIP3   OH261290   3.415   4.225   4.282 -0.3022 -0.2406  0.0759
13292TIP3    H161291   3.408   4.318   4.304 -1.8004  0.1599 -1.8417
13292TIP3    H261292   3.471   4.223   4.205  1.3753 -1.1862  1.2498
13293TIP3   OH261293   6.529   1.887  10.526 -0.2198 -0.0610  0.3704
13293TIP3    H161294   6.529   1.967  10.579 -0.5354  0.5471 -0.5308
13293TIP3    H261295   6.621   1.861  10.523  0.2428  1.5296 -1.1649
13294TIP3   OH261296   0.572   3.405  15.401  0.0191  0.3040 -0.4557
13294TIP3    H161297   0.657   3.437  15.430  0.5447  0.5705 -2.1889
13294TIP3    H261298   0.512   3.431  15.471  1.2636  0.5759  0.5475
13295TIP3   OH261299   6.712   3.277   0.586 -0.1351  0.7653  0.1130
13295TIP3    H161300   6.646   3.319   0.641 -0.0392 -1.3339  1.9973
13295TIP3    H261301   6.662   3.228   0.521 -0.3178  1.5983 -0.3807
13296TIP3   OH261302   2.492   0.143  11.365  0.2045 -1.0311 -0.3461
13296TIP3    H161303   2.443   0.101  11.436  0.3462 -2.1317 -0.8787
13296TIP3    H261304   2.487   0.081  11.292 -1.5059  0.8664 -1.9689
13297TIP3   OH261305   1.535   2.025  16.141  0.4897  0.0165  0.6817
13297TIP3    H161306   1.512   2.117  16.125  0.2939  0.0127  0.9247
13297TIP3    H261307   1.480   2.000  16.216 -2.7743 -1.5650 -1.9775
13298TIP3   OH261308   6.111   5.910  13.367 -0.7661 -0.5795  0.5910
13298TIP3    H161309   6.108   5.856  13.288  0.5453 -0.9532  0.7744
13298TIP3    H261310   6.103   5.848  13.440 -2.3632 -0.2034  0.7809
13299TIP3   OH261311   2.903   4.195  13.786 -0.0144  0.3051 -0.4871
13299TIP3    H161312   2.855   4.248  13.721 -0.2901  0.7662  0.0789
13299TIP3    H261313   2.879   4.105  13.765 -1.1286  0.5223 -0.2421
13300TIP3   OH261314   4.604   4.310   5.554 -0.1885 -0.7933  0.1631
13300TIP3    H161315   4.585   4.236   5.612  0.1848 -2.6284 -1.9301
13300TIP3    H261316   4.518   4.339   5.523 -0.3030 -0.6946  0.5635
13301TIP3   OH261317   6.469   5.358   3.339  0.3506  0.0597  0.1276
13301TIP3    H161318   6.516   5.285   3.298  1.2229 -0.0221  1.2029
13301TIP3    H261319   6.471   5.427   3.273 -0.2454 -0.7802 -0.8044
13302TIP3   OH261320   0.505   5.496   2.194 -0.0103  0.0345  0.5113
13302TIP3    H161321   0.545   5.583   2.196  0.1325 -0.0428  0.9977
13302TIP3    H261322   0.443   5.500   2.121  1.3175 -0.0381 -0.6673
13303TIP3   OH261323   4.739   2.536  12.304 -0.1240 -0.4151 -0.5152
13303TIP3    H161324   4.770   2.627  12.307  0.7660 -0.7248  0.7117
13303TIP3    H261325   4.812   2.486  12.342 -1.0152 -1.5143 -0.2298
13304TIP3   OH261326   1.557   1.857   5.293  0.1258  0.2229 -0.4272
13304TIP3    H161327   1.466   1.885   5.287  0.3426  0.7734 -1.3154
13304TIP3    H261328   1.607   1.929   5.254  0.8343 -0.6086 -1.0957
13305TIP3   OH261329   3.171   5.180  12.338  0.1430 -0.3733 -0.2498
13305TIP3    H161330   3.186   5.133  12.420  0.2472 -1.0356 -0.6491
13305TIP3    H261331   3.164   5.112  12.272  0.4482  0.1810 -0.8568
13306TIP3   OH261332   2.083   0.661   5.179 -0.6230  0.4433  0.0909
13306TIP3    H161333   2.008   0.602   5.182 -0.4744  0.2012 -0.7006
13306TIP3    H261334   2.119   0.660   5.268 -2.0238  1.1856  0.6990
13307TIP3   OH261335   4.849   3.525  13.929 -0.4004 -0.4622 -0.1212
13307TIP3    H161336   4.831   3.435  13.957 -3.0721  0.3543  1.1190
13307TIP3    H261337   4.767   3.572  13.944  0.9692  2.2713 -0.4882
13308TIP3   OH261338   5.494   2.141  12.775  0.0419 -0.6764  0.3629
13308TIP3    H161339   5.502   2.199  12.850 -2.1401  1.1336 -0.6900
13308TIP3    H261340   5.430   2.075  12.803  0.7142 -1.1685  0.7486
13309TIP3   OH261341   4.310   3.437   2.305 -0.1085 -0.2385  0.8169
13309TIP3    H161342   4.378   3.401   2.361  0.5867  0.7189  0.6075
13309TIP3    H261343   4.349   3.440   2.218 -0.4699  0.1897  0.6656
13310TIP3   OH261344   5.372   6.623  16.744 -0.5283 -0.3766 -0.3015
13310TIP3    H161345   5.375   6.690  16.675 -1.9788  2.2855  2.0201
13310TIP3    H261346   5.280   6.615  16.766 -0.1187 -1.1600  1.3192
13311TIP3   OH261347   1.930   6.667   1.064  0.3434 -0.2299  0.1404
13311TIP3    H161348   1.970   6.580   1.065  0.1657 -0.3151 -0.1632
13311TIP3    H261349   1.868   6.666   1.137 -0.7540 -0.8748 -0.7682
13312TIP3   OH261350   5.894   5.967   3.839  0.0611  0.3850  0.1547
13312TIP3    H161351   5.853   5.929   3.916  0.7206 -2.2629 -0.7197
13312TIP3    H261352   5.912   6.058   3.864 -0.1151 -0.2692  2.9286
13313TIP3   OH261353   1.911   1.223  14.648  0.1835 -0.4078  0.0709
13313TIP3    H161354   1.846   1.210  14.717 -0.0639 -1.3463 -0.3170
13313TIP3    H261355   1.987   1.260  14.693 -0.4604  0.3001  0.6020
13314TIP3   OH261356   5.150   0.316  15.342 -0.1048 -0.2191 -0.2436
13314TIP3    H161357   5.124   0.307  15.250  1.5184  0.5845 -0.8339
13314TIP3    H261358   5.246   0.313  15.340 -0.0183  0.4445  1.3427
13315TIP3   OH261359   1.477   1.366  11.299  0.0118  0.0128  0.2315
13315TIP3    H161360   1.440   1.314  11.227 -0.5486  0.0573  0.4824
13315TIP3    H261361   1.510   1.445  11.256  0.7347 -0.4723 -0.1312
13316TIP3   OH261362   3.666   6.531   3.509  0.9484  0.5446  0.0065
13316TIP3    H161363   3.736   6.593   3.489  0.2732  1.0751 -0.7758
13316TIP3    H261364   3.586   6.574   3.478  0.4174 -0.5428 -0.1843
13317TIP3   OH261365   5.471   0.839   4.534  0.2685  0.3712  0.5523
13317TIP3    H161366   5.548   0.784   4.519  0.9606  0.8523  2.1475
13317TIP3    H261367   5.482   0.913   4.474  0.7933  0.1922  0.4270
13318TIP3   OH261368   2.358   2.448  14.986  0.1038  0.0295  0.2027
13318TIP3    H161369   2.440   2.400  14.974  0.3722 -0.1279  2.3197
13318TIP3    H261370   2.369   2.494  15.069 -1.3138  1.3793 -0.3042
13319TIP3   OH261371   1.937   6.100  16.575 -0.2927  0.0824 -1.1149
13319TIP3    H161372   1.934   6.055  16.491  1.4835 -0.0194 -1.1554
13319TIP3    H261373   1.963   6.032  16.637  1.9779  0.8953 -1.1038
13320TIP3   OH261374   3.848   3.063   2.841  0.2384  0.0604 -0.5191
13320TIP3    H161375   3.867   3.070   2.748  0.5094 -1.0978 -0.5685
13320TIP3    H261376   3.769   3.010   2.846 -0.9177  1.7490 -0.1483
13321TIP3   OH261377   0.527   4.263   4.514  0.2900 -0.4758  0.2885
13321TIP3    H161378   0.590   4.203   4.553  0.4472 -0.0824  0.6531
13321TIP3    H261379   0.476   4.210   4.454  0.1596 -1.0575  0.9057
13322TIP3   OH261380   2.630   0.462   5.113 -0.1107  0.0821 -0.3418
13322TIP3    H161381   2.689   0.415   5.172 -0.6467 -2.4968 -1.6701
13322TIP3    H261382   2.565   0.502   5.171  0.4112 -0.8391  0.9295
13323TIP3   OH261383   2.613   0.289   3.146 -0.0869 -0.0134 -0.1928
13323TIP3    H161384   2.594   0.225   3.078  0.6661 -0.7706  0.2699
13323TIP3    H261385   2.540   0.350   3.144 -0.4053 -0.4089 -1.2168
13324TIP3   OH261386   2.453   2.978   1.638 -0.5196 -0.4835  0.6418
13324TIP3    H161387   2.519   2.995   1.571  0.1281 -1.1013  1.1088
13324TIP3    H261388   2.396   3.055   1.635 -0.6820 -0.6298 -0.8056
13325TIP3   OH261389   6.609   5.825   0.940  0.4628 -0.4580  0.2362
13325TIP3    H161390   6.596   5.912   0.901 -0.0755  0.4003  2.1629
13325TIP3    H261391   6.530   5.776   0.917 -0.0581  0.1901  0.5917
13326TIP3   OH261392   0.885   6.324   1.145  0.5690 -0.0851 -0.3837
13326TIP3    H161393   0.814   6.308   1.083  0.3917  0.6147 -0.3708
13326TIP3    H261394   0.906   6.417   1.134 -0.5943  0.5168  1.7621
13327TIP3   OH261395   1.665   4.918   3.530  0.2895 -0.0481 -0.1147
13327TIP3    H161396   1.636   4.853   3.594  0.3521 -0.1970 -0.2367
13327TIP3    H261397   1.760   4.910   3.529  0.3506  0.5362  0.3857
13328TIP3   OH261398   1.829   0.036   3.306  0.5346 -0.4817 -1.0820
13328TIP3    H161399   1.797  -0.054   3.313  0.5159 -0.4732 -1.0597
13328TIP3    H261400   1.920   0.026   3.276  0.3161 -0.4895 -1.7751
13329TIP3   OH261401   6.275   0.160   0.587  0.2047  0.2370  1.1328
13329TIP3    H161402   6.361   0.156   0.545 -0.5592 -2.2786 -0.4629
13329TIP3    H261403   6.260   0.253   0.604  2.2583  0.9774 -0.6684
13330TIP3   OH261404   5.096   3.862   0.154 -0.3727  0.0378  0.2314
13330TIP3    H161405   5.098   3.879   0.248 -0.3216  0.9509  0.0735
13330TIP3    H261406   5.015   3.904   0.124 -0.4872 -0.4145 -0.1101
13331TIP3   OH261407   6.357   6.494  13.935  0.1647  0.1924  0.6705
13331TIP3    H161408   6.263   6.505  13.948 -0.3060 -2.2277 -0.1616
13331TIP3    H261409   6.380   6.419  13.990  1.3622  0.0324 -0.0183
13332TIP3   OH261410   1.903   2.302   2.644 -0.2803 -0.2593  0.4048
13332TIP3    H161411   1.885   2.388   2.605 -1.2409 -0.6705 -0.0934
13332TIP3    H261412   1.850   2.300   2.723  0.1251 -0.2174  0.6855
13333TIP3   OH261413   3.982   5.382   5.915 -0.1514  0.1826  0.4778
13333TIP3    H161414   4.000   5.290   5.899  1.4813  0.2169  1.8337
13333TIP3    H261415   3.929   5.383   5.995  0.3809  0.4356  0.8345
13334TIP3   OH261416   1.998   3.400  15.298 -0.0765  0.3444  0.1124
13334TIP3    H161417   2.081   3.428  15.259  0.4319  1.0272  1.6046
13334TIP3    H261418   1.995   3.306  15.280  1.3681  0.1678  0.5946
13335TIP3   OH261419   6.035   3.893  16.074  0.0244 -0.4161 -0.4656
13335TIP3    H161420   6.104   3.876  16.138  0.2017 -0.8788 -0.7807
13335TIP3    H261421   6.075   3.953  16.011 -0.5653  1.1320  0.5789
13336TIP3   OH261422   6.743   2.600   2.321 -0.0547  0.9487  0.2888
13336TIP3    H161423   6.785   2.585   2.405  0.2724 -0.2350 -0.0699
13336TIP3    H261424   6.733   2.513   2.283  0.2129  1.4914 -1.0888
13337TIP3   OH261425   5.189   5.856   5.668 -0.0953  0.0924  0.1114
13337TIP3    H161426   5.135   5.915   5.614 -1.8263  0.2243  1.8632
13337TIP3    H261427   5.127   5.790   5.700  1.3773 -1.4049 -0.0161
13338TIP3   OH261428   2.582   4.750  15.446 -0.3029  0.0113 -0.2725
13338TIP3    H161429   2.526   4.773  15.372 -1.1200  1.4488  0.7484
13338TIP3    H261430   2.597   4.656  15.437 -1.3726 -0.0493 -1.5891
13339TIP3   OH261431   3.048   0.500  10.862  0.3384 -0.3547 -0.0043
13339TIP3    H161432   3.127   0.458  10.829  0.2924  0.7261 -1.6102
13339TIP3    H261433   2.980   0.433  10.854  0.9775 -1.1620  1.0242
13340TIP3   OH261434   4.982   3.367   3.785  0.7372 -0.2866  0.0216
13340TIP3    H161435   4.974   3.461   3.772 -0.0392 -0.3104  0.2821
13340TIP3    H261436   4.894   3.333   3.771  0.8319 -0.8710  0.7478
13341TIP3   OH261437   1.734   1.501  14.766 -0.0111 -0.3758  0.1992
13341TIP3    H161438   1.719   1.456  14.849  0.4167  0.6339  0.8484
13341TIP3    H261439   1.654   1.488  14.716 -1.6664  1.7596  2.0896
13342TIP3   OH261440   4.454   4.678   4.325  0.2520  0.4289 -0.0669
13342TIP3    H161441   4.492   4.728   4.252  0.4826 -0.3796 -0.5100
13342TIP3    H261442   4.375   4.638   4.288  1.0244 -0.9862 -0.2462
13343TIP3   OH261443   0.346   3.431   5.280 -0.4606  0.1263 -0.1355
13343TIP3    H161444   0.332   3.350   5.232 -0.1011  0.4668 -0.8192
13343TIP3    H261445   0.259   3.454   5.314 -0.8817  0.3031 -1.2833
13344TIP3   OH261446   4.026   0.007   4.441 -0.2673  0.0436  0.1929
13344TIP3    H161447   4.116  -0.015   4.419  0.0132  2.0426 -0.8962
13344TIP3    H261448   4.001  -0.056   4.508  1.4497 -1.4502 -0.5069
13345TIP3   OH261449   1.372   1.143  15.761 -0.0053  0.6236  0.1902
13345TIP3    H161450   1.405   1.230  15.736 -1.3528  1.5934  1.6301
13345TIP3    H261451   1.283   1.159  15.793 -0.4519 -1.3660  0.0829
13346TIP3   OH261452   4.445   2.765  11.585 -0.3632 -0.4670 -0.1655
13346TIP3    H161453   4.393   2.843  11.605  0.8933  0.3103  0.1703
13346TIP3    H261454   4.505   2.794  11.517  0.9840 -0.7606  0.8696
13347TIP3   OH261455   5.835   0.202  16.232  0.0254 -0.5272  0.5091
13347TIP3    H161456   5.844   0.172  16.142 -0.5280  0.3710  0.1570
13347TIP3    H261457   5.866   0.292  16.231  1.2888 -0.9135  1.4911
13348TIP3   OH261458   1.777   0.784  16.568  0.7356  0.1373  0.2756
13348TIP3    H161459   1.780   0.849  16.639  2.3534  0.1116  0.2653
13348TIP3    H261460   1.856   0.731  16.581 -0.9213 -2.3792  0.7526
13349TIP3   OH261461   1.395   2.537   3.509 -0.3993 -0.6945 -0.2153
13349TIP3    H161462   1.320   2.580   3.549  0.0174  0.4792 -0.6622
13349TIP3    H261463   1.471   2.581   3.547  0.0384 -1.0024 -0.7199
13350TIP3   OH261464   4.238   5.724  13.646  0.4987  0.0283 -0.2124
13350TIP3    H161465   4.278   5.807  13.621  2.3394 -1.1474 -1.4625
13350TIP3    H261466   4.308   5.659  13.633 -1.8175 -2.2126 -2.6917
13351TIP3   OH261467   2.316   3.843  16.666 -0.5755  0.5396  0.0963
13351TIP3    H161468   2.308   3.748  16.660  1.6615  0.3510 -1.1645
13351TIP3    H261469   2.355   3.858  16.752 -2.0444  0.4620  0.8084
13352TIP3   OH261470   0.921   0.561  16.013 -1.0082 -0.4079  0.1685
13352TIP3    H161471   0.951   0.613  15.938  0.3021 -2.6995 -0.9975
13352TIP3    H261472   0.825   0.563  16.006 -1.0289  1.8091  0.2195
13353TIP3   OH261473   3.883   1.275  10.426  0.7260 -0.2206  0.2782
13353TIP3    H161474   3.802   1.314  10.458 -0.9797 -3.1377 -0.1848
13353TIP3    H261475   3.926   1.241  10.505  1.3551  0.9493  0.4691
13354TIP3   OH261476   1.056   4.317  16.213 -0.2187 -0.4274  0.0755
13354TIP3    H161477   1.125   4.253  16.230 -1.1303 -1.4190  0.1111
13354TIP3    H261478   1.102   4.393  16.177  0.6777 -1.8101 -1.8125
13355TIP3   OH261479   0.171   0.901  12.913 -0.6704 -0.5886  0.1478
13355TIP3    H161480   0.104   0.910  12.846 -1.7480 -2.0620  0.9651
13355TIP3    H261481   0.131   0.846  12.980  1.3229 -1.4684  0.6995
13356TIP3   OH261482   0.640   2.280  13.916  0.5092  0.2247 -0.3753
13356TIP3    H161483   0.650   2.291  13.822  1.0085  1.3234 -0.2146
13356TIP3    H261484   0.690   2.201  13.937  0.4837  0.0394 -1.0106
13357TIP3   OH261485   0.755   4.725   5.576  0.4304  0.4353 -0.1498
13357TIP3    H161486   0.681   4.786   5.569 -0.0715  0.1661  2.0352
13357TIP3    H261487   0.771   4.719   5.670  1.8917 -1.1380 -0.4648
13358TIP3   OH261488   0.664   2.342   6.328  0.1723  0.2091 -0.5017
13358TIP3    H161489   0.622   2.413   6.376  0.4416  0.3401 -0.4555
13358TIP3    H261490   0.739   2.318   6.382 -0.3373 -0.6199 -0.1465
13359TIP3   OH261491   4.864   1.855   5.458  0.5681  0.1092 -0.4164
13359TIP3    H161492   4.846   1.936   5.411 -2.2571 -0.5385 -0.5978
13359TIP3    H261493   4.937   1.877   5.517 -1.3332  3.3851  0.9822
13360TIP3   OH261494   2.198   4.467  14.987 -0.4491 -0.2032 -0.0748
13360TIP3    H161495   2.250   4.461  15.067  0.6907 -1.8775 -0.8813
13360TIP3    H261496   2.179   4.561  14.978  0.3564  0.1573  1.5456
13361TIP3   OH261497   5.894   2.462  12.666 -0.1836  0.0114  0.0734
13361TIP3    H161498   5.967   2.523  12.659 -0.0389 -0.1794 -0.0807
13361TIP3    H261499   5.839   2.499  12.735  2.2263 -2.0618  3.3940
13362TIP3   OH261500   5.985   4.599  15.617 -0.2177 -0.0081  0.1594
13362TIP3    H161501   5.905   4.594  15.670 -0.4554  0.1586 -0.1824
13362TIP3    H261502   5.957   4.639  15.535  0.0924 -0.5611 -0.2178
13363TIP3   OH261503   3.049   3.169   6.185 -0.0544  0.3846  0.2510
13363TIP3    H161504   2.965   3.184   6.142  1.0586  1.0324 -1.8144
13363TIP3    H261505   3.078   3.084   6.153  0.9191  1.0000 -0.5575
13364TIP3   OH261506   6.731   5.715  11.737  0.2186 -0.1728 -0.3988
13364TIP3    H161507   6.720   5.773  11.812 -0.6618  0.0810 -0.7171
13364TIP3    H261508   6.784   5.765  11.676 -0.2728  0.1745 -0.5416
13365TIP3   OH261509   6.572   2.853  15.651  0.0488 -0.2471  0.3807
13365TIP3    H161510   6.580   2.936  15.699 -2.7687  0.2422  0.1679
13365TIP3    H261511   6.506   2.870  15.584 -0.1952 -2.5196 -0.0386
13366TIP3   OH261512   0.562   6.709   3.652 -0.1202  0.2951  0.4317
13366TIP3    H161513   0.467   6.720   3.646 -0.1710 -0.1265  0.4697
13366TIP3    H261514   0.595   6.798   3.667 -0.5360  0.3986  0.7646
13367TIP3   OH261515   1.851   4.023   5.766  0.2774 -0.4273  0.0519
13367TIP3    H161516   1.771   4.041   5.815  0.7650  0.3753  0.5804
13367TIP3    H261517   1.847   4.083   5.691  0.1873 -0.6797 -0.1460
13368TIP3   OH261518   2.917   1.150   3.492  0.8003 -0.1232 -0.3951
13368TIP3    H161519   2.953   1.102   3.567  1.0885  0.0784 -0.4027
13368TIP3    H261520   2.992   1.198   3.457  0.7561 -0.5376 -1.0645
13369TIP3   OH261521   0.356   4.219   2.951  0.0955  0.6255  0.1629
13369TIP3    H161522   0.429   4.182   2.901 -0.4700  0.8003 -0.8314
13369TIP3    H261523   0.299   4.145   2.969  0.2888  0.5663  0.5322
13370TIP3   OH261524   6.622   5.126   3.374 -0.0919 -0.2559 -0.6850
13370TIP3    H161525   6.685   5.165   3.435 -0.3354 -0.6436 -0.1786
13370TIP3    H261526   6.562   5.077   3.430 -0.9206  0.2131 -1.1607
13371TIP3   OH261527   5.811   5.968   0.844  0.3797 -1.1434  0.5751
13371TIP3    H161528   5.720   5.988   0.866  0.1500 -1.1932 -0.3029
13371TIP3    H261529   5.860   6.047   0.868 -0.3231  0.0388 -1.6480
13372TIP3   OH261530   0.680   4.083  15.301  0.1290  0.2835  0.0949
13372TIP3    H161531   0.603   4.026  15.296 -0.8527  1.4912  0.8129
13372TIP3    H261532   0.644   4.171  15.309  1.5654  1.2423 -2.6140
13373TIP3   OH261533   4.997   4.140  13.091  0.7556  0.0050 -0.3150
13373TIP3    H161534   5.068   4.112  13.033  0.7583 -0.2749 -0.1823
13373TIP3    H261535   4.920   4.146  13.035  1.0077  0.8699 -0.5701
13374TIP3   OH261536   2.772   5.421  16.076 -0.6650  0.0206  0.1588
13374TIP3    H161537   2.748   5.337  16.115 -0.9678  0.0565  0.0534
13374TIP3    H261538   2.703   5.481  16.102 -0.8970  0.0343 -0.4680
13375TIP3   OH261539   5.644   5.746   5.501  0.3916 -0.4656 -0.7077
13375TIP3    H161540   5.691   5.745   5.584 -1.1076  0.1372  0.1951
13375TIP3    H261541   5.552   5.737   5.526 -0.1315  0.2027 -2.2793
13376TIP3   OH261542   6.168   2.200  16.446  0.1908  0.2878  0.0667
13376TIP3    H161543   6.259   2.194  16.417 -0.0466 -1.1208 -0.4598
13376TIP3    H261544   6.134   2.111  16.435 -0.9670  0.5668  1.1969
13377TIP3   OH261545   5.622   1.836  12.301  0.4115 -0.2861  0.4804
13377TIP3    H161546   5.540   1.869  12.336  0.2015 -0.2834 -0.0151
13377TIP3    H261547   5.649   1.768  12.363 -0.2514 -0.6819  0.3363
13378TIP3   OH261548   0.235   6.410  15.431 -0.2202  0.6588 -0.2830
13378TIP3    H161549   0.205   6.484  15.377 -0.0945  0.5808 -0.4593
13378TIP3    H261550   0.180   6.414  15.509 -0.8092  0.4206 -0.6764
13379TIP3   OH261551   3.684   4.537   3.010 -0.5789 -0.1632  0.1490
13379TIP3    H161552   3.671   4.462   3.068 -1.2499 -0.2514 -0.1027
13379TIP3    H261553   3.595   4.571   2.995 -0.3399  0.3053 -0.2334
13380TIP3   OH261554   5.759   5.526  14.215 -0.8906 -0.2801 -0.1841
13380TIP3    H161555   5.750   5.592  14.284  0.6225  0.0698 -0.2843
13380TIP3    H261556   5.784   5.446  14.261  0.7564  0.1109 -0.3460
13381TIP3   OH261557   3.303   4.877  11.890  0.0464  0.4917  0.3285
13381TIP3    H161558   3.234   4.921  11.939 -0.6248 -1.5306  1.3119
13381TIP3    H261559   3.265   4.791  11.867  1.5802  0.0554 -0.7403
13382TIP3   OH261560   3.447   5.602  12.573  0.2459  0.5898  1.0714
13382TIP3    H161561   3.396   5.606  12.492  0.1034  0.4904  1.1550
13382TIP3    H261562   3.388   5.560  12.636  1.0272 -1.1282  0.7172
13383TIP3   OH261563   5.409   1.484  13.483  0.4660  0.3568  0.6178
13383TIP3    H161564   5.371   1.458  13.567  0.7634 -0.5821  0.4632
13383TIP3    H261565   5.503   1.492  13.500  0.4891  0.4667  0.4429
13384TIP3   OH261566   2.257   6.459   3.858  0.3799  0.0078  0.0471
13384TIP3    H161567   2.255   6.523   3.928  0.1817  1.4551 -1.2400
13384TIP3    H261568   2.296   6.381   3.898  1.4839  1.2062  1.4129
13385TIP3   OH261569   3.767   2.110  11.791  0.1166  0.3015  0.0815
13385TIP3    H161570   3.690   2.156  11.824 -0.2327 -1.4653  1.8995
13385TIP3    H261571   3.736   2.022  11.771  1.5880 -0.3403  0.5191
13386TIP3   OH261572   2.445   4.419  16.405 -0.2616  0.3716 -0.3105
13386TIP3    H161573   2.473   4.339  16.361 -0.5231 -0.7417  1.4632
13386TIP3    H261574   2.524   4.454  16.446 -0.8124 -1.4433  2.6172
13387TIP3   OH261575   3.035   5.086  14.784 -0.2214  0.4580 -0.4447
13387TIP3    H161576   3.070   5.152  14.844 -2.2635 -0.8468  2.4294
13387TIP3    H261577   2.960   5.130  14.742 -0.7910  0.3846  0.4819
13388TIP3   OH261578   1.081   5.079   2.776  0.5156 -0.0198 -0.0441
13388TIP3    H161579   1.095   5.142   2.847  1.4890  0.6752 -0.8181
13388TIP3    H261580   0.990   5.051   2.786  1.1910 -1.5441  2.7197
13389TIP3   OH261581   4.028   6.306  12.529  0.0084  0.2319  0.1617
13389TIP3    H161582   4.116   6.302  12.567  0.1687 -0.6469 -0.2585
13389TIP3    H261583   3.994   6.391  12.555  0.9937  0.5921  0.3155
13390TIP3   OH261584   0.155   1.600   5.320  0.1412  0.0372 -0.7446
13390TIP3    H161585   0.186   1.509   5.318  0.8910  0.2599  0.0532
13390TIP3    H261586   0.059   1.593   5.323  0.0860 -0.6766 -2.8286
13391TIP3   OH261587   4.599   0.738  14.640 -0.3353 -0.1811  0.1489
13391TIP3    H161588   4.675   0.705  14.592 -0.3620  2.1586 -1.6368
13391TIP3    H261589   4.523   0.706  14.590 -0.3635  2.1377 -1.4727
13392TIP3   OH261590   2.919   6.451   5.313 -0.0608  0.4536 -0.0565
13392TIP3    H161591   2.862   6.382   5.278 -1.3744  2.5687 -2.4005
13392TIP3    H261592   2.866   6.495   5.379 -0.2218  0.8628 -0.4556
13393TIP3   OH261593   6.008   4.655  17.196 -0.3628 -0.2468  0.2436
13393TIP3    H161594   6.098   4.622  17.200 -0.1229  0.3367 -0.1835
13393TIP3    H261595   5.953   4.579  17.217  0.2473 -0.4849  1.0217
13394TIP3   OH261596   3.695   4.884   0.941  0.1957  0.2094 -0.0618
13394TIP3    H161597   3.659   4.865   1.028  0.9813  0.7503  0.3858
13394TIP3    H261598   3.749   4.808   0.920 -0.5848 -0.2648 -0.4151
13395TIP3   OH261599   4.300   1.465  16.766 -0.6244 -0.0033  0.3105
13395TIP3    H161600   4.260   1.548  16.794  0.7171 -0.0105  2.5060
13395TIP3    H261601   4.255   1.398  16.817  0.8987 -0.1923  1.4472
13396TIP3   OH261602   5.088   5.213   3.363  0.3992 -0.5379 -0.7597
13396TIP3    H161603   5.027   5.266   3.311  0.0501 -0.2308 -0.0483
13396TIP3    H261604   5.154   5.275   3.393  0.5432 -0.6962 -0.7478
13397TIP3   OH261605   5.050   3.935  16.818 -0.1795  0.1600 -0.1316
13397TIP3    H161606   5.128   3.989  16.826  0.6795 -1.2058  1.4420
13397TIP3    H261607   5.078   3.860  16.764  0.7064 -2.0294  3.1003
13398TIP3   OH261608   0.887   4.276   5.719 -0.3129  0.5134  0.4204
13398TIP3    H161609   0.807   4.302   5.764 -0.0228 -0.3877  1.5032
13398TIP3    H261610   0.882   4.180   5.715  0.8953  0.4192  0.8663
13399TIP3   OH261611   5.724   1.432   2.669 -0.4577  0.1709  0.3634
13399TIP3    H161612   5.715   1.526   2.654 -0.8682  0.2322  0.9600
13399TIP3    H261613   5.804   1.423   2.722  1.3117 -0.0917 -2.1402
13400TIP3   OH261614   0.146   6.138   0.364  0.0374 -0.0287 -0.1783
13400TIP3    H161615   0.095   6.152   0.284  0.1558  0.2918 -0.1983
13400TIP3    H261616   0.193   6.220   0.377 -0.1420 -0.0073  0.3388
13401TIP3   OH261617   0.366   3.867   4.048  0.0238 -0.2588 -0.8050
13401TIP3    H161618   0.336   3.809   4.118  0.0808 -1.3985 -1.6853
13401TIP3    H261619   0.324   3.951   4.066 -2.5228 -1.3717 -1.1413
13402TIP3   OH261620   4.632   4.236   2.816  1.2119  0.2120 -0.3562
13402TIP3    H161621   4.573   4.186   2.872  1.5306  2.1165  1.8628
13402TIP3    H261622   4.702   4.174   2.793  1.2581 -0.5893  1.7146
13403TIP3   OH261623   2.857   3.116  13.972  0.1272  0.7749  0.0330
13403TIP3    H161624   2.903   3.112  13.888 -1.4108  0.9987 -0.8506
13403TIP3    H261625   2.900   3.188  14.019  0.7561  0.8994 -0.7154
13404TIP3   OH261626   1.997   2.675   3.107  0.8303 -0.0130  0.6751
13404TIP3    H161627   2.069   2.611   3.104  0.6254 -0.2597 -2.5260
13404TIP3    H261628   2.020   2.740   3.041 -0.5221  1.5470  1.6559
13405TIP3   OH261629   1.277   3.099   4.334  0.5075 -0.0625 -0.2696
13405TIP3    H161630   1.193   3.141   4.351  0.9382  2.3041 -3.1568
13405TIP3    H261631   1.330   3.119   4.412 -0.9608  0.0904  0.7320
13406TIP3   OH261632   4.806   4.002  16.413  0.6356  0.7114 -1.3459
13406TIP3    H161633   4.870   3.957  16.358  1.3121 -0.3291  0.2114
13406TIP3    H261634   4.775   3.935  16.474 -0.4275  1.6939 -0.7603
13407TIP3   OH261635   2.303   5.150  14.746  0.2007  0.7621 -0.5890
13407TIP3    H161636   2.330   5.142  14.838  0.6202 -0.6718 -0.8229
13407TIP3    H261637   2.376   5.194  14.703  0.8922 -0.3930 -0.6253
13408TIP3   OH261638   1.978   5.569   4.199 -0.3901  0.2336  0.9067
13408TIP3    H161639   1.994   5.484   4.158 -0.2611  1.0496 -0.8442
13408TIP3    H261640   1.938   5.548   4.283  1.6335 -1.6171  1.5196
13409TIP3   OH261641   2.795   1.528   0.928 -0.5244  0.2385 -0.1175
13409TIP3    H161642   2.888   1.510   0.945 -0.6446  0.5442  0.9546
13409TIP3    H261643   2.796   1.609   0.877 -0.1554 -0.5453 -1.3910
13410TIP3   OH261644   0.802   5.260   2.832 -0.1158 -0.4245  0.3882
13410TIP3    H161645   0.760   5.343   2.858  0.5026 -0.1993  0.6947
13410TIP3    H261646   0.892   5.268   2.864  0.4390 -0.4998 -1.0839
13411TIP3   OH261647   0.775   5.357   4.342 -0.7557 -0.6505 -0.6912
13411TIP3    H161648   0.792   5.440   4.297  1.7956 -2.0421 -2.5101
13411TIP3    H261649   0.706   5.316   4.290  0.3158 -1.0907 -1.7924
13412TIP3   OH261650   3.745   4.535   1.153 -0.4309 -0.5431 -0.1378
13412TIP3    H161651   3.748   4.573   1.241  1.3507  0.9640 -0.7812
13412TIP3    H261652   3.798   4.456   1.160  0.7923  0.2448 -0.1006
13413TIP3   OH261653   5.526   3.959  13.471 -0.2994 -0.8611  0.5294
13413TIP3    H161654   5.456   4.024  13.478  0.7449  0.7010 -2.0821
13413TIP3    H261655   5.509   3.913  13.389  2.0380  0.0578 -0.5777
13414TIP3   OH261656   4.069   4.602  14.859 -0.4544  0.1001 -0.2098
13414TIP3    H161657   4.161   4.586  14.880 -0.7463  0.3276  1.3806
13414TIP3    H261658   4.072   4.677  14.799  0.4359 -0.6377 -1.1358
13415TIP3   OH261659   1.402   5.415  14.107  0.0169 -0.7006  0.3063
13415TIP3    H161660   1.344   5.405  14.031  1.8485  0.0116 -1.2745
13415TIP3    H261661   1.443   5.330  14.118  0.3924 -0.5717 -0.0712
13416TIP3   OH261662   5.722   0.538  12.936 -0.2811 -0.4227  0.1457
13416TIP3    H161663   5.816   0.523  12.929 -0.1382  1.2926 -4.1702
13416TIP3    H261664   5.713   0.597  13.011  2.2193  0.2490  0.0123
13417TIP3   OH261665   0.702   0.381   4.723  0.9739  0.1078  0.0453
13417TIP3    H161666   0.791   0.345   4.722  0.8075 -0.3628  1.0816
13417TIP3    H261667   0.673   0.374   4.632  1.3361 -1.4282  0.0194
13418TIP3   OH261668   0.288   4.006   2.545  0.0913 -0.1325 -0.4609
13418TIP3    H161669   0.331   3.935   2.592  0.7961  0.6721  0.1396
13418TIP3    H261670   0.222   4.039   2.607 -1.8281 -1.6888 -1.5531
13419TIP3   OH261671   5.400   1.255   3.127 -0.0645 -0.4051  0.2211
13419TIP3    H161672   5.459   1.266   3.052 -2.4040  0.5667 -1.5853
13419TIP3    H261673   5.391   1.161   3.137  0.2246 -0.5403 -0.7485
13420TIP3   OH261674   5.418   6.753  13.660  0.2721  0.2252  0.2904
13420TIP3    H161675   5.334   6.776  13.622  0.4333 -0.4081 -0.4736
13420TIP3    H261676   5.408   6.773  13.753 -0.6293  0.3959  0.1681
13421TIP3   OH261677   3.523   4.082   5.015  0.1053 -0.7386 -0.1315
13421TIP3    H161678   3.551   4.076   5.106  0.6054 -1.2716 -0.3080
13421TIP3    H261679   3.601   4.058   4.965 -0.2929 -0.9018 -0.6829
13422TIP3   OH261680   4.761   4.829   5.600  0.1894  0.3386 -0.4818
13422TIP3    H161681   4.729   4.844   5.690 -1.6657  0.5364 -1.1248
13422TIP3    H261682   4.728   4.904   5.551 -0.6720 -0.8302 -1.7480
13423TIP3   OH261683   1.038   1.310   2.700  0.0577  0.2546  0.0517
13423TIP3    H161684   0.946   1.336   2.691 -0.0043  0.1686  0.4148
13423TIP3    H261685   1.040   1.255   2.778  0.8823  2.5333  1.7404
13424TIP3   OH261686   4.147   1.066   3.969  0.4078  0.0881 -0.4904
13424TIP3    H161687   4.094   1.146   3.977 -0.7103 -0.7201  0.4249
13424TIP3    H261688   4.213   1.075   4.038 -0.4594 -0.3029  0.4210
13425TIP3   OH261689   6.016   1.529   5.719 -1.0334 -0.0137 -0.7414
13425TIP3    H161690   6.043   1.473   5.791 -0.4878  1.4744  0.2538
13425TIP3    H261691   6.066   1.497   5.643 -1.6382 -1.6063 -0.4960
13426TIP3   OH261692   5.393   1.341   6.671  0.7080 -0.3656  0.5294
13426TIP3    H161693   5.345   1.423   6.660  0.7957 -0.3172  0.5061
13426TIP3    H261694   5.380   1.294   6.589  0.0179 -0.7134  0.8296
13427TIP3   OH261695   5.603   2.077  13.531  0.7787  0.0980 -0.4612
13427TIP3    H161696   5.639   2.166  13.529  0.6356  0.1865  0.6035
13427TIP3    H261697   5.655   2.029  13.466  1.7494  0.6240 -0.0871
13428TIP3   OH261698   2.666   2.578  16.036 -0.2650 -0.0295  0.2734
13428TIP3    H161699   2.667   2.488  16.067  1.8935 -0.8236 -1.7762
13428TIP3    H261700   2.701   2.629  16.109  0.0877 -1.1126  0.8824
13429TIP3   OH261701   4.635   4.533  15.627 -0.0875  0.5959  0.1482
13429TIP3    H161702   4.654   4.448  15.667  0.6999  0.8009  0.2188
13429TIP3    H261703   4.631   4.514  15.533 -0.2567  0.4179  0.1907
13430TIP3   OH261704   3.752   1.659  10.407 -0.2555  0.1686  0.3137
13430TIP3    H161705   3.729   1.680  10.497  0.4558 -0.8507  0.7599
13430TIP3    H261706   3.669   1.653  10.361 -0.6718 -0.0101  1.0778
13431TIP3   OH261707   6.566   1.204  12.768  0.5290 -0.0185 -0.6565
13431TIP3    H161708   6.490   1.207  12.826 -0.2951 -0.4995 -1.6712
13431TIP3    H261709   6.566   1.289  12.724  1.1282  0.3298 -0.0031
13432TIP3   OH261710   5.846   6.291   0.242 -0.1685  0.5854 -0.0856
13432TIP3    H161711   5.824   6.252   0.157  2.5873 -1.6872  0.0697
13432TIP3    H261712   5.832   6.384   0.230  1.2252  0.5210 -3.5213
13433TIP3   OH261713   1.157   3.878   5.514  0.0173 -0.2843 -0.1141
13433TIP3    H161714   1.086   3.942   5.507 -0.4682 -0.9069 -1.3517
13433TIP3    H261715   1.116   3.801   5.554  0.3549 -0.1640  0.4718
13434TIP3   OH261716   0.486   3.855   2.302 -0.3091 -0.4256 -0.2353
13434TIP3    H161717   0.524   3.826   2.384  0.2054  0.1789 -0.2487
13434TIP3    H261718   0.557   3.905   2.259 -1.3865  1.5508  0.1669
13435TIP3   OH261719   3.879   1.978   2.542  0.3420 -0.4149  0.1129
13435TIP3    H161720   3.865   2.042   2.612  1.4241 -1.1799  1.0635
13435TIP3    H261721   3.927   1.907   2.584 -1.3077 -2.1351 -0.7692
13436TIP3   OH261722   4.102   4.432   2.675 -0.5042  0.0739 -0.0779
13436TIP3    H161723   4.093   4.484   2.755 -0.4240  2.4668 -1.5029
13436TIP3    H261724   4.193   4.444   2.648 -0.5132 -0.7372 -0.4988
13437TIP3   OH261725   3.717   5.649  12.456  0.7875  0.0603  0.2070
13437TIP3    H161726   3.658   5.712  12.414  0.0057  0.4974  1.8384
13437TIP3    H261727   3.663   5.571  12.469  1.2868 -0.3915 -0.3964
13438TIP3   OH261728   0.040   2.523  15.916 -0.2244 -0.1932 -0.3799
13438TIP3    H161729   0.107   2.573  15.963  0.0949 -1.4529  0.5349
13438TIP3    H261730  -0.005   2.589  15.862 -0.5041  1.2810  1.5526
13439TIP3   OH261731   3.252   3.402   5.861  0.3325 -0.2872 -0.0555
13439TIP3    H161732   3.189   3.446   5.919  0.3546 -0.1134 -0.1624
13439TIP3    H261733   3.333   3.399   5.913  0.1352 -0.8485  0.2245
13440TIP3   OH261734   6.268   4.264  15.255  0.2353 -0.1610  0.1203
13440TIP3    H161735   6.299   4.202  15.188 -2.6812  0.3421 -1.8916
13440TIP3    H261736   6.345   4.316  15.278  1.5859 -1.0588 -2.0906
13441TIP3   OH261737   3.632   0.046   1.746  0.3946  0.3918  0.3530
13441TIP3    H161738   3.727   0.037   1.753  0.5296 -0.1008 -1.6242
13441TIP3    H261739   3.607   0.096   1.824  2.0508 -0.8354  1.7504
13442TIP3   OH261740   6.509   0.064   3.706 -0.1887  0.2274 -1.2149
13442TIP3    H161741   6.554   0.039   3.787 -1.1593  0.4357 -0.5864
13442TIP3    H261742   6.553   0.014   3.638 -1.4579 -2.6286 -0.1463
13443TIP3   OH261743   6.432   6.525  16.991 -0.2999 -0.3363  0.4924
13443TIP3    H161744   6.483   6.444  16.997 -0.2537 -0.4673 -1.1200
13443TIP3    H261745   6.361   6.504  16.931 -1.9198  0.0411  2.1912
13444TIP3   OH261746   1.078   5.881   4.887 -0.3343  0.2095 -0.1350
13444TIP3    H161747   1.118   5.884   4.800 -2.8417  0.2834 -1.3860
13444TIP3    H261748   1.061   5.788   4.902  0.5327  0.1434  0.5378
13445TIP3   OH261749   2.351   6.283  11.773  0.1925  0.3488 -0.6457
13445TIP3    H161750   2.413   6.343  11.816 -2.3011  1.9098  1.0816
13445TIP3    H261751   2.383   6.276  11.683  1.8552  2.5461 -0.3293
13446TIP3   OH261752   3.316   3.080   6.324  0.2533 -0.2068 -0.4134
13446TIP3    H161753   3.292   3.097   6.233  0.8243 -2.2687 -1.0111
13446TIP3    H261754   3.234   3.057   6.368 -0.4381  3.0518  0.2750
13447TIP3   OH261755   6.434   5.124  11.642 -0.4332 -0.1718 -0.0446
13447TIP3    H161756   6.482   5.202  11.612 -2.8300  1.2787 -0.3470
13447TIP3    H261757   6.432   5.133  11.737 -2.5546  1.3955 -0.1717
13448TIP3   OH261758   0.409   3.995  14.957  0.0356 -0.2701 -0.3331
13448TIP3    H161759   0.501   3.995  14.933 -0.1883 -2.2527 -1.3336
13448TIP3    H261760   0.365   3.945  14.888 -1.6108 -0.4377  0.7735
13449TIP3   OH261761   2.041   0.406  16.658 -0.4864  0.2335 -0.1793
13449TIP3    H161762   1.952   0.378  16.678 -0.4595 -0.2885 -0.7615
13449TIP3    H261763   2.030   0.489  16.611 -0.7025 -0.1912 -0.8854
13450TIP3   OH261764   3.539   5.924   3.533 -0.2921 -0.0058 -0.6120
13450TIP3    H161765   3.501   6.012   3.526 -0.0284  0.3878  1.7954
13450TIP3    H261766   3.498   5.874   3.463 -2.2117  1.4454 -0.5996
13451TIP3   OH261767   6.250   5.590  13.286 -0.0050 -0.0384 -0.0039
13451TIP3    H161768   6.222   5.597  13.377  1.6236 -1.7094  0.6955
13451TIP3    H261769   6.341   5.622  13.285  1.2604 -3.2599 -0.2194
13452TIP3   OH261770   0.266   0.829   2.317 -0.8481 -0.5620 -0.0529
13452TIP3    H161771   0.232   0.851   2.404 -0.6644  0.7902 -0.2953
13452TIP3    H261772   0.244   0.905   2.263  0.1357 -0.8448 -0.8904
13453TIP3   OH261773   5.575   2.648  13.810  0.0497 -0.3091  0.3399
13453TIP3    H161774   5.510   2.586  13.841 -0.4799 -0.8263 -1.6743
13453TIP3    H261775   5.636   2.596  13.758  0.2091  0.6683 -0.4945
13454TIP3   OH261776   4.919   4.003  17.076 -0.2228  0.4063  0.0071
13454TIP3    H161777   4.972   4.047  17.143  0.2039  0.5975 -0.4503
13454TIP3    H261778   4.980   3.987  17.004 -0.2040 -1.5444  0.4176
13455TIP3   OH261779   0.201   4.075   0.545  0.1843 -0.3802  0.3692
13455TIP3    H161780   0.220   3.987   0.577  0.9246 -0.7403 -0.9670
13455TIP3    H261781   0.108   4.088   0.564 -0.9220 -2.8855 -2.4563
13456TIP3   OH261782   0.040   6.549   3.705  1.0303  0.5789 -0.1379
13456TIP3    H161783   0.135   6.546   3.691  1.2300  0.5369  1.0621
13456TIP3    H261784   0.027   6.624   3.763  0.1916  1.2378 -1.1458
13457TIP3   OH261785   1.404   0.335  16.490  0.3058  0.7009  0.1732
13457TIP3    H161786   1.404   0.326  16.586 -0.1815 -1.7211 -0.0012
13457TIP3    H261787   1.481   0.287  16.461  0.3009  1.1873 -0.6790
13458TIP3   OH261788   0.733   4.454   2.742  0.5104 -0.6712 -0.6745
13458TIP3    H161789   0.678   4.533   2.745 -1.0022 -1.6778 -0.9656
13458TIP3    H261790   0.808   4.480   2.689  0.4241  0.8045 -0.1183
13459TIP3   OH261791   5.398   6.498  17.053 -0.3193  0.0041 -0.2932
13459TIP3    H161792   5.464   6.471  16.989  0.7929  0.1975  0.7401
13459TIP3    H261793   5.378   6.419  17.102  0.3595  0.2807  0.4495
13460TIP3   OH261794   4.084   6.642   5.534 -0.2087  0.3011 -0.4292
13460TIP3    H161795   4.096   6.675   5.623 -0.1951 -0.1283 -0.2696
13460TIP3    H261796   3.990   6.630   5.525 -0.0844 -1.5128  0.2203
13461TIP3   OH261797   4.803   1.927  16.486  0.2161  0.1049  0.1706
13461TIP3    H161798   4.894   1.898  16.496  0.2076 -0.6241 -1.4428
13461TIP3    H261799   4.753   1.847  16.471 -0.8209  0.4397  1.6700
13462TIP3   OH261800   4.124   0.184   3.738 -0.0735  0.2578  0.4879
13462TIP3    H161801   4.099   0.104   3.692 -2.6931  0.0542  2.0870
13462TIP3    H261802   4.102   0.254   3.676  0.1174 -0.1576 -0.0585
13463TIP3   OH261803   3.301   3.889   3.667 -0.1149 -0.4663 -0.0476
13463TIP3    H161804   3.322   3.935   3.748  1.8954 -0.6988 -0.3984
13463TIP3    H261805   3.236   3.824   3.693 -1.5477  1.2178  0.8229
13464TIP3   OH261806   6.207   4.163   4.485  0.1290 -0.0560 -0.2456
13464TIP3    H161807   6.179   4.071   4.488  1.4706 -0.4878 -0.2198
13464TIP3    H261808   6.197   4.194   4.575  0.4848 -0.4457 -0.0657
13465TIP3   OH261809   0.079   4.065   2.744  0.1690 -0.7577  0.4074
13465TIP3    H161810  -0.008   4.056   2.706  1.0693 -1.0091 -1.7653
13465TIP3    H261811   0.071   4.137   2.806 -1.0508  0.9216 -1.5591
13466TIP3   OH261812   5.443   5.374  11.625 -0.4476 -0.1505  0.6187
13466TIP3    H161813   5.516   5.341  11.677 -0.5345  0.3624  1.0740
13466TIP3    H261814   5.453   5.331  11.540  0.9138  0.5768  0.3810
13467TIP3   OH261815   0.644   0.222   6.512  0.1263 -0.2761  0.2489
13467TIP3    H161816   0.640   0.130   6.488 -0.4944 -0.0379 -0.6458
13467TIP3    H261817   0.678   0.223   6.601 -0.9429 -1.4527  0.7064
13468TIP3   OH261818   0.447   4.904  12.071  0.0742  0.5443  0.2772
13468TIP3    H161819   0.528   4.954  12.080  1.4783 -1.5519 -0.2120
13468TIP3    H261820   0.473   4.823  12.028 -2.3272 -0.1321 -0.0395
13469TIP3   OH261821   2.234   5.739  14.175  0.2854 -0.1586  0.4037
13469TIP3    H161822   2.316   5.729  14.127  1.3656  2.1216  1.5834
13469TIP3    H261823   2.239   5.827  14.213 -1.8527 -0.6869  2.1492
13470TIP3   OH261824   0.421   4.589   4.927  0.1871  0.0119 -0.0165
13470TIP3    H161825   0.494   4.527   4.923 -0.3560 -0.5892 -0.7533
13470TIP3    H261826   0.343   4.536   4.914 -0.2878  0.8520 -0.6884
13471TIP3   OH261827   5.216   5.722  13.733 -0.1154  0.1698 -0.5887
13471TIP3    H161828   5.144   5.670  13.769 -0.3431  0.7945 -0.1260
13471TIP3    H261829   5.295   5.683  13.769 -0.1829 -0.7639 -1.3998
13472TIP3   OH261830   1.103   5.822  12.146 -0.4419 -0.3138 -0.7402
13472TIP3    H161831   1.054   5.831  12.064  0.1898 -1.1865 -1.2374
13472TIP3    H261832   1.138   5.733  12.143  2.2333  0.6625 -0.9888
13473TIP3   OH261833   2.429   5.760   0.178  0.6252 -0.0003  0.1739
13473TIP3    H161834   2.450   5.683   0.125  0.8160 -0.7816  1.3209
13473TIP3    H261835   2.370   5.812   0.124  0.9170 -0.6961 -0.8385
13474TIP3   OH261836   1.285   6.314  12.894  0.4618 -0.7758  0.0487
13474TIP3    H161837   1.268   6.316  12.800  0.3890 -0.7586  0.0623
13474TIP3    H261838   1.342   6.237  12.907  2.6681  0.7079 -0.3671
13475TIP3   OH261839   5.445   4.902   4.600  0.7454 -0.2133 -0.0612
13475TIP3    H161840   5.386   4.871   4.669  1.2020 -2.2421 -0.5286
13475TIP3    H261841   5.391   4.904   4.521  0.9796 -0.9508 -0.2530
13476TIP3   OH261842   5.531   5.758  12.959  0.3222  0.0126 -0.2184
13476TIP3    H161843   5.582   5.828  12.999  0.3848 -0.4513  0.5495
13476TIP3    H261844   5.483   5.800  12.888 -0.2048  0.9897  0.6806
13477TIP3   OH261845   4.211   5.788  11.554  0.1443  0.2897 -0.5028
13477TIP3    H161846   4.181   5.762  11.641 -1.9974  0.6663 -1.0705
13477TIP3    H261847   4.210   5.707  11.503 -1.1208  0.4911 -0.8250
13478TIP3   OH261848   5.502   2.832   2.772  0.0997 -0.0800 -0.5259
13478TIP3    H161849   5.482   2.739   2.763  0.4436 -0.1614 -0.4713
13478TIP3    H261850   5.533   2.841   2.862  1.6083 -0.2103 -1.0103
13479TIP3   OH261851   2.175   3.404  14.315  0.7297 -0.3531 -0.4486
13479TIP3    H161852   2.131   3.345  14.254 -0.3360 -1.6486  1.4735
13479TIP3    H261853   2.152   3.492  14.284 -1.8284 -0.9703 -0.5331
13480TIP3   OH261854   5.787   1.354  14.791 -0.4072 -0.0108 -0.0780
13480TIP3    H161855   5.867   1.308  14.820  0.1468  1.3918  0.7345
13480TIP3    H261856   5.734   1.286  14.749  1.7338 -0.7536 -1.7642
13481TIP3   OH261857   2.100   3.747  11.565  0.0837 -0.6599  0.6622
13481TIP3    H161858   2.112   3.836  11.533  0.6252 -0.4214  1.5086
13481TIP3    H261859   2.048   3.757  11.645 -0.8665 -1.2102  0.1357
13482TIP3   OH261860   5.155   5.407  13.019  0.0603  0.3355  0.9948
13482TIP3    H161861   5.097   5.376  13.089  0.8159  0.3722  1.6463
13482TIP3    H261862   5.154   5.502  13.028 -2.9509  0.7202 -1.5498
13483TIP3   OH261863   5.327   1.533  12.370 -0.0633 -0.0882 -0.2826
13483TIP3    H161864   5.374   1.577  12.300 -2.0647 -0.1316 -1.7381
13483TIP3    H261865   5.335   1.592  12.445  2.0887 -0.0242 -0.4928
13484TIP3   OH261866   5.678   0.988   1.244  0.2319 -0.2842  0.1748
13484TIP3    H161867   5.740   1.017   1.311  0.4138  0.6560 -0.3858
13484TIP3    H261868   5.657   1.067   1.195  0.3568 -1.0161 -1.0992
13485TIP3   OH261869   5.579   0.163  13.070 -0.1563  0.1580 -0.1363
13485TIP3    H161870   5.515   0.115  13.122 -0.4573 -0.3158 -0.9254
13485TIP3    H261871   5.651   0.101  13.059 -0.1350  0.2253 -0.3655
13486TIP3   OH261872   2.848   1.879   1.977  0.0491 -0.5028 -0.0391
13486TIP3    H161873   2.791   1.901   2.050 -1.6059  1.2949 -1.7408
13486TIP3    H261874   2.828   1.787   1.958  0.4781 -0.9861  1.6743
13487TIP3   OH261875   1.056   6.451  14.529  0.2939  0.2400  0.7151
13487TIP3    H161876   1.136   6.501  14.547  1.5325 -1.4744  0.1837
13487TIP3    H261877   1.002   6.463  14.607  0.6872  2.0764  0.7614
13488TIP3   OH261878   0.309   2.674  14.972 -0.1660 -0.1208 -0.3325
13488TIP3    H161879   0.304   2.681  14.876  1.4524 -1.7844 -0.5988
13488TIP3    H261880   0.293   2.763  15.003  1.5280  0.9714 -2.2916
13489TIP3   OH261881   0.877   1.609   2.807 -0.2174  0.4096  0.0850
13489TIP3    H161882   0.922   1.580   2.727 -0.8266  1.2247 -0.5673
13489TIP3    H261883   0.948   1.641   2.863  0.6714 -3.2158  1.3322
13490TIP3   OH261884   3.558   6.564  16.901 -0.0852 -0.6418  0.9070
13490TIP3    H161885   3.558   6.546  16.995 -0.0770  0.1465  1.0688
13490TIP3    H261886   3.488   6.510  16.865 -0.9677  0.0431  1.5693
13491TIP3   OH261887   0.163   3.527  12.614  0.5130  0.2724  0.1774
13491TIP3    H161888   0.115   3.592  12.563 -0.1276 -1.2125 -1.2148
13491TIP3    H261889   0.103   3.453  12.622  1.4839 -0.4555  1.0411
13492TIP3   OH261890   4.753   4.522  14.211  0.6761  0.0095 -0.6046
13492TIP3    H161891   4.727   4.612  14.193  0.4509 -0.1104 -0.8798
13492TIP3    H261892   4.714   4.502  14.296  3.5802  1.3285  1.2198
13493TIP3   OH261893   3.267   5.076   3.225 -0.1165  0.1141 -0.1261
13493TIP3    H161894   3.252   5.075   3.131 -2.2945 -1.0229  0.1714
13493TIP3    H261895   3.362   5.072   3.234  0.1109 -0.5247 -2.2758
13494TIP3   OH261896   5.525   2.841  11.511  0.0618  0.0341  0.6123
13494TIP3    H161897   5.479   2.923  11.530  1.2003  0.8168  0.1078
13494TIP3    H261898   5.488   2.811  11.428 -0.7470 -0.2690  1.0716
13495TIP3   OH261899   4.835   3.516   0.665 -0.1520  0.1759 -0.4843
13495TIP3    H161900   4.873   3.441   0.619 -0.6009 -0.5505  0.3061
13495TIP3    H261901   4.908   3.577   0.676  0.2680 -0.2365 -0.9470
13496TIP3   OH261902   2.611   1.732   3.204 -0.3141  0.0916 -0.0140
13496TIP3    H161903   2.673   1.662   3.223 -1.6827 -0.7490  1.6621
13496TIP3    H261904   2.655   1.812   3.235  0.9510 -0.0862 -1.2600
13497TIP3   OH261905   2.412   6.274   3.183  0.2430 -0.3994  1.0486
13497TIP3    H161906   2.450   6.289   3.096  2.4319 -0.5670  1.9311
13497TIP3    H261907   2.320   6.252   3.165  0.6442 -0.4769 -1.2146
13498TIP3   OH261908   6.708   4.897   5.268 -0.1056  0.3384 -0.5142
13498TIP3    H161909   6.769   4.853   5.327  0.5092  0.4922 -1.0140
13498TIP3    H261910   6.743   4.879   5.180 -0.2046  1.2696 -0.7597
13499TIP3   OH261911   6.577   6.029   4.799 -0.1318  0.1550  0.1949
13499TIP3    H161912   6.513   6.053   4.866 -1.4320  2.8931 -1.8361
13499TIP3    H261913   6.656   6.079   4.821  0.3748 -0.9737  1.0630
13500TIP3   OH261914   1.879   2.098   1.215  0.3085 -0.1501  0.5936
13500TIP3    H161915   1.836   2.068   1.295  0.1357 -1.3732  0.0694
13500TIP3    H261916   1.945   2.031   1.196  0.1497 -0.0447 -0.4246
13501TIP3   OH261917   2.344   1.432   3.093 -0.0998 -0.0379  0.4242
13501TIP3    H161918   2.432   1.398   3.111 -0.1454 -0.1771  0.3908
13501TIP3    H261919   2.354   1.482   3.012  0.4031  1.7996  1.5785
13502TIP3   OH261920   3.746   3.759   5.207 -0.1229  0.1012 -0.1391
13502TIP3    H161921   3.733   3.780   5.114  2.5049  0.3034 -0.5312
13502TIP3    H261922   3.840   3.746   5.216 -0.4084 -0.7707  2.3561
13503TIP3   OH261923   3.309   2.095  13.541 -0.5533  0.3134  0.3945
13503TIP3    H161924   3.396   2.060  13.561 -1.6209 -3.0996 -0.2486
13503TIP3    H261925   3.287   2.148  13.618  0.6539 -1.8078  2.3547
13504TIP3   OH261926   6.073   6.599  14.717  0.3005 -0.1211  0.2236
13504TIP3    H161927   6.057   6.630  14.806 -1.2831  1.6172 -0.6071
13504TIP3    H261928   5.991   6.557  14.692  1.5349 -2.8786  0.3734
13505TIP3   OH261929   4.248   5.253  12.026 -0.1088  0.7326  0.1775
13505TIP3    H161930   4.194   5.251  12.105  0.3921  1.0087  0.5306
13505TIP3    H261931   4.194   5.300  11.962 -0.7240  0.0570  0.1908
13506TIP3   OH261932   6.180   0.463  12.385  0.1121 -0.3660 -0.5782
13506TIP3    H161933   6.157   0.391  12.445  0.2201 -2.3940 -2.8173
13506TIP3    H261934   6.275   0.461  12.381  0.0689 -2.1959 -2.8791
13507TIP3   OH261935   4.667   0.146  13.567  0.0377  0.5426  0.6728
13507TIP3    H161936   4.750   0.194  13.565  0.5560 -0.3578 -0.7323
13507TIP3    H261937   4.613   0.189  13.501  0.1482 -0.1666  0.1098
13508TIP3   OH261938   3.901   6.452  14.374  0.6552  0.2920 -0.3615
13508TIP3    H161939   3.807   6.459  14.391  0.4571  1.6657 -1.7292
13508TIP3    H261940   3.914   6.362  14.345 -0.2022  0.0193  0.0807
13509TIP3   OH261941   1.477   0.604  16.043 -0.3130  0.2988  0.0203
13509TIP3    H161942   1.464   0.643  15.956 -0.1507  0.7109  0.1776
13509TIP3    H261943   1.517   0.674  16.095  1.1145 -0.4453 -0.0138
13510TIP3   OH261944   5.756   4.266  15.056  0.1139  0.2822  0.2952
13510TIP3    H161945   5.729   4.355  15.033 -0.7034  0.3578  1.4576
13510TIP3    H261946   5.777   4.270  15.149  2.4192 -0.2165 -0.1294
13511TIP3   OH261947   3.869   1.737  14.154 -0.3498 -0.1552 -0.3202
13511TIP3    H161948   3.794   1.781  14.195  0.6118 -0.2140  1.5844
13511TIP3    H261949   3.938   1.740  14.220  1.1364 -0.7053 -1.7791
13512TIP3   OH261950   1.413   5.374   4.923  0.1757  0.2433 -0.2918
13512TIP3    H161951   1.359   5.442   4.962 -0.9242 -0.0212 -1.3072
13512TIP3    H261952   1.418   5.306   4.989  0.5614  0.9164  0.3937
13513TIP3   OH261953   0.596   4.943   5.806  0.3735 -0.6893  0.1900
13513TIP3    H161954   0.516   4.949   5.859  0.3314 -0.9399  0.1584
13513TIP3    H261955   0.641   4.866   5.840 -0.3708 -1.7491 -1.0911
13514TIP3   OH261956   0.448   6.211   6.028 -0.2830 -0.5623 -0.3756
13514TIP3    H161957   0.476   6.279   6.089  0.3576 -1.1222 -0.0254
13514TIP3    H261958   0.365   6.243   5.993  1.2470  1.6396 -2.2435
13515TIP3   OH261959   3.935   0.042   2.938  0.6372  0.0961  0.3110
13515TIP3    H161960   3.978   0.063   2.855 -2.6429 -0.7846 -1.8098
13515TIP3    H261961   3.924  -0.053   2.936 -1.3373  0.2750  0.7183
13516TIP3   OH261962   4.802   5.640  11.785  0.0780 -0.0043 -0.3448
13516TIP3    H161963   4.794   5.545  11.782 -0.5661  0.0167  0.4189
13516TIP3    H261964   4.876   5.656  11.843  1.0554 -0.0500 -1.5388
13517TIP3   OH261965   1.513   0.058  12.699 -0.0288 -0.4533 -0.1390
13517TIP3    H161966   1.510   0.014  12.784 -2.4868  1.4634  0.9124
13517TIP3    H261967   1.503  -0.012  12.635 -0.7615 -1.7229  1.3023
13518TIP3   OH261968   2.407   3.174   0.961  0.1896 -0.0208 -0.2608
13518TIP3    H161969   2.439   3.096   1.006 -0.8242 -0.2294  0.1384
13518TIP3    H261970   2.376   3.142   0.876 -0.1434 -0.0497 -0.1322
13519TIP3   OH261971   5.960   5.040  13.837 -0.2545 -0.0313 -0.0151
13519TIP3    H161972   6.021   5.009  13.903 -1.3669 -0.5038  0.8215
13519TIP3    H261973   5.901   4.966  13.822 -0.5067  0.3413 -0.9570
13520TIP3   OH261974   0.095   6.128  13.404  0.3939 -0.5184  0.0266
13520TIP3    H161975   0.068   6.067  13.473  1.1205  1.5680  2.2679
13520TIP3    H261976   0.133   6.071  13.337  1.4727 -2.5453  2.1977
13521TIP3   OH261977   5.261   5.348  15.014 -0.5071 -0.1137  0.0279
13521TIP3    H161978   5.206   5.366  14.937  0.8686 -0.4050 -1.0616
13521TIP3    H261979   5.233   5.412  15.079 -2.0998 -0.2301 -0.5075
13522TIP3   OH261980   2.034   4.855  12.239 -0.1597  0.5479 -0.3269
13522TIP3    H161981   2.065   4.804  12.314  1.1232 -2.9385 -2.9460
13522TIP3    H261982   2.096   4.927  12.231  2.0088 -1.1998 -0.1831
13523TIP3   OH261983   6.251   5.927  11.885  0.0860  0.2462 -0.4229
13523TIP3    H161984   6.308   5.987  11.838 -0.0522  0.5518 -0.2068
13523TIP3    H261985   6.259   5.953  11.977 -2.3258  2.0170 -0.5964
13524TIP3   OH261986   4.677   4.688   6.390  0.0297  0.1579  0.2273
13524TIP3    H161987   4.706   4.770   6.351  0.6633  0.1153  0.5966
13524TIP3    H261988   4.582   4.697   6.398  0.1844  1.2576  1.1600
13525TIP3   OH261989   6.047   0.633   2.042  1.1212 -0.2116 -0.6550
13525TIP3    H161990   6.141   0.643   2.029  1.2578  1.4121  1.0892
13525TIP3    H261991   6.039   0.562   2.106  1.3591  1.1975  1.0005
13526TIP3   OH261992   6.687   6.378   3.088  0.2257  0.2830 -0.0531
13526TIP3    H161993   6.657   6.416   3.006  1.6110 -0.3010 -0.8620
13526TIP3    H261994   6.642   6.429   3.156  0.0395  1.6173 -1.1322
13527TIP3   OH261995   1.622   2.466  10.753 -0.2440  0.2271 -0.4574
13527TIP3    H161996   1.686   2.495  10.688  0.7626  0.4297  0.5934
13527TIP3    H261997   1.537   2.481  10.711  0.3495  1.3661 -1.3186
13528TIP3   OH261998   6.572   5.599  14.160  0.8753 -0.1734  0.2800
13528TIP3    H161999   6.588   5.607  14.066  1.1342  1.2405  0.4302
13528TIP3    H262000   6.521   5.518  14.169 -0.9150  0.7010 -1.2951
13529TIP3   OH262001   6.058   3.423  14.621  0.0949 -0.0323 -0.3426
13529TIP3    H162002   6.042   3.332  14.644 -1.3755 -0.1617 -1.6942
13529TIP3    H262003   6.033   3.429  14.529  0.2782  1.7177 -0.3098
13530TIP3   OH262004   3.228   1.294   3.640 -0.3623  0.1928 -0.5089
13530TIP3    H162005   3.183   1.376   3.621  0.3782  0.4567 -1.1612
13530TIP3    H262006   3.243   1.297   3.735  0.0319  1.0077 -0.5868
13531TIP3   OH262007   3.931   2.930   6.339  0.2832  0.0189 -0.1560
13531TIP3    H162008   3.866   2.873   6.298 -1.1817  1.1702  0.4614
13531TIP3    H262009   3.996   2.871   6.375  0.6478 -1.1068 -2.5091
13532TIP3   OH262010   1.922   1.260   4.999 -0.0454  0.2358 -0.4869
13532TIP3    H162011   1.853   1.324   5.016  1.3702  1.5667  0.4340
13532TIP3    H262012   1.904   1.189   5.061 -0.6004  0.5346 -0.2930
13533TIP3   OH262013   6.132   3.342  14.016  0.2466  0.0403  0.1684
13533TIP3    H162014   6.183   3.414  14.052  0.6444  0.5240 -1.3102
13533TIP3    H262015   6.182   3.264  14.038 -0.2521  0.1635  1.8872
13534TIP3   OH262016   1.045   5.564   1.862 -0.0445 -0.0284 -0.3715
13534TIP3    H162017   1.013   5.512   1.788  0.3935  1.4950 -1.6680
13534TIP3    H262018   1.127   5.602   1.831 -0.9803  2.4666  0.0398
13535TIP3   OH262019   6.281   0.491   0.072  0.0758  0.6052 -0.3497
13535TIP3    H162020   6.275   0.465   0.164 -0.6001  0.2946 -0.4720
13535TIP3    H262021   6.192   0.478   0.038  0.3184  0.7244 -1.0443
13536TIP3   OH262022   3.205   4.224  15.302  0.3043  0.2181  0.5373
13536TIP3    H162023   3.207   4.315  15.331  0.9580  0.7549 -1.0725
13536TIP3    H262024   3.116   4.194  15.321 -0.2017  1.4814  0.2520
13537TIP3   OH262025   6.253   4.089   3.647  0.3956  0.5689  0.3814
13537TIP3    H162026   6.257   4.103   3.552  0.6808 -2.1160 -0.0998
13537TIP3    H262027   6.162   4.066   3.664  0.5803 -0.1181  0.5058
13538TIP3   OH262028   6.123   4.214  11.257 -0.0878 -0.1277  0.4831
13538TIP3    H162029   6.095   4.246  11.171 -0.4025  0.0203  0.6382
13538TIP3    H262030   6.119   4.292  11.314  3.7811  0.7684 -0.1667
13539TIP3   OH262031   6.003   4.985   1.994  0.1388 -0.4094 -0.4877
13539TIP3    H162032   5.998   4.990   1.898 -1.3959  2.4956 -0.3632
13539TIP3    H262033   5.922   4.940   2.020 -0.3254  0.4094 -0.4997
13540TIP3   OH262034   5.825   3.613   5.664 -0.1289 -0.4537  0.3799
13540TIP3    H162035   5.740   3.640   5.629  0.0947 -0.6003 -0.2969
13540TIP3    H262036   5.826   3.647   5.753 -1.9415 -2.6050  1.3268
13541TIP3   OH262037   2.563   4.211  12.449 -0.0210  0.1578  0.1627
13541TIP3    H162038   2.481   4.258  12.463 -0.3451 -0.6299  0.9687
13541TIP3    H262039   2.616   4.230  12.526  0.0634 -0.3311  0.2316
13542TIP3   OH262040   0.063   2.725   3.028 -0.1102  0.4289 -0.1886
13542TIP3    H162041   0.013   2.647   3.003  1.2047 -1.0166  1.4889
13542TIP3    H262042   0.011   2.765   3.098 -0.7539  1.0872 -1.0086
13543TIP3   OH262043   6.069   1.597   2.407 -0.1475  0.1539  0.1418
13543TIP3    H162044   6.121   1.631   2.481  2.4614 -1.1888 -0.9564
13543TIP3    H262045   6.086   1.659   2.336 -2.1440  1.0866  0.4117
13544TIP3   OH262046   4.687   3.890   3.900 -0.1171 -0.1610  0.3555
13544TIP3    H162047   4.668   3.980   3.872  0.0069 -0.0960  0.4806
13544TIP3    H262048   4.601   3.853   3.919 -0.2775 -0.4714 -0.8955
13545TIP3   OH262049   5.842   1.860   4.706 -0.2057 -0.2083 -0.1590
13545TIP3    H162050   5.822   1.937   4.759  1.8732 -0.3992  1.0237
13545TIP3    H262051   5.880   1.896   4.626 -1.4981  0.0264 -0.6897
13546TIP3   OH262052   5.035   1.871  14.339 -0.1059 -0.6154 -0.3206
13546TIP3    H162053   4.970   1.936  14.313 -0.1998 -0.6565 -0.1883
13546TIP3    H262054   4.985   1.805  14.387  0.4432  0.8270  2.4472
13547TIP3   OH262055   0.596   0.194  15.781  0.4792  0.6126  0.2276
13547TIP3    H162056   0.602   0.253  15.706  1.4234 -0.3028 -0.4514
13547TIP3    H262057   0.617   0.108  15.745  0.8852  0.1451  1.5323
13548TIP3   OH262058   4.123   5.510  15.636  0.0413 -0.7709  0.1441
13548TIP3    H162059   4.178   5.472  15.705  0.3373  0.6802  0.7326
13548TIP3    H262060   4.170   5.491  15.555  0.0476 -1.8681  0.3824
13549TIP3   OH262061   3.180   5.518  11.097  0.4545  0.5923  0.0346
13549TIP3    H162062   3.202   5.443  11.152  0.8738  1.6719  1.4054
13549TIP3    H262063   3.097   5.494  11.055  0.5095 -0.5668  0.5588
13550TIP3   OH262064   2.968   5.541   0.110 -0.2692 -0.2045 -0.1650
13550TIP3    H162065   2.904   5.528   0.180 -1.6012  2.4346 -0.7736
13550TIP3    H262066   2.968   5.458   0.062 -2.2846 -0.7179  0.6260
13551TIP3   OH262067   3.580   3.600   6.078 -0.0898  0.2836 -0.0425
13551TIP3    H162068   3.548   3.685   6.108 -0.9701  0.4602 -1.3856
13551TIP3    H262069   3.638   3.621   6.005  0.0853 -0.2471 -0.0562
13552TIP3   OH262070   5.413   0.251  16.717  0.2374  0.0972 -0.0484
13552TIP3    H162071   5.492   0.208  16.685 -1.1365 -2.7391  0.0476
13552TIP3    H262072   5.354   0.179  16.741 -1.2518  2.0480  2.8052
13553TIP3   OH262073   3.472   6.478   1.811 -0.2866  0.9986 -0.1233
13553TIP3    H162074   3.495   6.553   1.865  0.3724  0.7386 -0.0419
13553TIP3    H262075   3.376   6.481   1.806 -0.4447  0.6084  1.6889
13554TIP3   OH262076   0.539   2.008  12.389  0.5112  0.5579 -0.6785
13554TIP3    H162077   0.564   2.078  12.329  2.5037  1.1583  0.7569
13554TIP3    H262078   0.539   2.050  12.476  1.6967 -1.1612  0.2068
13555TIP3   OH262079   2.072   5.012  14.943 -0.1523 -0.5268  0.0779
13555TIP3    H162080   2.057   5.104  14.919  0.9567 -0.3562 -0.0551
13555TIP3    H262081   2.145   5.016  15.005 -1.2547 -1.1923  1.4680
13556TIP3   OH262082   0.751   0.886   1.459 -0.2491 -0.1688  0.0638
13556TIP3    H162083   0.827   0.935   1.430 -1.0809  0.0057 -1.9778
13556TIP3    H262084   0.751   0.896   1.554  2.2202 -0.1522  0.1068
13557TIP3   OH262085   2.141   5.875  15.727  0.0890  0.2876 -0.2548
13557TIP3    H162086   2.059   5.904  15.768  0.2425  1.5278 -0.8118
13557TIP3    H262087   2.166   5.945  15.668  1.5000 -0.1287 -0.2044
13558TIP3   OH262088   0.880   1.765   2.334 -0.2861 -0.1859  0.1116
13558TIP3    H162089   0.963   1.732   2.300  0.3681 -0.0480  1.5037
13558TIP3    H262090   0.899   1.790   2.425 -1.3703  1.7083 -0.1405
13559TIP3   OH262091   4.481   3.429  14.343 -0.1395 -0.0973 -0.0178
13559TIP3    H162092   4.554   3.405  14.286 -0.0489 -0.1074  0.1026
13559TIP3    H262093   4.448   3.511  14.307  0.3211  0.2292  0.2922
13560TIP3   OH262094   5.396   4.784  10.571  0.1238 -0.2125 -0.2992
13560TIP3    H162095   5.358   4.785  10.483  0.4880  0.5099 -0.4621
13560TIP3    H262096   5.460   4.713  10.569 -1.1087 -1.3718 -0.0511
13561TIP3   OH262097   2.011   3.493  16.979 -0.5549  0.0232  0.4982
13561TIP3    H162098   2.031   3.423  16.917  1.6095  1.8271 -1.0566
13561TIP3    H262099   1.951   3.551  16.931 -0.4615  0.3987  0.8278
13562TIP3   OH262100   5.369   6.188   0.345  0.2875  0.1197 -0.2931
13562TIP3    H162101   5.342   6.243   0.418  0.2475 -0.1119 -0.1336
13562TIP3    H262102   5.447   6.143   0.376  1.0374  1.0065 -0.8540
13563TIP3   OH262103   2.741   5.713   0.073 -0.1520  0.4500  0.0903
13563TIP3    H162104   2.707   5.637   0.121  0.6896  0.5275  0.8292
13563TIP3    H262105   2.836   5.702   0.073  0.1230  2.3211  1.6646
13564TIP3   OH262106   3.574   1.832   2.546  0.0186 -0.0802  0.3276
13564TIP3    H162107   3.572   1.876   2.461 -0.8830  0.0318  0.3983
13564TIP3    H262108   3.617   1.748   2.528  2.7214  1.1990  0.3988
13565TIP3   OH262109   0.996   1.564  13.837  0.3804 -0.3258 -0.0265
13565TIP3    H162110   1.070   1.514  13.871  0.5095  1.0745  1.8892
13565TIP3    H262111   0.941   1.580  13.913  0.2537  2.2402 -0.5648
13566TIP3   OH262112   0.270   1.569   0.480 -0.4158  0.1125  0.1560
13566TIP3    H162113   0.352   1.596   0.521  0.6325  1.2091 -2.4008
13566TIP3    H262114   0.267   1.474   0.491  0.5618  0.2004  1.3825
13567TIP3   OH262115   2.938   5.680  13.838  0.1528 -0.1357 -0.1998
13567TIP3    H162116   3.022   5.645  13.866 -0.1826 -1.1328 -0.3817
13567TIP3    H262117   2.873   5.635  13.893 -0.2765  0.5522 -0.1192
13568TIP3   OH262118   3.838   0.449  14.305 -0.5168  0.2463 -0.6240
13568TIP3    H162119   3.852   0.373  14.248 -0.9446  1.0920 -1.9026
13568TIP3    H262120   3.849   0.524  14.247  0.2107  1.1807  0.6917
13569TIP3   OH262121   0.840   5.934   4.784  0.8296 -0.0812  0.2223
13569TIP3    H162122   0.867   5.886   4.706  3.6060  0.0034  1.0303
13569TIP3    H262123   0.922   5.962   4.825 -0.5781  1.4037  2.2372
13570TIP3   OH262124   0.435   6.708   1.948 -0.3785  0.3728 -0.0148
13570TIP3    H162125   0.509   6.767   1.936 -1.2816  1.3532 -1.1138
13570TIP3    H262126   0.386   6.746   2.022  0.3362 -0.4357  0.8976
13571TIP3   OH262127   1.184   6.192   1.401  0.0593 -0.0105 -0.4043
13571TIP3    H162128   1.193   6.115   1.344  1.0016  0.4677 -0.9353
13571TIP3    H262129   1.239   6.171   1.477  0.7443  0.3399 -0.7910
13572TIP3   OH262130   2.956   5.328   5.845 -0.6058  0.1088 -0.1224
13572TIP3    H162131   2.958   5.234   5.865 -0.4242 -0.0771 -0.9898
13572TIP3    H262132   2.954   5.370   5.931 -0.3140 -0.6792  0.2851
13573TIP3   OH262133   0.802   4.502  14.057  0.2280 -0.1306  0.1764
13573TIP3    H162134   0.818   4.460  13.972 -1.6215 -1.6620  0.5150
13573TIP3    H262135   0.729   4.561  14.042  0.4251  0.2109  0.5307
13574TIP3   OH262136   1.780   0.161   1.913 -0.0739 -0.5875  0.5903
13574TIP3    H162137   1.695   0.174   1.871 -0.7274 -2.2160  1.3437
13574TIP3    H262138   1.836   0.126   1.844  0.1139  0.8225 -0.0009
13575TIP3   OH262139   4.219   6.578   1.783  0.3122  0.4833  0.2805
13575TIP3    H162140   4.272   6.549   1.857 -1.5487 -0.9939  1.1374
13575TIP3    H262141   4.156   6.639   1.820  0.1191  0.6679 -0.3279
13576TIP3   OH262142   6.456   1.188   0.304  0.0093 -0.0538 -0.2546
13576TIP3    H162143   6.383   1.205   0.362 -0.9564  2.3504 -1.9631
13576TIP3    H262144   6.532   1.227   0.348 -0.9759  3.1042 -1.0889
13577TIP3   OH262145   0.095   4.564   3.194 -0.8360  0.0526 -0.3375
13577TIP3    H162146   0.171   4.516   3.223 -1.8218 -0.5052  1.4699
13577TIP3    H262147   0.053   4.507   3.130  0.4204  0.5327 -1.6432
13578TIP3   OH262148   1.814   0.980   2.882 -0.0803 -0.3865  0.2325
13578TIP3    H162149   1.872   0.905   2.868  1.2143  0.8938 -1.9379
13578TIP3    H262150   1.855   1.028   2.954  0.6939 -0.3586 -0.2043
13579TIP3   OH262151   2.090   3.071  16.629 -0.3151  0.0851  0.6248
13579TIP3    H162152   2.035   3.075  16.550 -0.3249  0.5451  0.6566
13579TIP3    H262153   2.078   2.982  16.661  0.0733 -0.2690 -0.1717
13580TIP3   OH262154   0.172   5.582   0.325 -0.5563  0.2432  0.4029
13580TIP3    H162155   0.206   5.668   0.299  2.8934 -0.5578  1.6647
13580TIP3    H262156   0.241   5.545   0.381 -2.9401 -2.4044  1.8488
13581TIP3   OH262157   3.109   0.897  13.398 -0.4602  0.0302 -0.3854
13581TIP3    H162158   3.145   0.870  13.482 -1.3574 -0.1447 -0.0468
13581TIP3    H262159   3.071   0.817  13.361 -0.6727  0.2484 -0.6453
13582TIP3   OH262160   1.632   5.902  11.884 -0.2346  0.2967 -0.2172
13582TIP3    H162161   1.666   5.815  11.864  0.6075  0.5118  0.2320
13582TIP3    H262162   1.701   5.962  11.855  0.1730  0.7077  1.4970
13583TIP3   OH262163   2.008   2.034  15.781 -0.2344 -0.3154 -0.5024
13583TIP3    H162164   1.988   2.065  15.870  2.1743 -0.9211  0.3396
13583TIP3    H262165   1.960   2.094  15.724  0.8597  2.3849  1.1529
13584TIP3   OH262166   6.308   3.466   1.536  0.2359 -0.0540  0.1074
13584TIP3    H162167   6.245   3.489   1.605  1.3984 -0.7801  1.4783
13584TIP3    H262168   6.394   3.479   1.577  1.0015 -3.7106  0.0097
13585TIP3   OH262169   2.177   1.457  11.372 -0.2486  0.4256  0.1776
13585TIP3    H162170   2.147   1.392  11.435 -1.5778  0.5529 -0.2979
13585TIP3    H262171   2.192   1.406  11.291  1.9523  0.1685  0.6823
13586TIP3   OH262172   5.576   1.748  14.365 -0.6551  0.1916 -0.1758
13586TIP3    H162173   5.601   1.705  14.447 -0.3795  0.2244 -0.2429
13586TIP3    H262174   5.488   1.715  14.348 -0.0809 -1.1289 -0.7378
13587TIP3   OH262175   4.344   0.533   3.401 -0.5262 -0.3718  0.2115
13587TIP3    H162176   4.347   0.471   3.328 -0.0952  0.0430 -0.1270
13587TIP3    H262177   4.272   0.502   3.455 -1.5084 -0.1138 -0.9071
13588TIP3   OH262178   3.978   1.096   0.239  0.3292  0.4745 -0.3925
13588TIP3    H162179   3.913   1.166   0.247 -0.5730 -0.4480  0.5785
13588TIP3    H262180   4.007   1.079   0.328  1.5958  0.5549 -0.7652
13589TIP3   OH262181   2.062   0.163   3.542  0.3667 -0.2843 -0.1560
13589TIP3    H162182   2.087   0.102   3.473 -0.4437  0.7056 -1.3512
13589TIP3    H262183   1.989   0.120   3.586 -0.1359 -0.2341 -0.9267
13590TIP3   OH262184   5.214   0.975   5.143 -0.3978 -0.3595 -0.1230
13590TIP3    H162185   5.280   0.949   5.078 -0.3261 -2.6770  0.8103
13590TIP3    H262186   5.132   0.939   5.110 -0.5271 -0.7336  0.5922
13591TIP3   OH262187   3.289   4.778  12.311 -0.3764 -0.0053  1.0036
13591TIP3    H162188   3.297   4.799  12.404 -0.4112  4.1683  0.2425
13591TIP3    H262189   3.195   4.781  12.293 -0.2644  3.6069  0.1999
13592TIP3   OH262190   1.069   6.677  10.961  0.2372 -0.2428  0.1660
13592TIP3    H162191   1.070   6.734  11.038 -0.5822 -0.7665  0.5845
13592TIP3    H262192   0.984   6.633  10.966  0.1719 -0.2775 -1.0461
13593TIP3   OH262193   3.431   0.473  14.938 -0.0022  0.4193  0.4007
13593TIP3    H162194   3.496   0.404  14.949 -0.3560 -0.0701 -0.4551
13593TIP3    H262195   3.359   0.446  14.995 -0.0784  0.1491  0.1829
13594TIP3   OH262196   3.975   4.476  11.777  0.3512  0.0523  0.6494
13594TIP3    H162197   3.902   4.502  11.721  0.1041 -0.6042  0.6604
13594TIP3    H262198   4.051   4.521  11.739  0.2864 -0.8386 -0.5751
13595TIP3   OH262199   4.481   3.372  15.611  0.2982  0.0478  0.5993
13595TIP3    H162200   4.399   3.327  15.630 -0.3513  1.0455  0.2569
13595TIP3    H262201   4.511   3.405  15.696 -0.6177  1.2286  0.4930
13596TIP3   OH262202   6.206   5.210  14.039 -0.1424  0.2365 -0.3154
13596TIP3    H162203   6.157   5.137  14.077 -0.8659  1.1875  0.6290
13596TIP3    H262204   6.144   5.252  13.979 -0.8105  1.8686  1.4004
13597TIP3   OH262205   2.024   0.660  12.831  0.7165 -0.6446  0.5326
13597TIP3    H162206   2.021   0.726  12.762  0.4753 -0.9658  0.2357
13597TIP3    H262207   1.967   0.695  12.899 -0.6080 -1.2383 -0.2443
13598TIP3   OH262208   4.841   5.460  16.468  0.3300  0.1252  0.1854
13598TIP3    H162209   4.768   5.498  16.517  0.2466  1.9087 -1.1792
13598TIP3    H262210   4.889   5.408  16.532 -2.2425 -1.3204  1.0767
13599TIP3   OH262211   1.766   1.672  13.548  0.0880  0.4099  0.2297
13599TIP3    H162212   1.849   1.658  13.503  1.0706  1.9957  1.4449
13599TIP3    H262213   1.713   1.722  13.486  0.7738  1.0601  0.1488
13600TIP3   OH262214   5.503   6.160  15.324 -0.4393  0.4655  0.5317
13600TIP3    H162215   5.426   6.104  15.321 -0.9068  1.1313 -2.3861
13600TIP3    H262216   5.576   6.099  15.334 -1.1279 -0.4052  0.4338
13601TIP3   OH262217   5.107   0.205  11.310 -0.3934 -0.5521 -0.2296
13601TIP3    H162218   5.121   0.299  11.324  1.7654 -0.8258 -0.3221
13601TIP3    H262219   5.139   0.188  11.222  0.8547 -1.6579  0.3994
13602TIP3   OH262220   5.380   1.683   4.890  0.4352  0.4999  0.6136
13602TIP3    H162221   5.336   1.633   4.822  1.3415  1.3602 -0.6507
13602TIP3    H262222   5.313   1.698   4.957 -0.6895  0.2753 -0.4394
13603TIP3   OH262223   1.498   6.419   0.257 -0.0212  0.0335 -0.0319
13603TIP3    H162224   1.403   6.432   0.251 -0.0323  0.2987  0.5909
13603TIP3    H262225   1.526   6.399   0.168 -0.6942 -0.2601 -0.1833
13604TIP3   OH262226   2.314   2.880   6.239 -0.5433  0.7804 -0.1733
13604TIP3    H162227   2.291   2.952   6.181  0.9049  1.0205 -0.4756
13604TIP3    H262228   2.372   2.824   6.188 -1.5868 -0.6066  0.0711
13605TIP3   OH262229   6.564   1.628  14.321 -0.4819  0.7499 -0.0871
13605TIP3    H162230   6.475   1.655  14.298 -0.0482  2.0101 -0.3494
13605TIP3    H262231   6.620   1.693  14.279  0.6031 -0.3490 -0.4144
13606TIP3   OH262232   4.115   5.640   6.172  0.0301 -0.3623 -0.2686
13606TIP3    H162233   4.087   5.549   6.181 -0.2485 -0.1352  1.3633
13606TIP3    H262234   4.177   5.653   6.244 -0.8420  1.0629  0.2522
13607TIP3   OH262235   1.794   5.045   3.308  0.1090  0.0742  0.2885
13607TIP3    H162236   1.720   4.996   3.343 -0.2874 -0.1758 -0.8401
13607TIP3    H262237   1.798   5.125   3.360  1.2858 -1.4873  2.7581
13608TIP3   OH262238   0.235   0.147   3.858 -0.1479 -0.0176  0.3373
13608TIP3    H162239   0.266   0.229   3.820 -1.0238 -0.8028 -2.2903
13608TIP3    H262240   0.162   0.173   3.914  0.6396  1.1282  0.8831
13609TIP3   OH262241   1.883   0.898   4.730 -0.1204  0.0995  0.2007
13609TIP3    H162242   1.915   0.810   4.709  1.3878  0.6112  0.2954
13609TIP3    H262243   1.925   0.920   4.813  1.0204  1.6555 -0.7542
13610TIP3   OH262244   6.217   2.147   3.121 -0.4873 -1.4176 -0.3198
13610TIP3    H162245   6.222   2.127   3.028  1.7189 -0.8384 -0.3953
13610TIP3    H262246   6.263   2.075   3.163  1.2185 -0.2032  0.0122
13611TIP3   OH262247   6.432   6.762   2.964  0.5702 -0.2282  0.6023
13611TIP3    H162248   6.427   6.746   2.870  0.6293 -2.4008  0.9052
13611TIP3    H262249   6.341   6.771   2.992  0.4998 -0.5008  0.4653
13612TIP3   OH262250   1.345   0.583  14.622  0.3025 -0.3009  0.9271
13612TIP3    H162251   1.299   0.635  14.556 -1.8163 -1.1786  1.6207
13612TIP3    H262252   1.351   0.641  14.698 -0.1093 -0.3368  0.9894
13613TIP3   OH262253   2.366   0.517   1.630 -0.7900 -0.0379 -0.3578
13613TIP3    H162254   2.344   0.477   1.714 -1.2341  0.7367 -0.0926
13613TIP3    H262255   2.441   0.574   1.650  1.0708 -2.0626 -1.0956
13614TIP3   OH262256   1.430   6.428  10.872 -0.1268 -0.0872 -0.0524
13614TIP3    H162257   1.491   6.359  10.849 -0.5174 -0.2963 -0.4869
13614TIP3    H262258   1.374   6.438  10.794 -0.9091 -0.1980  0.4811
13615TIP3   OH262259   0.719   4.834  15.207  0.2485  0.2396  0.2329
13615TIP3    H162260   0.702   4.889  15.283  1.1698  1.5595 -0.4806
13615TIP3    H262261   0.653   4.765  15.212  0.2524  0.3240  2.1831
13616TIP3   OH262262   5.609   6.097   2.626 -0.3935  0.5072 -0.1094
13616TIP3    H162263   5.666   6.166   2.593 -0.3943  0.2578 -0.6413
13616TIP3    H262264   5.654   6.016   2.605 -1.4058  0.2630 -1.4870
13617TIP3   OH262265   2.735   2.807  16.204  0.5583  0.0246  0.2376
13617TIP3    H162266   2.744   2.823  16.298 -1.1465 -0.6263  0.5584
13617TIP3    H262267   2.647   2.839  16.183  0.4934 -0.8356 -0.9001
13618TIP3   OH262268   0.831   6.734  11.925 -0.5572 -0.7568  0.1767
13618TIP3    H162269   0.871   6.655  11.960  1.1537 -0.4443 -0.9664
13618TIP3    H262270   0.761   6.703  11.868 -0.9117 -1.3646  0.9262
13619TIP3   OH262271   1.388   1.424   0.269 -0.4281  0.7928  0.6681
13619TIP3    H162272   1.427   1.468   0.345 -0.7239  0.7483  0.8466
13619TIP3    H262273   1.410   1.331   0.282  1.6365  1.0608 -0.5609
13620TIP3   OH262274   4.808   4.165  15.480 -0.2711  0.0344 -0.2279
13620TIP3    H162275   4.853   4.244  15.512 -0.2927 -0.8467  2.2117
13620TIP3    H262276   4.773   4.124  15.559 -4.0029 -0.2175 -1.8312
13621TIP3   OH262277   0.464   0.011  14.594 -0.8516  0.1402  0.0341
13621TIP3    H162278   0.368   0.008  14.592 -0.8686  0.1871  0.6950
13621TIP3    H262279   0.485   0.058  14.674 -0.2634 -0.3340  0.1659
13622TIP3   OH262280   3.495   1.138  16.666  0.2770 -0.5947 -0.1567
13622TIP3    H162281   3.573   1.111  16.617 -0.5275  0.4681 -2.1657
13622TIP3    H262282   3.443   1.188  16.602 -2.2526 -1.6099  0.9695
13623TIP3   OH262283   4.131   3.843  13.356 -0.0145  0.5175 -0.0218
13623TIP3    H162284   4.064   3.902  13.390 -0.8953 -1.0755  1.1517
13623TIP3    H262285   4.158   3.792  13.432  1.4425  0.0798 -0.8026
13624TIP3   OH262286   6.561   3.617   0.412  0.0065 -0.0065  0.4998
13624TIP3    H162287   6.602   3.703   0.403 -1.9539  0.9304 -0.0831
13624TIP3    H262288   6.530   3.615   0.503 -0.7086  0.3006  0.2750
13625TIP3   OH262289   3.233   0.146   2.067 -0.2118 -0.1245  0.0354
13625TIP3    H162290   3.257   0.170   1.978  0.0634 -1.9238 -0.4071
13625TIP3    H262291   3.139   0.162   2.071 -0.0086  1.2457 -0.1238
13626TIP3   OH262292   6.313   0.672  16.341  0.1840 -0.4013  0.7506
13626TIP3    H162293   6.375   0.711  16.280 -0.9712  1.6516  0.8098
13626TIP3    H262294   6.292   0.587  16.304  1.2149 -0.1296 -0.5084
13627TIP3   OH262295   1.951   5.407  12.494 -0.0739 -0.6098 -0.2417
13627TIP3    H162296   1.942   5.342  12.423  0.6683 -0.2457 -0.6789
13627TIP3    H262297   1.928   5.358  12.573  0.2737 -1.3574 -0.5857
13628TIP3   OH262298   0.361   1.099   3.609  0.4003  0.1623  0.0337
13628TIP3    H162299   0.370   1.005   3.627 -2.9057  0.1889  2.8476
13628TIP3    H262300   0.442   1.138   3.643  1.7391 -1.5796 -0.9929
13629TIP3   OH262301   1.225   6.442   0.300  0.5198 -0.4566  0.1481
13629TIP3    H162302   1.180   6.410   0.377 -1.2685 -1.4194 -1.2357
13629TIP3    H262303   1.170   6.513   0.267  0.6058 -0.8628 -0.9162
13630TIP3   OH262304   0.807   5.095   5.674  0.3700 -0.4449 -0.2754
13630TIP3    H162305   0.725   5.066   5.714  0.0207  0.8379  0.0011
13630TIP3    H262306   0.781   5.127   5.587  0.7551 -1.0551 -0.6171
13631TIP3   OH262307   6.278   1.531   1.964 -0.2035 -0.0934 -0.1618
13631TIP3    H162308   6.345   1.467   1.988  0.6175  0.3431 -1.2086
13631TIP3    H262309   6.320   1.616   1.980  0.1122  0.2141 -2.2822
13632TIP3   OH262310   3.222   0.861  17.022  0.4323 -0.3655  0.0019
13632TIP3    H162311   3.128   0.861  17.041  0.3457 -0.7466 -0.4039
13632TIP3    H262312   3.246   0.954  17.020  0.3345 -0.2863  1.3759
13633TIP3   OH262313   5.951   0.349   4.903  0.3978 -0.0802 -0.7689
13633TIP3    H162314   5.899   0.365   4.982  0.1784 -0.4931 -0.8303
13633TIP3    H262315   5.890   0.363   4.830  0.8689  1.3851 -0.9157
13634TIP3   OH262316   4.969   4.406  15.507 -0.0648  0.5622 -0.6864
13634TIP3    H162317   5.049   4.408  15.454  0.4884  0.6383  0.1355
13634TIP3    H262318   4.978   4.480  15.567 -0.1625 -0.1537  0.2413
13635TIP3   OH262319   6.143   4.956  11.919  0.3459  0.3643 -0.3892
13635TIP3    H162320   6.123   4.871  11.881  0.4900  0.3310 -0.3920
13635TIP3    H262321   6.209   4.938  11.986  0.9408  0.5645 -0.9061
13636TIP3   OH262322   5.431   4.346   2.095  0.0838 -0.6018  0.1331
13636TIP3    H162323   5.480   4.417   2.137 -3.8926  1.4135  1.8244
13636TIP3    H262324   5.453   4.269   2.147  0.8150  0.3728  1.3501
13637TIP3   OH262325   0.003   5.487  15.532  0.3615 -0.1663 -0.3008
13637TIP3    H162326   0.006   5.393  15.549 -0.6064 -0.5634 -2.0430
13637TIP3    H262327  -0.021   5.526  15.616 -1.5030 -1.6853 -0.0606
13638TIP3   OH262328   6.306   0.997   1.834  0.1302 -0.6216 -0.1039
13638TIP3    H162329   6.380   0.943   1.863  0.1760 -0.2590  0.4706
13638TIP3    H262330   6.250   0.937   1.785 -0.1780 -1.3598  1.1165
13639TIP3   OH262331   4.977   3.852  15.081  0.2216  0.2775  0.4600
13639TIP3    H162332   5.034   3.907  15.026 -0.7895  0.5034 -0.4045
13639TIP3    H262333   4.966   3.903  15.161  0.4555  0.6805  0.2450
13640TIP3   OH262334   6.291   4.614  12.523 -0.4065 -0.1088  0.2699
13640TIP3    H162335   6.308   4.525  12.553  1.1763 -0.2521 -0.9152
13640TIP3    H262336   6.370   4.638  12.474 -1.3326  1.4643 -0.5240
13641TIP3   OH262337   4.333   5.128   3.397 -0.0987 -0.5997  0.6510
13641TIP3    H162338   4.295   5.089   3.476 -1.6206 -1.1151 -0.2860
13641TIP3    H262339   4.258   5.164   3.350  0.5888 -1.5200 -1.2289
13642TIP3   OH262340   3.314   4.209   3.312  0.0926  0.5167 -0.2432
13642TIP3    H162341   3.244   4.259   3.353  0.7842  0.7737  0.6439
13642TIP3    H262342   3.276   4.122   3.298 -0.0035  0.2517  1.4489
13643TIP3   OH262343   0.667   4.269  15.535 -0.3200  1.0387  0.1607
13643TIP3    H162344   0.621   4.260  15.618  0.1479 -0.8758  0.2716
13643TIP3    H262345   0.721   4.189  15.529 -0.6015  0.9509 -2.1248
13644TIP3   OH262346   4.023   1.462  14.146 -0.1370 -1.0042  0.2373
13644TIP3    H162347   4.114   1.451  14.173  0.5349  2.1093 -0.3623
13644TIP3    H262348   4.028   1.510  14.063 -2.2834  1.4916  1.4042
13645TIP3   OH262349   3.579   6.711  14.254 -0.3809  0.3620  0.2031
13645TIP3    H162350   3.483   6.704  14.256 -0.5515  1.9952 -0.4874
13645TIP3    H262351   3.603   6.683  14.165 -0.2505  0.3257  0.2495
13646TIP3   OH262352   0.616   4.924  17.209  0.1613 -0.4254  0.2576
13646TIP3    H162353   0.615   4.993  17.142  1.0616  0.1211  0.7881
13646TIP3    H262354   0.678   4.859  17.177 -0.2282 -0.7035  0.0510
13647TIP3   OH262355   6.625   3.496   5.532  0.7111  0.1058  0.1670
13647TIP3    H162356   6.621   3.489   5.627  0.4203 -1.1898  0.0820
13647TIP3    H262357   6.604   3.407   5.501 -0.2377  0.7550 -1.1243
13648TIP3   OH262358   5.078   3.690   2.893 -0.1196 -0.1351 -0.1341
13648TIP3    H162359   5.024   3.611   2.894  0.0530 -0.2582 -0.4267
13648TIP3    H262360   5.056   3.736   2.974  1.6240 -1.7028  1.3087
13649TIP3   OH262361   0.666   4.147  13.830  0.0675  0.0618 -0.5434
13649TIP3    H162362   0.741   4.205  13.816  2.1722 -2.3486  0.0755
13649TIP3    H262363   0.627   4.178  13.911  1.7260  0.0624  0.2907
13650TIP3   OH262364   2.231   0.878  14.629 -0.0975  0.0726  0.4952
13650TIP3    H162365   2.159   0.923  14.586 -2.5951 -1.4606  2.7568
13650TIP3    H262366   2.266   0.818  14.563 -1.0614  0.6782 -0.5820
13651TIP3   OH262367   1.215   0.879   3.458  0.5491 -0.8546  0.5731
13651TIP3    H162368   1.220   0.923   3.542  1.6796  0.0146  0.0915
13651TIP3    H262369   1.258   0.795   3.472  1.3825 -0.4219  0.7184
13652TIP3   OH262370   4.974   6.343  15.070 -0.3723  0.6098  0.3006
13652TIP3    H162371   4.883   6.367  15.053 -0.5496  0.5773  1.1587
13652TIP3    H262372   5.000   6.401  15.142  0.5046  1.0994 -0.3909
13653TIP3   OH262373   6.574   0.103  15.804 -0.0884 -0.4642 -0.3114
13653TIP3    H162374   6.484   0.132  15.790 -0.2944 -0.7045  0.4599
13653TIP3    H262375   6.593   0.046  15.730  0.6235  2.2504 -2.3980
13654TIP3   OH262376   3.528   3.293   0.791 -0.2250 -0.1294 -0.1136
13654TIP3    H162377   3.623   3.289   0.794  0.0262  1.4679 -2.7329
13654TIP3    H262378   3.504   3.355   0.861  0.7945  0.6269 -0.4186
13655TIP3   OH262379   1.697   2.626   6.599 -0.0066  0.2090 -0.5668
13655TIP3    H162380   1.669   2.717   6.607  0.0054  0.0530  2.8435
13655TIP3    H262381   1.780   2.622   6.646  0.6598 -1.3379 -1.7662
13656TIP3   OH262382   5.077   0.702  17.036  0.1587 -0.6581  0.1972
13656TIP3    H162383   5.118   0.634  17.088  3.0115  0.6335 -0.1348
13656TIP3    H262384   5.008   0.738  17.092  0.5875 -1.8347  1.5261
13657TIP3   OH262385   3.184   6.214  13.314  0.8358  0.6643 -0.4249
13657TIP3    H162386   3.217   6.223  13.403 -1.2908 -0.5706  0.5868
13657TIP3    H262387   3.111   6.277  13.310  0.1245 -0.1693 -0.8380
13658TIP3   OH262388   1.416   0.031  14.305  0.0602  0.4134  0.8175
13658TIP3    H162389   1.329  -0.005  14.287  0.2565 -0.7063  1.9451
13658TIP3    H262390   1.401   0.124  14.320 -1.0055  0.1643  1.3927
13659TIP3   OH262391   0.083   3.504   4.734  0.1823 -0.1406  0.1598
13659TIP3    H162392   0.110   3.548   4.814 -0.4627  0.2984  0.1438
13659TIP3    H262393   0.032   3.570   4.686 -0.7715 -0.8845  0.1246
13660TIP3   OH262394   6.336   2.214   1.861  0.1515 -0.0549  0.5130
13660TIP3    H162395   6.317   2.144   1.799 -1.4463  0.3772  0.4754
13660TIP3    H262396   6.430   2.227   1.855  0.5489 -2.4130  0.7590
13661TIP3   OH262397   5.179   5.286  14.544 -0.4769 -0.1833  0.2835
13661TIP3    H162398   5.099   5.289  14.491  0.6402 -0.1160 -1.4637
13661TIP3    H262399   5.219   5.372  14.531 -0.2785 -0.0838  1.4364
13662TIP3   OH262400   5.167   6.786  12.021 -0.2983  0.0708 -0.2128
13662TIP3    H162401   5.149   6.710  11.965  0.0181  1.5048 -2.3734
13662TIP3    H262402   5.260   6.778  12.042 -0.8575 -1.6044  2.0042
13663TIP3   OH262403   6.533   3.746   0.132 -0.5798 -0.1910 -0.0531
13663TIP3    H162404   6.507   3.654   0.138 -0.2050 -0.3463 -0.6463
13663TIP3    H262405   6.539   3.775   0.223 -0.0151 -0.9541  0.1706
13664TIP3   OH262406   2.212   4.392   2.609  0.3846 -0.2709  0.4596
13664TIP3    H162407   2.147   4.417   2.544  0.0360 -2.2003 -0.0052
13664TIP3    H262408   2.204   4.459   2.678  0.7671  1.8126 -1.4077
13665TIP3   OH262409   0.847   0.590  17.057 -0.5314  0.0536  0.3294
13665TIP3    H162410   0.940   0.573  17.042 -0.6300 -1.1248  1.0105
13665TIP3    H262411   0.820   0.639  16.979  0.3614 -0.6992 -0.4903
13666TIP3   OH262412   0.105   6.569  16.668 -0.3568  1.2131 -0.4550
13666TIP3    H162413   0.109   6.563  16.573 -0.6275  0.6964 -0.4383
13666TIP3    H262414   0.011   6.573  16.688 -0.4187 -0.7294 -0.1179
13667TIP3   OH262415   2.094   1.653  14.079 -0.4411  0.5936  0.2006
13667TIP3    H162416   2.025   1.669  14.015 -0.5197 -0.4301  0.0145
13667TIP3    H262417   2.168   1.621  14.027 -0.7539 -0.9826  0.6686
13668TIP3   OH262418   1.158   0.549  12.911 -0.8092 -0.0207  0.2934
13668TIP3    H162419   1.243   0.536  12.868 -0.3709  0.2364  1.0653
13668TIP3    H262420   1.109   0.604  12.851 -0.8142 -1.0126 -0.6398
13669TIP3   OH262421   0.870   5.315  14.943  0.5491  0.3094 -0.3023
13669TIP3    H162422   0.917   5.308  14.861  0.0631  0.3291 -0.5890
13669TIP3    H262423   0.936   5.303  15.011  1.3582  2.5103 -0.6458
13670TIP3   OH262424   1.573   5.038   1.719  0.6961 -0.0706  0.4131
13670TIP3    H162425   1.662   5.044   1.684  0.6564  1.3764  0.4967
13670TIP3    H262426   1.518   5.073   1.649  0.3218  0.1863  0.8299
13671TIP3   OH262427   5.864   1.002   0.594 -0.0744  0.1275 -0.3775
13671TIP3    H162428   5.934   0.982   0.657 -1.0258  1.7367  1.2493
13671TIP3    H262429   5.848   0.918   0.550  0.7037 -1.0325  1.4313
13672TIP3   OH262430   5.932   0.420  12.212 -0.3198 -0.2140 -0.4506
13672TIP3    H162431   5.893   0.496  12.169 -2.5294  0.2281  2.0844
13672TIP3    H262432   5.997   0.456  12.271 -0.1066 -0.4650 -0.5274
13673TIP3   OH262433   2.306   1.697   4.193  0.0410 -0.1141 -0.2216
13673TIP3    H162434   2.349   1.625   4.238  0.0082  0.8165  1.3546
13673TIP3    H262435   2.260   1.744   4.261 -0.0685  1.3185 -1.2389
13674TIP3   OH262436   4.152   4.241  11.369 -0.7169  0.4340  0.0550
13674TIP3    H162437   4.082   4.236  11.304  0.1908 -3.3909 -0.8336
13674TIP3    H262438   4.229   4.267  11.319  0.0110 -2.6369 -0.6031
13675TIP3   OH262439   2.489   6.235   3.843  0.5027 -0.2280 -0.2511
13675TIP3    H162440   2.485   6.308   3.781  0.6697 -0.7892 -0.9255
13675TIP3    H262441   2.561   6.180   3.813  1.1872 -0.0470  0.9681
13676TIP3   OH262442   2.769   4.529   2.032 -0.0002  0.4015 -0.1248
13676TIP3    H162443   2.847   4.475   2.045  0.1624  0.5093 -0.6294
13676TIP3    H262444   2.703   4.468   1.999 -0.3909  0.1422  1.0843
13677TIP3   OH262445   6.711   1.098  12.349  0.4637 -0.2944 -0.3925
13677TIP3    H162446   6.749   1.178  12.386  0.8979 -1.0743  0.9407
13677TIP3    H262447   6.633   1.082  12.402 -0.6745  0.2234 -1.8535
13678TIP3   OH262448   6.127   1.058  14.542  0.8300 -0.0125 -0.2972
13678TIP3    H162449   6.158   1.093  14.458  0.4874 -2.7770 -1.6568
13678TIP3    H262450   6.208   1.044  14.592  1.1125  0.6062 -0.5555
13679TIP3   OH262451   3.427   0.749  16.417 -0.3564 -0.1156  0.0258
13679TIP3    H162452   3.459   0.707  16.497 -0.2143  0.6417  0.3710
13679TIP3    H262453   3.335   0.724  16.413  0.1465 -2.0815 -0.8282
13680TIP3   OH262454   4.256   1.749   5.470 -0.1274  0.4056 -0.4438
13680TIP3    H162455   4.341   1.791   5.454 -0.4239  1.3274  0.2924
13680TIP3    H262456   4.194   1.822   5.470 -0.9919 -0.3009 -1.3733
13681TIP3   OH262457   4.767   3.097   1.071 -0.2844  0.0942  0.7443
13681TIP3    H162458   4.710   3.020   1.062 -0.6978  0.3945  0.7682
13681TIP3    H262459   4.733   3.143   1.147  0.0439  0.2353  0.8070
13682TIP3   OH262460   3.111   1.337   0.274  0.2880  0.5500 -0.4478
13682TIP3    H162461   3.184   1.275   0.279 -0.5147 -0.4388 -0.4952
13682TIP3    H262462   3.145   1.411   0.225  0.7038 -0.7497 -2.2440
13683TIP3   OH262463   3.950   6.696  12.857 -0.7940  0.1290  0.3671
13683TIP3    H162464   4.027   6.675  12.804 -1.3263 -0.5882 -0.1434
13683TIP3    H262465   3.895   6.618  12.852 -0.7442 -0.0597  2.2157
13684TIP3   OH262466   1.257   0.030  13.954 -0.1954  0.4882  0.0987
13684TIP3    H162467   1.188   0.059  13.894 -0.7331 -0.9062  0.0198
13684TIP3    H262468   1.213  -0.025  14.018  0.7697 -0.0318  0.3458
13685TIP3   OH262469   5.858   5.369  14.443  0.0595  0.0852  0.1300
13685TIP3    H162470   5.897   5.346  14.527 -1.4546  0.3874  0.9554
13685TIP3    H262471   5.766   5.385  14.463 -0.5824 -0.9078 -1.7707
13686TIP3   OH262472   0.740   4.430  10.451 -0.2805  0.1926 -0.2940
13686TIP3    H162473   0.678   4.357  10.453  0.0935 -0.1721  2.3276
13686TIP3    H262474   0.687   4.507  10.472 -0.0235 -0.0077  1.1947
13687TIP3   OH262475   3.894   6.355  15.654 -0.4109 -0.1724 -0.3215
13687TIP3    H162476   3.983   6.383  15.676 -1.0005  1.3318  0.2992
13687TIP3    H262477   3.845   6.437  15.644 -1.9719 -0.9845  0.4019
13688TIP3   OH262478   2.890   3.583   2.764 -0.0224 -0.1741  0.4610
13688TIP3    H162479   2.920   3.507   2.814  1.0004 -0.1882 -0.1546
13688TIP3    H262480   2.948   3.586   2.688 -1.1100  0.2506 -0.3838
13689TIP3   OH262481   6.767   1.284   2.284  0.5003  0.1700 -0.5375
13689TIP3    H162482   6.789   1.305   2.193 -1.2269  0.4428 -0.9314
13689TIP3    H262483   6.851   1.281   2.329  1.2832  2.0239 -1.7338
13690TIP3   OH262484   4.933   5.010  16.293 -0.1526 -0.0690 -0.3698
13690TIP3    H162485   5.009   4.999  16.350 -0.4300  0.2726  0.0729
13690TIP3    H262486   4.944   5.096  16.254  0.4840 -0.6579 -1.5168
13691TIP3   OH262487   2.802   1.673   0.281  0.1374  0.2644 -0.2201
13691TIP3    H162488   2.856   1.614   0.334  0.9122  1.9831  1.0498
13691TIP3    H262489   2.803   1.755   0.331 -0.9582  1.3102 -1.8480
13692TIP3   OH262490   3.439   5.147  13.650 -0.2697 -0.0818 -0.0307
13692TIP3    H162491   3.485   5.159  13.733  0.4839 -0.5738 -0.3678
13692TIP3    H262492   3.393   5.230  13.636 -0.2091  0.0948  0.7554
13693TIP3   OH262493   3.146   1.611   5.436 -0.3874  0.0782  0.1886
13693TIP3    H162494   3.070   1.634   5.491  0.3258  1.8236  0.5093
13693TIP3    H262495   3.208   1.682   5.450  0.3116 -0.0293 -2.0123
13694TIP3   OH262496   0.487   0.752   2.174  0.4713 -0.0201  0.1274
13694TIP3    H162497   0.477   0.657   2.173  1.5279 -0.1644  0.8594
13694TIP3    H262498   0.431   0.781   2.246 -0.4806  0.0094 -0.6130
13695TIP3   OH262499   5.734   0.744  14.651  0.3755 -0.6551  1.0272
13695TIP3    H162500   5.803   0.688  14.614  0.1610  0.7652 -1.7482
13695TIP3    H262501   5.739   0.824  14.600 -2.3221  0.1104  1.8419
13696TIP3   OH262502   3.279   4.552  16.096 -0.5841  0.4200 -0.0160
13696TIP3    H162503   3.203   4.510  16.055 -0.2135  0.1667 -0.4430
13696TIP3    H262504   3.333   4.582  16.024  0.3375 -0.5118  0.2627
13697TIP3   OH262505   4.733   3.155   0.776 -0.7813  0.0736  0.3202
13697TIP3    H162506   4.808   3.184   0.827 -0.3339 -0.7902  0.1654
13697TIP3    H262507   4.658   3.166   0.835 -0.1294 -2.0155  1.6246
13698TIP3   OH262508   2.109   6.096  17.192  1.0519  0.2707  0.2380
13698TIP3    H162509   2.157   6.120  17.271  0.8177 -0.3989  0.5925
13698TIP3    H262510   2.107   6.000  17.192  0.1076  0.2713  0.0045
13699TIP3   OH262511   3.485   6.062  12.512  0.2173 -0.0555  0.0894
13699TIP3    H162512   3.569   6.103  12.495  0.8019 -1.4689 -0.6503
13699TIP3    H262513   3.491   6.032  12.602  0.2631  0.4075  0.2403
13700TIP3   OH262514   0.237   6.358   2.418  0.2767  0.0930 -0.5838
13700TIP3    H162515   0.330   6.344   2.436  0.1240 -2.7223 -1.4512
13700TIP3    H262516   0.224   6.324   2.330 -1.3275  1.9094 -1.1147
13701TIP3   OH262517   5.560   0.297   4.922 -0.1074 -1.2577  0.2986
13701TIP3    H162518   5.504   0.225   4.952 -1.0721 -1.0384 -0.8898
13701TIP3    H262519   5.637   0.293   4.978 -0.9321 -2.1166  1.4066
13702TIP3   OH262520   0.517   3.434  11.515 -0.0580 -0.7422 -0.3858
13702TIP3    H162521   0.561   3.512  11.548  0.0033 -0.8821 -0.1326
13702TIP3    H262522   0.432   3.435  11.558 -0.3483 -0.4141 -0.9573
13703TIP3   OH262523   1.654   6.667  16.283 -0.1370 -0.3426 -0.0506
13703TIP3    H162524   1.564   6.677  16.314 -0.7661  1.3314 -2.1966
13703TIP3    H262525   1.703   6.735  16.328  0.3054 -1.7310  1.7008
13704TIP3   OH262526   5.086   4.019  12.687  0.3916 -0.2338 -0.2904
13704TIP3    H162527   5.155   3.953  12.687  1.2174  0.5887 -1.2160
13704TIP3    H262528   5.128   4.098  12.651 -0.6370  0.7184  0.5286
13705TIP3   OH262529   1.299   5.604  11.970  1.1195  0.2630 -0.2769
13705TIP3    H162530   1.343   5.564  11.895 -0.1316 -1.1191 -0.3202
13705TIP3    H262531   1.291   5.533  12.034 -0.2238  0.6957  0.0698
13706TIP3   OH262532   2.654   1.603   5.481  0.2860 -0.3905 -0.2701
13706TIP3    H162533   2.607   1.687   5.481  0.0269 -0.4779 -2.5160
13706TIP3    H262534   2.726   1.616   5.420  0.8515 -1.5105  0.1303
13707TIP3   OH262535   2.168   1.104  10.683 -0.4382  0.2537 -0.4068
13707TIP3    H162536   2.168   1.068  10.594 -1.2122  0.0763 -0.3392
13707TIP3    H262537   2.108   1.048  10.732  0.4190  0.0020  0.3801
13708TIP3   OH262538   0.441   0.619  16.647 -0.0938  0.0930 -0.3537
13708TIP3    H162539   0.349   0.611  16.621  0.3692 -2.5036 -1.5744
13708TIP3    H262540   0.461   0.712  16.637 -2.4285  0.6294 -0.5708
13709TIP3   OH262541   1.744   4.050  11.562 -0.8246 -0.0111 -0.0593
13709TIP3    H162542   1.746   3.993  11.485 -1.0547  1.3102 -1.0879
13709TIP3    H262543   1.831   4.040  11.601 -1.3904 -2.2823  0.7563
13710TIP3   OH262544   5.977   4.112   2.960  0.4669 -0.2476  0.4428
13710TIP3    H162545   6.040   4.077   3.022  0.6815  0.2225  0.4949
13710TIP3    H262546   5.940   4.035   2.916  0.8134 -0.5401  0.6650
13711TIP3   OH262547   4.193   6.097   1.649 -0.2758  0.3386  0.3102
13711TIP3    H162548   4.182   6.143   1.566  0.5745 -0.3597 -0.2152
13711TIP3    H262549   4.110   6.052   1.663 -0.4034  0.4031 -0.2136
13712TIP3   OH262550   4.143   1.772   4.213 -0.3039 -0.1125  0.5031
13712TIP3    H162551   4.055   1.746   4.240 -0.2159  0.0303  0.9312
13712TIP3    H262552   4.201   1.733   4.278  0.0529 -1.2097 -0.4360
13713TIP3   OH262553   0.744   1.007  15.416  0.4600  0.3806 -0.4169
13713TIP3    H162554   0.809   0.937  15.422  0.5749  0.6170  2.2202
13713TIP3    H262555   0.793   1.083  15.384  0.7689 -0.2251 -1.4013
13714TIP3   OH262556   3.678   1.669  13.746 -0.1384  0.4977 -0.3442
13714TIP3    H162557   3.615   1.653  13.676  0.4226  0.4595 -0.8502
13714TIP3    H262558   3.680   1.764  13.756  0.4675  0.5725 -1.0409
13715TIP3   OH262559   5.897   4.404   0.665 -0.1465 -0.6068  0.1250
13715TIP3    H162560   5.980   4.357   0.675 -0.3865 -0.8470  1.1017
13715TIP3    H262561   5.872   4.389   0.574  0.6271 -0.9532 -0.0421
13716TIP3   OH262562   2.577   5.597  15.596 -0.1679 -0.1434  0.1511
13716TIP3    H162563   2.504   5.571  15.540  0.1509 -0.9491  0.0970
13716TIP3    H262564   2.544   5.584  15.685  0.3053 -1.6974  0.1245
13717TIP3   OH262565   2.602   2.174   0.620  0.0611  0.5056  0.0548
13717TIP3    H162566   2.574   2.112   0.687 -1.0505  1.7843  0.8158
13717TIP3    H262567   2.662   2.233   0.666  0.8518  0.2155 -0.5795
13718TIP3   OH262568   0.322   3.720  12.961  0.6320 -0.7748 -0.2870
13718TIP3    H162569   0.345   3.630  12.987  0.7128 -0.4699  0.7380
13718TIP3    H262570   0.385   3.775  13.007  0.3171 -0.1597 -0.5818
13719TIP3   OH262571   1.557   5.375   2.174 -0.0818  0.0923  0.1403
13719TIP3    H162572   1.606   5.457   2.167 -2.9801  2.3099  2.8703
13719TIP3    H262573   1.483   5.386   2.115  0.5933 -1.5435 -1.0674
13720TIP3   OH262574   1.322   0.644   0.761  0.0348 -0.5709  0.1041
13720TIP3    H162575   1.296   0.583   0.692  0.1438  1.5616 -1.9577
13720TIP3    H262576   1.416   0.629   0.773  0.3550  0.0313 -1.3725
13721TIP3   OH262577   1.587   0.894   5.371  0.3577 -0.3029 -0.4027
13721TIP3    H162578   1.522   0.827   5.350  1.1785 -0.4982 -2.6839
13721TIP3    H262579   1.671   0.847   5.370  0.8059  0.4751 -0.6367
13722TIP3   OH262580   3.511   1.827   4.015 -0.3033  0.5486  0.2468
13722TIP3    H162581   3.583   1.886   4.037 -0.5689  1.8842 -2.1596
13722TIP3    H262582   3.446   1.883   3.973 -1.0595 -1.2585 -1.1149
13723TIP3   OH262583   1.177   1.790   2.674 -0.1418 -0.0779 -0.2745
13723TIP3    H162584   1.210   1.742   2.598 -0.2807 -0.5691 -0.0308
13723TIP3    H262585   1.170   1.724   2.743 -1.1242  0.1222 -0.1692
13724TIP3   OH262586   5.379   4.290   5.123 -0.2682  0.4822  0.6270
13724TIP3    H162587   5.331   4.311   5.044  1.8908  2.8482 -0.1994
13724TIP3    H262588   5.435   4.216   5.098 -2.2567 -1.2829  1.1578
13725TIP3   OH262589   3.665   5.225  17.234  0.4809  0.5463 -0.0345
13725TIP3    H162590   3.757   5.208  17.215  0.2620 -2.0031  0.7896
13725TIP3    H262591   3.624   5.235  17.148  1.0192 -1.6234 -0.6008
13726TIP3   OH262592   6.172   6.100  14.472  0.0380  0.3545  0.3149
13726TIP3    H162593   6.148   6.050  14.393  2.2152 -1.6898  0.8078
13726TIP3    H262594   6.149   6.042  14.545  0.7758  0.9368  1.0291
13727TIP3   OH262595   2.734   3.345  11.565 -0.0150 -0.0988  0.1581
13727TIP3    H162596   2.778   3.341  11.650  0.3202 -1.8506 -0.0520
13727TIP3    H262597   2.805   3.358  11.502  0.0052 -0.9493 -0.0119
13728TIP3   OH262598   3.143   1.880  11.197  0.3561 -0.9801 -0.3188
13728TIP3    H162599   3.104   1.949  11.251  1.1131  0.6419 -1.7240
13728TIP3    H262600   3.228   1.863  11.237  0.9786  0.3233 -1.0308
13729TIP3   OH262601   5.807   4.754  13.318  0.4203 -0.4175  0.3271
13729TIP3    H162602   5.712   4.761  13.307  0.2897 -0.0415  1.6216
13729TIP3    H262603   5.830   4.675  13.268 -0.6920 -1.0127  0.7075
13730TIP3   OH262604   5.279   2.807   4.739 -0.7784 -0.1211  0.2921
13730TIP3    H162605   5.227   2.872   4.692  1.4156  0.0842 -2.0031
13730TIP3    H262606   5.357   2.854   4.767  0.5808 -1.5638 -0.9082
13731TIP3   OH262607   0.319   6.512  12.185 -0.1137 -0.3791 -0.6550
13731TIP3    H162608   0.379   6.438  12.195  1.1630  0.6155 -0.6784
13731TIP3    H262609   0.244   6.489  12.240  0.3063 -1.6309 -0.5646
13732TIP3   OH262610   5.009   1.009   0.702 -0.2344  0.1094  0.2469
13732TIP3    H162611   5.067   1.078   0.734 -1.8639  1.1084  1.1945
13732TIP3    H262612   5.031   0.932   0.756 -0.0968  0.6098  0.9212
13733TIP3   OH262613   3.000   4.685   2.995  1.0645 -0.1355  0.0252
13733TIP3    H162614   2.989   4.591   3.009 -3.5569  0.0738 -0.8118
13733TIP3    H262615   3.045   4.716   3.073 -0.6706 -2.5468  2.1158
13734TIP3   OH262616   0.106   5.458  11.425  0.2696 -1.0215  0.4966
13734TIP3    H162617   0.175   5.458  11.359  0.2081  3.7120  0.0280
13734TIP3    H262618   0.149   5.489  11.505 -0.8757  0.3785  0.6370
13735TIP3   OH262619   2.603   3.559  11.448  0.1760 -0.3833 -0.1931
13735TIP3    H162620   2.518   3.536  11.410 -0.5595 -1.9101  2.1661
13735TIP3    H262621   2.655   3.479  11.443  1.2151  0.3051 -0.8383
13736TIP3   OH262622   2.329   4.763  16.681  0.6146  0.2584  0.1358
13736TIP3    H162623   2.382   4.843  16.686  0.9336  0.1091 -0.7900
13736TIP3    H262624   2.344   4.719  16.765 -1.3670  2.2784  1.7085
13737TIP3   OH262625   3.258   2.418   5.694  0.1037 -0.6727  0.4772
13737TIP3    H162626   3.215   2.333   5.700  1.0709 -1.2075 -0.0064
13737TIP3    H262627   3.248   2.456   5.782 -2.1407 -0.3562  0.1573
13738TIP3   OH262628   5.666   1.812   0.727 -0.6325 -0.9195 -0.5114
13738TIP3    H162629   5.748   1.797   0.680 -1.4357 -1.3938 -1.8387
13738TIP3    H262630   5.682   1.888   0.782  0.4560 -0.5453 -1.3271
13739TIP3   OH262631   4.562   6.613  12.726  0.0880  0.4450 -0.5394
13739TIP3    H162632   4.517   6.538  12.765 -0.2089  0.6566 -0.4722
13739TIP3    H262633   4.522   6.689  12.767  1.5168  0.6164  0.6209
13740TIP3   OH262634   5.915   0.825   4.696  0.2773 -0.5519 -0.4065
13740TIP3    H162635   5.990   0.765   4.701  0.0314 -0.8475 -0.2283
13740TIP3    H262636   5.849   0.776   4.646  0.9050  0.4604 -2.3277
13741TIP3   OH262637   6.395   2.863   3.480  0.1645 -0.1430  0.0851
13741TIP3    H162638   6.356   2.814   3.407 -1.2976  1.7781 -0.5042
13741TIP3    H262639   6.334   2.850   3.553 -0.8070  1.5206 -0.3661
13742TIP3   OH262640   6.304   3.809   4.967 -0.0414  0.2752 -0.3870
13742TIP3    H162641   6.354   3.876   5.015  0.2177 -0.4267  0.3594
13742TIP3    H262642   6.225   3.854   4.938  0.5453  1.1386 -0.6896
13743TIP3   OH262643   3.234   2.901   0.071  0.2621  0.3842 -0.0408
13743TIP3    H162644   3.296   2.856   0.013  0.2000 -0.3171  0.4228
13743TIP3    H262645   3.149   2.891   0.028  0.1479 -0.5197  0.3826
13744TIP3   OH262646   4.565   6.423   0.007 -0.5161 -0.0172 -0.1816
13744TIP3    H162647   4.612   6.496  -0.031 -0.1756 -1.0672 -1.8974
13744TIP3    H262648   4.573   6.353  -0.057 -1.7529 -1.2266  0.9009
13745TIP3   OH262649   2.700   3.322   4.863  0.8162  0.3117  0.5163
13745TIP3    H162650   2.766   3.255   4.845 -0.1919 -0.8626  0.9876
13745TIP3    H262651   2.722   3.394   4.804  1.4762 -0.7625 -0.6134
13746TIP3   OH262652   3.489   5.071   2.246  0.1961 -0.5712 -0.3427
13746TIP3    H162653   3.559   5.094   2.308  1.0789 -0.1552 -1.4520
13746TIP3    H262654   3.423   5.139   2.259  1.1337  0.5067 -1.0076
13747TIP3   OH262655   6.527   5.560   6.155 -0.2680  0.4082  0.4082
13747TIP3    H162656   6.572   5.638   6.123  2.9756 -2.3377 -2.5026
13747TIP3    H262657   6.446   5.556   6.104 -0.3938  1.7260  0.4747
13748TIP3   OH262658   2.280   3.478   4.796 -0.4612 -0.4544  0.2274
13748TIP3    H162659   2.285   3.514   4.708 -0.1111 -0.1662  0.3601
13748TIP3    H262660   2.346   3.528   4.846 -0.6749 -0.5924  0.6544
13749TIP3   OH262661   0.095   1.486   3.504  0.2209 -0.6046 -0.4570
13749TIP3    H162662   0.018   1.509   3.453  0.4452  0.9118 -0.1794
13749TIP3    H262663   0.109   1.562   3.561  3.7776  0.7367 -2.7559
13750TIP3   OH262664   1.237   2.549   5.400 -0.2355 -0.8003 -0.2725
13750TIP3    H162665   1.234   2.633   5.446 -0.9083  0.1718 -1.9885
13750TIP3    H262666   1.330   2.528   5.396  0.0773  0.5565 -0.9453
13751TIP3   OH262667   5.359   1.093  14.932 -0.5822  0.1618 -0.2581
13751TIP3    H162668   5.313   1.012  14.954  1.9278 -1.2409  0.1893
13751TIP3    H262669   5.407   1.072  14.851 -1.5595  1.9458 -1.3729
13752TIP3   OH262670   2.009   3.264  12.348 -0.1735 -0.0085 -0.6879
13752TIP3    H162671   1.915   3.279  12.353 -0.0058  0.9552 -0.2690
13752TIP3    H262672   2.035   3.240  12.437  0.2234  1.3245 -0.4193
13753TIP3   OH262673   4.362   2.216   3.955  0.4669  0.6252 -0.6432
13753TIP3    H162674   4.367   2.301   3.998  1.3049  0.2789 -0.0368
13753TIP3    H262675   4.447   2.175   3.971  0.0368 -0.3808 -0.8183
13754TIP3   OH262676   4.748   1.877  11.786 -0.5077 -0.2984 -0.0820
13754TIP3    H162677   4.807   1.947  11.814  0.6435 -0.8774 -0.9357
13754TIP3    H262678   4.752   1.880  11.690  1.3768 -2.9095 -0.2139
13755TIP3   OH262679   0.073   6.286  14.244  0.7893  0.6972  0.3526
13755TIP3    H162680   0.016   6.361  14.261  1.5823  1.6564 -1.0047
13755TIP3    H262681   0.036   6.246  14.165  0.7814  0.0709  0.6723
13756TIP3   OH262682   1.963   3.609   4.754  0.6878  0.3091 -0.0945
13756TIP3    H162683   1.985   3.701   4.738 -0.4760  0.3613 -1.6361
13756TIP3    H262684   2.012   3.561   4.688  0.2348 -0.0596 -0.1625
13757TIP3   OH262685   5.647   0.132  14.964  0.0455  0.1993  0.0150
13757TIP3    H162686   5.587   0.072  15.008  0.1689 -0.7115 -0.9944
13757TIP3    H262687   5.667   0.088  14.881  1.3160  0.9588 -0.1021
13758TIP3   OH262688   1.870   0.122  14.431  0.1574  0.1321 -0.0555
13758TIP3    H162689   1.830   0.208  14.446  0.3171  0.3601 -0.8840
13758TIP3    H262690   1.804   0.073  14.381  1.0593  0.6922 -1.9052
13759TIP3   OH262691   1.918   3.121   4.711  1.1593 -0.2481 -0.0774
13759TIP3    H162692   1.974   3.177   4.764  1.3169  0.6465 -1.1494
13759TIP3    H262693   1.977   3.054   4.677  1.3168 -0.0910 -0.1167
13760TIP3   OH262694   5.887   4.639   0.803  0.4811 -0.0573 -0.4077
13760TIP3    H162695   5.861   4.716   0.753  5.4920  1.5921 -0.9512
13760TIP3    H262696   5.888   4.568   0.739  0.1878  0.4505 -0.9901
13761TIP3   OH262697   2.226   3.472  15.184  0.5961 -0.5172  0.0150
13761TIP3    H162698   2.195   3.560  15.159 -1.1296 -0.6936  1.3083
13761TIP3    H262699   2.249   3.430  15.101 -1.6253  0.0821 -0.9949
13762TIP3   OH262700   5.679   1.301  11.719 -0.0708 -0.4451  0.0758
13762TIP3    H162701   5.652   1.346  11.639 -4.4380  0.1854  1.6678
13762TIP3    H262702   5.712   1.371  11.775  3.0574 -0.8962 -0.9828
13763TIP3   OH262703   1.043   0.166   3.931 -0.2015  0.1651 -0.1019
13763TIP3    H162704   1.081   0.133   3.849 -0.2701 -3.3894  1.1440
13763TIP3    H262705   0.950   0.143   3.925 -0.4879  1.1380  0.4219
13764TIP3   OH262706   1.923   5.149  11.913 -0.0422  0.1912 -0.1621
13764TIP3    H162707   1.864   5.076  11.897  0.7755 -0.7680  0.9983
13764TIP3    H262708   1.992   5.113  11.968  0.2360  1.9193  0.7108
13765TIP3   OH262709   5.385   5.347  10.613 -0.1287 -0.7333 -0.1693
13765TIP3    H162710   5.467   5.350  10.564 -0.7900  1.3079 -1.2863
13765TIP3    H262711   5.333   5.280  10.568 -0.1434  0.0476 -1.3842
13766TIP3   OH262712   1.565   2.239  13.886 -0.7191 -0.3696 -0.2093
13766TIP3    H162713   1.633   2.172  13.885  0.2551  0.5542  0.6312
13766TIP3    H262714   1.487   2.195  13.919  0.0572 -0.9572  0.8826
13767TIP3   OH262715   0.697   1.840   4.678 -0.5931 -0.3740  0.1655
13767TIP3    H162716   0.675   1.888   4.757 -0.4861  0.1475 -0.1143
13767TIP3    H262717   0.783   1.801   4.697 -0.0490  0.6620 -0.0822
13768TIP3   OH262718   5.980   1.327  16.719 -0.7546  0.0921 -0.0093
13768TIP3    H162719   6.016   1.371  16.642  3.9461 -0.6090  1.4656
13768TIP3    H262720   5.940   1.398  16.770 -2.4837  0.8125 -2.2063
13769TIP3   OH262721   1.753   0.726  16.078  0.3198 -0.0157  0.4923
13769TIP3    H162722   1.839   0.698  16.110  1.0016  2.4840  1.0954
13769TIP3    H262723   1.760   0.719  15.982  1.3182  0.3574  0.5158
13770TIP3   OH262724   5.881   2.421  15.516 -0.5666 -0.3808  0.0963
13770TIP3    H162725   5.789   2.398  15.501 -1.1094  1.8578 -0.3020
13770TIP3    H262726   5.883   2.455  15.605  0.3101 -2.1915  0.8346
13771TIP3   OH262727   0.045   4.452  10.291 -0.7281 -0.7839 -0.2352
13771TIP3    H162728   0.100   4.528  10.273  0.5534 -1.5086  0.4651
13771TIP3    H262729  -0.006   4.477  10.368 -3.1853  0.7585 -2.1985
13772TIP3   OH262730   0.728   0.862  17.004  0.2792  0.1998  0.0093
13772TIP3    H162731   0.767   0.865  17.092 -0.1999  0.8222  0.2097
13772TIP3    H262732   0.696   0.951  16.989  0.0529  0.0092 -0.6560
13773TIP3   OH262733   4.530   0.859   0.735  0.0042  0.0278  0.6095
13773TIP3    H162734   4.539   0.808   0.816  1.0195 -4.1485 -1.8263
13773TIP3    H262735   4.616   0.852   0.693 -1.2399 -0.3774 -2.0670
13774TIP3   OH262736   1.009   2.535  11.782 -0.0563  0.1676  0.2991
13774TIP3    H162737   0.956   2.557  11.705 -0.9616 -1.3750  0.4451
13774TIP3    H262738   1.082   2.484  11.747 -0.4126 -0.4462  0.4350
13775TIP3   OH262739   0.253   5.846   5.496  0.2893 -0.5804  0.1794
13775TIP3    H162740   0.226   5.784   5.428  0.7212 -0.3627 -0.1882
13775TIP3    H262741   0.331   5.889   5.461  0.0141  0.1562  0.4393
13776TIP3   OH262742   2.019   1.112   0.232 -0.3708 -0.9328  0.1214
13776TIP3    H162743   2.002   1.147   0.320  0.7191  0.5540 -0.2122
13776TIP3    H262744   1.942   1.137   0.181  0.2201  0.7845 -0.0147
13777TIP3   OH262745   6.183   0.595  12.048 -0.0300 -0.9137 -0.3996
13777TIP3    H162746   6.227   0.557  11.972  1.0463 -0.5954  0.0427
13777TIP3    H262747   6.251   0.598  12.116 -0.1401  1.4120 -0.3011
13778TIP3   OH262748   1.203   6.667   6.435 -0.4519  0.1646 -0.0850
13778TIP3    H162749   1.171   6.591   6.482  0.1044  0.2147  0.3873
13778TIP3    H262750   1.288   6.640   6.400 -0.7468  0.2114 -0.8508
13779TIP3   OH262751   4.505   2.875   4.068  0.0248  0.3758 -0.1299
13779TIP3    H162752   4.473   2.831   4.147 -1.3239  1.3441 -0.1114
13779TIP3    H262753   4.548   2.955   4.101  0.1535  0.3908 -0.3321
13780TIP3   OH262754   1.676   2.627  14.533 -0.2316 -0.4343  0.2897
13780TIP3    H162755   1.708   2.635  14.444 -0.9806 -0.4787  0.0082
13780TIP3    H262756   1.755   2.627  14.587  0.2242 -0.3569 -0.3642
13781TIP3   OH262757   4.428   6.535  10.548 -0.2259  0.4687 -0.0902
13781TIP3    H162758   4.511   6.489  10.558  1.2287  2.7655 -0.7213
13781TIP3    H262759   4.389   6.498  10.468 -0.7233 -1.8334  1.1410
13782TIP3   OH262760   3.925   2.649  15.588 -0.4497  0.5116 -0.3868
13782TIP3    H162761   3.933   2.617  15.677  2.3865  1.1857 -0.3104
13782TIP3    H262762   3.833   2.635  15.566 -1.3499  0.7031  2.7582
13783TIP3   OH262763   3.570   2.938  14.617  0.1463  0.0936 -0.1644
13783TIP3    H162764   3.623   2.993  14.675 -0.0153 -0.0564  0.1281
13783TIP3    H262765   3.561   2.855  14.665 -0.4515  0.1607 -0.1569
13784TIP3   OH262766   4.798   2.917   2.654  0.5848 -0.3494 -0.4142
13784TIP3    H162767   4.831   2.930   2.743  0.8964  0.2213 -0.6119
13784TIP3    H262768   4.719   2.864   2.666 -2.2028  3.5825  0.7291
13785TIP3   OH262769   1.202   6.646  14.241  0.2810 -0.0766 -0.0999
13785TIP3    H162770   1.218   6.554  14.219 -1.2295 -0.6301  0.9108
13785TIP3    H262771   1.172   6.643  14.332  0.2321  1.4324 -0.0516
13786TIP3   OH262772   3.968   3.202   1.378  0.3759  0.6867 -0.0621
13786TIP3    H162773   4.010   3.256   1.444  1.1179 -0.9110  0.8361
13786TIP3    H262774   4.018   3.217   1.298  0.2370  1.6967  0.0303
13787TIP3   OH262775   2.599   5.920  12.053 -0.0439 -0.2081  0.0926
13787TIP3    H162776   2.562   5.863  11.986  1.4294  1.2399 -2.0886
13787TIP3    H262777   2.529   5.983  12.073 -1.5356 -2.3405  2.2220
13788TIP3   OH262778   2.198   5.221   2.507  0.0061  0.8874  0.4460
13788TIP3    H162779   2.229   5.282   2.574 -1.2474  2.7924 -0.5858
13788TIP3    H262780   2.118   5.183   2.544 -0.3065  1.4154  0.3310
13789TIP3   OH262781   3.679   3.595   2.998 -0.0576 -0.5574  0.0034
13789TIP3    H162782   3.658   3.538   2.924  2.1840  0.2192 -1.3245
13789TIP3    H262783   3.727   3.540   3.060  0.0641 -0.6663 -0.1899
13790TIP3   OH262784   4.313   5.472   2.114 -0.2663  0.1249 -0.0422
13790TIP3    H162785   4.403   5.474   2.148  0.3079 -0.6467 -1.4079
13790TIP3    H262786   4.288   5.380   2.120 -0.3574  0.0656 -1.1096
13791TIP3   OH262787   4.463   3.066  12.895 -0.0761 -0.2086 -0.0072
13791TIP3    H162788   4.477   3.125  12.969 -1.3939 -0.8917  0.8370
13791TIP3    H262789   4.369   3.074  12.875  0.1221 -0.5693 -1.1440
13792TIP3   OH262790   3.289   3.530  12.119  0.0981  0.2427  0.4522
13792TIP3    H162791   3.319   3.598  12.178  0.4215  0.1614  0.3846
13792TIP3    H262792   3.361   3.466  12.117 -0.2254 -0.1319  0.5654
13793TIP3   OH262793   1.005   5.043   3.383 -0.3635  0.4541  0.2046
13793TIP3    H162794   1.033   5.127   3.347 -1.7126 -0.5187 -3.5138
13793TIP3    H262795   1.077   5.016   3.441  1.9290  2.3457 -1.5859
13794TIP3   OH262796   3.745   1.341  13.758 -0.0066  0.2424  0.3493
13794TIP3    H162797   3.815   1.380  13.705 -0.0003  0.3972  0.4732
13794TIP3    H262798   3.677   1.408  13.762 -0.4580 -0.1494 -0.3394
13795TIP3   OH262799   1.104   4.058   1.774 -0.2869 -0.4475  0.2753
13795TIP3    H162800   1.112   4.152   1.786  1.3040 -0.6146  0.7420
13795TIP3    H262801   1.155   4.020   1.846 -0.7863 -1.6712  0.0181
13796TIP3   OH262802   0.263   1.180  15.337  0.4466 -0.1285 -0.2440
13796TIP3    H162803   0.271   1.274  15.353  0.9795 -0.0577 -0.9322
13796TIP3    H262804   0.173   1.169  15.306  0.6442  0.2710 -0.9704
13797TIP3   OH262805   2.982   4.028  14.600  0.4887  0.0276  0.0916
13797TIP3    H162806   2.977   4.117  14.633 -1.1926 -0.3760  1.0422
13797TIP3    H262807   3.028   3.979  14.669 -1.1228 -0.3810  0.9230
13798TIP3   OH262808   6.709   2.829   5.488 -0.1947 -0.3897  0.4093
13798TIP3    H162809   6.737   2.739   5.505 -1.0210 -0.5622  0.8641
13798TIP3    H262810   6.789   2.881   5.501  0.4792 -1.1227 -0.6084
13799TIP3   OH262811   2.241   3.934   1.362  0.0813  0.4676  0.3479
13799TIP3    H162812   2.329   3.964   1.386  0.9151 -1.1616 -0.5108
13799TIP3    H262813   2.251   3.901   1.272 -1.5750  0.8831 -0.0180
13800TIP3   OH262814   5.380   0.426  15.720 -0.0522 -0.3195 -0.2829
13800TIP3    H162815   5.440   0.383  15.781  0.6696  0.1776 -0.6247
13800TIP3    H262816   5.326   0.482  15.775 -0.1881 -0.7449  0.0254
13801TIP3   OH262817   3.828   1.270   1.080 -0.3686 -0.0025 -0.1415
13801TIP3    H162818   3.903   1.308   1.034  1.4325 -2.3775  0.6386
13801TIP3    H262819   3.760   1.261   1.013  0.6994  0.4397 -1.3232
13802TIP3   OH262820   2.240   1.323  16.617 -0.0152 -0.3215 -0.0642
13802TIP3    H162821   2.146   1.316  16.634 -0.2885  1.2801 -0.6831
13802TIP3    H262822   2.245   1.367  16.532  1.3094 -1.0597 -0.4029
13803TIP3   OH262823   1.464   3.296   2.162  0.0095  0.1958  0.1457
13803TIP3    H162824   1.370   3.288   2.176  0.2453  0.7974  2.6529
13803TIP3    H262825   1.484   3.387   2.183  1.6120 -0.8073  3.7440
13804TIP3   OH262826   2.960   1.033   2.879 -0.0827 -0.1642 -0.3891
13804TIP3    H162827   3.002   0.958   2.920  1.2586  0.0356 -1.3336
13804TIP3    H262828   2.868   1.025   2.904  0.5811 -0.2309  2.2966
13805TIP3   OH262829   4.145   3.129  12.977 -0.5240  0.1745 -0.0853
13805TIP3    H162830   4.082   3.064  12.946 -0.7350  0.3494 -0.0207
13805TIP3    H262831   4.168   3.179  12.899  2.1718 -2.0646 -0.9063
13806TIP3   OH262832   4.177   2.312   0.464  0.3199  0.1872  0.4403
13806TIP3    H162833   4.199   2.220   0.448 -1.5354 -0.2006 -0.1997
13806TIP3    H262834   4.251   2.361   0.429  1.8523 -1.0664  1.7652
13807TIP3   OH262835   2.145   1.232   0.788  0.2668  0.1785  0.3790
13807TIP3    H162836   2.125   1.150   0.832 -0.4430 -0.8500 -1.7246
13807TIP3    H262837   2.063   1.258   0.746  0.8643  1.1712 -0.2240
13808TIP3   OH262838   6.563   4.399   4.849 -0.2053 -0.2017 -0.2676
13808TIP3    H162839   6.527   4.417   4.936  1.1654 -2.1427  0.7778
13808TIP3    H262840   6.638   4.459   4.842 -0.4869  0.1589 -0.2547
13809TIP3   OH262841   6.399   0.170   3.230  0.3501 -0.3288 -0.2436
13809TIP3    H162842   6.307   0.177   3.255  1.0038  1.3007  2.0307
13809TIP3    H262843   6.409   0.230   3.157 -0.4978 -0.9765 -0.9078
13810TIP3   OH262844   2.642   5.783   4.468  0.3472 -0.4076  0.0934
13810TIP3    H162845   2.691   5.801   4.548  1.1813 -1.3070 -0.1959
13810TIP3    H262846   2.564   5.737   4.496  1.3984 -2.1619  0.3014
13811TIP3   OH262847   6.155   6.534   4.030  0.2307 -0.3622 -0.3879
13811TIP3    H162848   6.220   6.602   4.013  0.9167 -0.2851  2.1483
13811TIP3    H262849   6.192   6.455   3.990  0.0259  0.4403 -2.2501
13812TIP3   OH262850   3.977   1.514  11.959  0.1104 -0.2903 -0.1989
13812TIP3    H162851   4.029   1.583  11.918 -1.4877  1.8126  1.1107
13812TIP3    H262852   3.887   1.535  11.935 -0.6922 -0.1398  2.5672
13813TIP3   OH262853   1.659   5.001  11.741 -0.0623  0.2042  0.1126
13813TIP3    H162854   1.678   5.080  11.690 -1.5176  0.0726 -0.6674
13813TIP3    H262855   1.592   5.028  11.804  1.1505  0.1637  1.4981
13814TIP3   OH262856   3.030   3.716   0.444 -0.0310 -0.1515  0.2824
13814TIP3    H162857   3.123   3.692   0.451  0.3117  1.2040  0.6754
13814TIP3    H262858   2.989   3.674   0.520  0.5607  0.5313  0.9967
13815TIP3   OH262859   2.643   2.557   1.133 -0.2587 -0.2410  0.1395
13815TIP3    H162860   2.560   2.605   1.131  0.8047  1.6827 -1.3263
13815TIP3    H262861   2.635   2.492   1.063 -0.6782 -0.3680  0.2991
13816TIP3   OH262862   1.043   0.980   1.978  0.4470  0.3523 -0.2810
13816TIP3    H162863   1.014   0.932   2.056  1.9984 -1.0476 -0.5212
13816TIP3    H262864   0.965   0.984   1.922 -0.9078  2.0336  1.5736
13817TIP3   OH262865   4.823   4.334   2.500 -0.2117 -0.0565  0.1147
13817TIP3    H162866   4.835   4.268   2.432 -0.5360 -1.3032  1.2277
13817TIP3    H262867   4.909   4.374   2.510  0.6011 -1.9015  0.9891
13818TIP3   OH262868   3.946   5.498   6.454  0.3143 -0.2638 -0.1881
13818TIP3    H162869   4.004   5.574   6.464  0.2538  0.3529 -3.5171
13818TIP3    H262870   3.867   5.523   6.503  0.9426  1.0570  0.2144
13819TIP3   OH262871   3.964   3.686  16.929  0.4083  0.1478  0.1969
13819TIP3    H162872   4.018   3.609  16.944 -0.0857  0.1000  1.8588
13819TIP3    H262873   4.008   3.733  16.858  0.6277 -1.7285 -0.9704
13820TIP3   OH262874   2.966   0.115   3.378 -0.2723 -0.0672  0.7055
13820TIP3    H162875   2.875   0.094   3.401 -0.4732  0.6124  0.5424
13820TIP3    H262876   2.959   0.195   3.326  0.1916 -1.2761 -1.3259
13821TIP3   OH262877   0.148   0.186  15.084 -0.0358  0.5149  0.2702
13821TIP3    H162878   0.076   0.188  15.148 -0.7764 -1.2600 -0.4482
13821TIP3    H262879   0.104   0.189  14.999  0.6343 -1.6306 -0.1995
13822TIP3   OH262880   1.005   4.921  12.608 -0.0580 -0.3928 -0.2314
13822TIP3    H162881   0.928   4.870  12.583  0.0507  0.0579 -1.5829
13822TIP3    H262882   1.078   4.860  12.599 -0.1393 -0.5484  0.1218
13823TIP3   OH262883   1.444   5.416  12.778  0.2241 -0.1824  0.3919
13823TIP3    H162884   1.459   5.323  12.797  0.8032 -0.2010 -0.1321
13823TIP3    H262885   1.410   5.416  12.688  1.8676  0.2238 -0.2618
13824TIP3   OH262886   1.569   5.101   5.290  1.2164 -0.5697  0.0967
13824TIP3    H162887   1.494   5.131   5.239  2.1876  1.6997 -0.0841
13824TIP3    H262888   1.544   5.013   5.320 -0.2048 -1.1780 -2.5781
13825TIP3   OH262889   1.367   6.205  16.379  0.1277  0.5536  0.1392
13825TIP3    H162890   1.305   6.249  16.320  0.1847  0.7568  0.2298
13825TIP3    H262891   1.453   6.236  16.351  0.1856  0.3119  0.0489
13826TIP3   OH262892   6.590   5.896  14.249 -0.3395  0.1244 -0.5216
13826TIP3    H162893   6.588   5.803  14.272  0.7966  0.3199  0.4590
13826TIP3    H262894   6.672   5.928  14.286 -1.0837  1.7005 -0.1314
13827TIP3   OH262895   6.349   2.394  13.554  0.0159 -0.0816  0.3598
13827TIP3    H162896   6.342   2.453  13.479  1.4287 -0.3310 -0.0081
13827TIP3    H262897   6.389   2.315  13.518  1.0152 -0.0849  1.4307
13828TIP3   OH262898   5.292   5.549  11.008  0.6241  0.4451 -0.2470
13828TIP3    H162899   5.305   5.559  10.914 -1.8780  0.1120 -0.6830
13828TIP3    H262900   5.306   5.637  11.044 -0.6899  1.1028 -1.2695
13829TIP3   OH262901   1.355   3.892   6.124  0.2816  0.7518  0.1544
13829TIP3    H162902   1.326   3.945   6.198 -1.3691 -0.0534  0.1292
13829TIP3    H262903   1.346   3.801   6.155  1.6827  0.4425 -0.2934
13830TIP3   OH262904   1.499   1.714   3.173 -0.2494  0.3835  0.0209
13830TIP3    H162905   1.461   1.694   3.087  1.1527  1.9990 -1.0551
13830TIP3    H262906   1.558   1.641   3.190  0.5018  0.6996 -1.0947
13831TIP3   OH262907   2.298   2.323  13.664  0.1236 -0.1645 -0.2638
13831TIP3    H162908   2.234   2.390  13.687  0.9947  1.4334 -2.1742
13831TIP3    H262909   2.282   2.304  13.572 -1.2712 -4.0453  0.5714
13832TIP3   OH262910   3.566   2.199   1.115 -0.5211  0.0497  0.3176
13832TIP3    H162911   3.652   2.206   1.073 -1.0947 -1.2892 -1.2077
13832TIP3    H262912   3.511   2.156   1.049 -2.0631 -0.1757  1.6852
13833TIP3   OH262913   2.025   1.547  12.555  0.3430  0.6446 -0.2128
13833TIP3    H162914   1.957   1.588  12.501 -1.0024  2.6943  2.7589
13833TIP3    H262915   2.013   1.453  12.542 -1.3166  1.0227 -1.7833
13834TIP3   OH262916   4.215   3.352   3.082  0.2927 -0.0408  0.1942
13834TIP3    H162917   4.171   3.316   3.159  1.2599 -0.5328  0.5377
13834TIP3    H262918   4.187   3.296   3.010 -0.7720  0.5416  0.1479
13835TIP3   OH262919   5.723   4.229  14.795  0.1865  0.5987  0.0823
13835TIP3    H162920   5.712   4.253  14.888  1.7752 -3.3874  1.5182
13835TIP3    H262921   5.813   4.255  14.775  0.3479  0.1125  0.1645
13836TIP3   OH262922   5.716   1.074   1.963 -0.1934 -0.2203 -0.1016
13836TIP3    H162923   5.791   1.015   1.973  1.1636  1.4365 -0.0870
13836TIP3    H262924   5.651   1.039   2.024  0.3392 -1.9924 -0.4763
13837TIP3   OH262925   1.347   2.268   0.803  0.5018  0.3643  0.4880
13837TIP3    H162926   1.310   2.283   0.716  3.1392  0.7009 -0.6518
13837TIP3    H262927   1.277   2.294   0.863 -0.9397  1.3784 -1.5128
13838TIP3   OH262928   3.508   4.078   4.535 -0.3652  0.3826 -0.0996
13838TIP3    H162929   3.472   4.125   4.609 -0.4142 -0.6437  0.5542
13838TIP3    H262930   3.494   4.136   4.460 -0.3288  1.4266  0.6828
13839TIP3   OH262931   1.591   3.994   4.334  0.0002 -0.0654 -0.2917
13839TIP3    H162932   1.496   3.982   4.323  0.1963 -1.5765 -0.4813
13839TIP3    H262933   1.628   3.907   4.323  1.5604  0.6964 -1.6023
13840TIP3   OH262934   3.479   4.513  15.386  0.5343 -0.2422  0.2516
13840TIP3    H162935   3.541   4.440  15.384  0.2298 -0.4972  0.0592
13840TIP3    H262936   3.484   4.550  15.298  1.5285  0.6845  0.6788
13841TIP3   OH262937   0.892   5.944  12.835 -0.3127  0.0530  0.1983
13841TIP3    H162938   0.913   6.036  12.823 -0.7620  0.1394  0.0386
13841TIP3    H262939   0.958   5.897  12.784 -1.5670  0.3757 -1.8645
13842TIP3   OH262940   2.127   2.047  17.151  0.0269  0.1401  0.4016
13842TIP3    H162941   2.077   1.970  17.180 -0.5375  0.5715  0.6074
13842TIP3    H262942   2.192   2.061  17.220 -0.4543  0.3784  0.8135
13843TIP3   OH262943   4.223   5.736   3.791 -0.2289 -0.8043 -0.1462
13843TIP3    H162944   4.134   5.710   3.811 -0.5243 -0.9495 -1.5380
13843TIP3    H262945   4.225   5.744   3.696  0.5438  1.6700 -0.0033
13844TIP3   OH262946   3.914   2.095  13.194  0.4550  0.2333  0.2540
13844TIP3    H162947   3.953   2.043  13.124 -0.4768 -0.0863 -0.0417
13844TIP3    H262948   3.989   2.139  13.236  1.1851 -0.8357  0.1077
13845TIP3   OH262949   3.306   1.673  14.599  0.3198 -0.1420 -0.5447
13845TIP3    H162950   3.389   1.683  14.554  0.3328  1.3832 -0.2525
13845TIP3    H262951   3.313   1.591  14.647  1.6363 -0.0538 -0.5696
13846TIP3   OH262952   1.180   0.373   3.632 -0.2229  0.1609  0.3039
13846TIP3    H162953   1.187   0.370   3.537 -1.0063 -1.2797  0.2611
13846TIP3    H262954   1.124   0.448   3.651  0.6096  0.9532 -0.3071
13847TIP3   OH262955   4.277   4.204   4.050 -0.1627  0.1555  0.1483
13847TIP3    H162956   4.268   4.110   4.064  0.7893  0.1109  0.5340
13847TIP3    H262957   4.189   4.238   4.062 -0.3966 -0.6041  0.6755
13848TIP3   OH262958   1.261   2.608  12.661  0.3500 -0.1841  0.3375
13848TIP3    H162959   1.265   2.566  12.747  2.0796 -0.5378  0.1322
13848TIP3    H262960   1.221   2.542  12.604 -0.2883 -0.1625  0.7592
13849TIP3   OH262961   5.761   5.064  11.719 -0.2875  0.4452  0.3284
13849TIP3    H162962   5.745   4.970  11.711  0.0253  0.4694 -0.7199
13849TIP3    H262963   5.856   5.072  11.729 -0.2182  0.6867 -0.4438
13850TIP3   OH262964   0.620   5.460   2.978  0.8517 -0.3526 -0.2185
13850TIP3    H162965   0.528   5.472   3.000 -0.0020 -0.4752 -3.2753
13850TIP3    H262966   0.667   5.498   3.052 -1.6266  0.9765  0.8078
13851TIP3   OH262967   2.232   0.272  14.675 -0.4013  0.1554 -0.0816
13851TIP3    H162968   2.225   0.318  14.759  2.6110 -2.8800  2.1073
13851TIP3    H262969   2.312   0.307  14.636 -0.7240  0.1519 -0.7564
13852TIP3   OH262970   0.819   1.432  16.849  0.1119  0.6193  0.3236
13852TIP3    H162971   0.880   1.392  16.912  0.1037 -1.8420 -1.1001
13852TIP3    H262972   0.875   1.460  16.776 -0.3274 -1.9674 -1.1502
13853TIP3   OH262973   6.554   4.256  14.933  0.5456 -0.4445 -0.2053
13853TIP3    H162974   6.624   4.196  14.906  0.5787  0.3408 -1.9764
13853TIP3    H262975   6.513   4.212  15.007  0.7862 -2.5055 -1.2170
13854TIP3   OH262976   0.050   3.231  16.605 -0.2227 -0.1572  0.7245
13854TIP3    H162977  -0.010   3.156  16.612 -0.1658 -0.6238 -2.3672
13854TIP3    H262978   0.004   3.292  16.548  1.4468  0.3101 -0.1638
13855TIP3   OH262979   0.307   5.333   6.292 -0.0869  0.3131  0.3773
13855TIP3    H162980   0.324   5.357   6.201 -2.1538 -0.2101 -0.1837
13855TIP3    H262981   0.298   5.237   6.290 -1.8912  0.4429  0.7868
13856TIP3   OH262982   6.270   2.502   0.961  0.1686 -0.0312 -0.2522
13856TIP3    H162983   6.272   2.406   0.961  2.8045 -0.0615  0.7586
13856TIP3    H262984   6.281   2.525   1.053  3.7518  1.1556 -0.8635
13857TIP3   OH262985   2.616   0.059   1.845 -0.2024 -0.4727  0.5440
13857TIP3    H162986   2.638   0.079   1.754  0.9405 -0.7634  0.7380
13857TIP3    H262987   2.626  -0.036   1.852 -0.5269 -0.4819  0.9071
13858TIP3   OH262988   2.875   1.474   4.077 -0.4555  0.0000 -0.1534
13858TIP3    H162989   2.873   1.422   4.156  0.5778 -1.3905 -0.9959
13858TIP3    H262990   2.784   1.478   4.047 -0.6647 -0.5204  0.4119
13859TIP3   OH262991   6.085   2.723  14.440  0.0471  0.7449  0.0750
13859TIP3    H162992   6.048   2.680  14.517 -0.2879  0.8176 -0.0442
13859TIP3    H262993   6.134   2.797  14.476  1.8977 -0.5620  0.4099
13860TIP3   OH262994   6.598   2.760  10.931 -0.6154  0.2594  0.3631
13860TIP3    H162995   6.558   2.789  11.013  1.2869 -0.4808  1.6027
13860TIP3    H262996   6.580   2.832  10.870 -2.0019  0.8627  1.4227
13861TIP3   OH262997   3.993   5.649   5.348  0.4293 -0.6427 -0.3005
13861TIP3    H162998   3.983   5.704   5.426  1.6631 -0.8138  0.0036
13861TIP3    H262999   3.911   5.599   5.343 -0.3501  0.5921 -0.0916
13862TIP3   OH263000   1.453   1.153   3.055  0.5615 -0.6080  0.6684
13862TIP3    H163001   1.412   1.164   2.970  1.4120  1.9674  0.4897
13862TIP3    H263002   1.416   1.072   3.090 -2.5780  0.1352 -0.5994
13863TIP3   OH263003   2.635   3.348   2.038 -0.2679 -0.1425 -0.4562
13863TIP3    H163004   2.723   3.318   2.014 -0.0078  2.2241 -3.0249
13863TIP3    H263005   2.637   3.355   2.133  2.9287  1.4096 -0.5165
13864TIP3   OH263006   0.105   2.715   4.478 -0.6319 -0.1352  0.2989
13864TIP3    H163007   0.106   2.639   4.420 -0.3508 -0.3819  0.6191
13864TIP3    H263008   0.198   2.737   4.489 -0.6898 -0.0290  0.5774
13865TIP3   OH263009   6.277   5.076  16.069  0.1661  0.1429 -0.0971
13865TIP3    H163010   6.322   4.993  16.076  0.0096  0.0906  0.3134
13865TIP3    H263011   6.326   5.136  16.125 -1.9547 -0.6544  2.8303
13866TIP3   OH263012   3.507   5.683   4.284 -0.3362  0.0792 -0.3070
13866TIP3    H163013   3.568   5.746   4.323 -0.1387  0.1502 -0.7244
13866TIP3    H263014   3.533   5.599   4.320  0.4335  0.0169 -0.9716
13867TIP3   OH263015   1.004   4.692   2.381 -0.7232  0.5906  0.0460
13867TIP3    H163016   1.018   4.617   2.439  1.5147  0.2851 -0.8246
13867TIP3    H263017   1.063   4.760   2.414 -1.6499  1.4813 -0.0693
13868TIP3   OH263018   5.297   6.641  16.128  0.1881 -0.0977  0.6000
13868TIP3    H163019   5.282   6.614  16.037 -2.4785  0.6415  0.7328
13868TIP3    H263020   5.357   6.575  16.162  1.4539 -0.2825 -1.7085
13869TIP3   OH263021   1.545   3.571  15.135 -0.2807  0.6628  0.4958
13869TIP3    H163022   1.546   3.520  15.055 -0.7571 -0.7599  1.3613
13869TIP3    H263023   1.585   3.514  15.201  0.8551  2.0890  1.1292
13870TIP3   OH263024   5.877   5.884   0.599 -0.1050 -0.0142  0.6629
13870TIP3    H163025   5.847   5.912   0.685  0.1387  0.3287  0.6414
13870TIP3    H263026   5.841   5.949   0.538 -0.9533 -0.7075  0.4037
13871TIP3   OH263027   1.836   6.321   1.281  0.8137  0.0456  0.0056
13871TIP3    H163028   1.811   6.314   1.373 -0.2451  0.7071 -0.2175
13871TIP3    H263029   1.767   6.274   1.234  0.8137  0.5698 -0.5189
13872TIP3   OH263030   0.489   6.365   3.384  0.1594  0.0711 -0.0711
13872TIP3    H163031   0.581   6.377   3.407 -0.1893  1.2668  0.7786
13872TIP3    H263032   0.459   6.293   3.440  0.2114  0.6547  0.7142
13873TIP3   OH263033   4.405   4.085   0.240  0.0531 -0.7756  0.4968
13873TIP3    H163034   4.480   4.115   0.190 -0.5853  0.3642  0.1798
13873TIP3    H263035   4.419   4.119   0.328 -1.4434  2.0429 -0.2203
13874TIP3   OH263036   4.206   1.968  13.650  0.4108  0.1288 -0.4860
13874TIP3    H163037   4.243   1.880  13.641 -0.8563 -1.0926  3.7967
13874TIP3    H263038   4.281   2.023  13.670  0.7785 -1.2311  2.4870
13875TIP3   OH263039   5.797   1.111   5.526 -0.5090 -0.2234 -0.5676
13875TIP3    H163040   5.752   1.043   5.576 -0.5485 -1.6723 -2.4397
13875TIP3    H263041   5.877   1.130   5.576  0.3559 -2.9088 -0.7608
13876TIP3   OH263042   0.189   4.558  13.334  1.0616 -0.6455 -0.2312
13876TIP3    H163043   0.235   4.564  13.418 -0.2327 -1.2803  0.5519
13876TIP3    H263044   0.104   4.599  13.349  0.5184 -1.4339 -0.9957
13877TIP3   OH263045   5.603   5.495  13.980 -0.2274 -0.1883  0.1639
13877TIP3    H163046   5.535   5.438  14.015 -0.5531 -0.6445 -1.1592
13877TIP3    H263047   5.628   5.551  14.054  0.0492 -1.9737  1.4875
13878TIP3   OH263048   4.257   2.027  14.923 -0.0153  0.3804  0.5907
13878TIP3    H163049   4.208   2.100  14.886  0.6104  0.4826 -0.0400
13878TIP3    H263050   4.321   2.004  14.857  0.3519 -0.1977  1.1317
13879TIP3   OH263051   5.620   5.110  12.034 -0.3458  0.3468 -0.4792
13879TIP3    H163052   5.680   5.119  12.107 -0.6180 -1.1968 -0.0384
13879TIP3    H263053   5.656   5.040  11.980 -0.1859  1.4098 -1.8173
13880TIP3   OH263054   0.546   6.642  14.070 -0.2054 -0.6541  0.3131
13880TIP3    H163055   0.532   6.595  14.153 -0.7947  0.3193  0.7802
13880TIP3    H263056   0.474   6.705  14.066  0.2406 -0.1904 -0.5980
13881TIP3   OH263057   2.768   3.245  11.188 -0.3169  0.0538 -0.0609
13881TIP3    H163058   2.836   3.287  11.240  0.7292 -0.9690 -0.5771
13881TIP3    H263059   2.760   3.157  11.225  1.5756 -1.2856 -2.5249
13882TIP3   OH263060   0.459   3.925  16.265 -0.3445 -0.0109  0.1220
13882TIP3    H163061   0.416   3.843  16.239 -0.5746  0.3574 -0.6789
13882TIP3    H263062   0.540   3.897  16.307  0.5078 -0.6295 -1.8345
13883TIP3   OH263063   5.608   4.542  13.492  0.2956  0.1958  0.1685
13883TIP3    H163064   5.680   4.603  13.474  1.2605 -0.8027  0.4888
13883TIP3    H263065   5.640   4.489  13.566  0.0368 -1.5175 -0.8993
13884TIP3   OH263066   3.172   6.427   5.200 -0.3651 -0.0728 -0.5343
13884TIP3    H163067   3.218   6.481   5.265 -0.9759  0.7689 -0.7779
13884TIP3    H263068   3.079   6.437   5.223 -0.5002 -0.8390 -0.7299
13885TIP3   OH263069   0.355   2.171  15.479 -0.4630  0.3018  0.1194
13885TIP3    H163070   0.304   2.244  15.443 -0.3384  1.1352  1.5770
13885TIP3    H263071   0.409   2.142  15.405 -1.2985  0.9542 -0.7882
13886TIP3   OH263072   6.575   1.535   3.455 -0.6441 -0.1793  0.0384
13886TIP3    H163073   6.514   1.559   3.524 -0.4421 -0.2854  0.2558
13886TIP3    H263074   6.546   1.449   3.425 -0.5636 -0.2582  0.1859
13887TIP3   OH263075   5.702   2.901  16.667 -1.1053  0.1093  0.1950
13887TIP3    H163076   5.784   2.873  16.626 -1.9837 -1.2297 -0.7422
13887TIP3    H263077   5.674   2.977  16.617 -1.0942 -0.2339 -0.3371
13888TIP3   OH263078   5.164   0.419   3.580 -0.0079 -0.1793 -0.3833
13888TIP3    H163079   5.070   0.411   3.600 -0.2416 -0.7026 -1.5733
13888TIP3    H263080   5.169   0.402   3.486  1.3399 -0.5347 -0.2574
13889TIP3   OH263081   3.025   4.428   3.056 -0.6773  0.4284 -0.1526
13889TIP3    H163082   3.113   4.407   3.026 -0.5717  0.1981  0.3242
13889TIP3    H263083   3.001   4.357   3.115 -1.0308  0.6915  0.0275
13890TIP3   OH263084   3.073   4.896  12.507  0.3717 -0.2780  0.2243
13890TIP3    H163085   2.980   4.897  12.486  0.2721  1.1755  0.6765
13890TIP3    H263086   3.077   4.893  12.603  0.6941  3.2559  0.4422
13891TIP3   OH263087   4.291   0.772  14.982 -0.2701 -0.0298  0.5775
13891TIP3    H163088   4.253   0.860  14.976 -1.2780 -0.5392 -1.6597
13891TIP3    H263089   4.287   0.750  15.075 -1.0342  1.8337  1.0286
13892TIP3   OH263090   3.679   5.161  15.164  0.6686 -0.0885 -0.8244
13892TIP3    H163091   3.632   5.227  15.214  1.0467  0.5110 -1.2454
13892TIP3    H263092   3.715   5.102  15.229 -0.2246 -0.2688 -0.4701
13893TIP3   OH263093   1.569   6.446  13.280 -0.2690  0.9792 -0.3776
13893TIP3    H163094   1.513   6.448  13.357  0.6954  2.3495  0.3378
13893TIP3    H263095   1.586   6.353  13.264 -0.8937  0.6588  0.7400
13894TIP3   OH263096   3.970   0.007  11.438 -0.3933 -0.1772 -0.1882
13894TIP3    H163097   3.971  -0.063  11.372 -2.6225 -0.8427  0.3783
13894TIP3    H263098   3.988  -0.037  11.521 -0.2414  0.1972 -0.0206
13895TIP3   OH263099   4.531   1.576  13.037 -0.3860 -0.1658 -0.1876
13895TIP3    H163100   4.568   1.527  13.110 -0.9285  0.2428  0.3690
13895TIP3    H263101   4.457   1.624  13.075 -0.8753 -0.1996 -1.0727
13896TIP3   OH263102   0.457   3.956  11.658  0.3534  0.0898  0.1213
13896TIP3    H163103   0.526   3.992  11.601  0.3907  0.6991  0.5404
13896TIP3    H263104   0.376   3.969  11.610  0.6225 -1.8283 -0.9742
13897TIP3   OH263105   1.618   0.435   1.318  0.2547 -0.3198  0.1112
13897TIP3    H163106   1.564   0.439   1.397  0.2059 -1.0363  0.1162
13897TIP3    H263107   1.628   0.342   1.300  0.9912 -0.1831 -0.2365
13898TIP3   OH263108   4.114   0.599  14.858 -0.0469 -0.1061  0.5481
13898TIP3    H163109   4.191   0.650  14.884 -0.0806  0.0563  0.3258
13898TIP3    H263110   4.039   0.654  14.884 -0.0981  0.9721 -1.6376
13899TIP3   OH263111   1.830   4.669   2.544 -0.6127 -0.3024  0.4468
13899TIP3    H163112   1.753   4.689   2.598 -1.1133 -0.7356 -0.0895
13899TIP3    H263113   1.821   4.726   2.467 -1.1162 -1.2943 -0.2517
13900TIP3   OH263114   1.750   0.918   3.258  1.1774 -0.3766  0.0403
13900TIP3    H163115   1.718   1.008   3.253 -0.4403 -0.9252 -0.1178
13900TIP3    H263116   1.699   0.871   3.191  2.3237 -1.3238 -0.1959
13901TIP3   OH263117   4.919   2.689   5.720  0.1636  0.3236  0.0628
13901TIP3    H163118   4.834   2.677   5.677 -2.3378  1.1065  4.2197
13901TIP3    H263119   4.939   2.782   5.707 -0.7010  0.6179  0.7579
13902TIP3   OH263120   1.406   6.676  15.494  0.1897 -0.0841  0.1969
13902TIP3    H163121   1.328   6.724  15.523  1.0629  0.5011  1.6769
13902TIP3    H263122   1.409   6.691  15.399  0.5808  3.1415  0.5937
13903TIP3   OH263123   1.996   6.746  15.786  0.3392  0.0737 -0.0869
13903TIP3    H163124   2.037   6.780  15.866 -0.2492  2.3827 -0.6698
13903TIP3    H263125   1.993   6.822  15.727  0.1276 -1.3852 -2.0494
13904TIP3   OH263126   5.669   2.253  14.527  0.3488  0.4436  0.8172
13904TIP3    H163127   5.708   2.165  14.532  0.3200  0.4487  1.1437
13904TIP3    H263128   5.744   2.312  14.525  0.6179  0.3046 -3.7125
13905TIP3   OH263129   1.793   1.775  16.815 -0.2769 -0.1726  0.3026
13905TIP3    H163130   1.815   1.868  16.823 -3.0053  0.7580 -1.3718
13905TIP3    H263131   1.762   1.750  16.902  0.1966  0.5652  0.6912
13906TIP3   OH263132   2.516   3.062  15.386  0.7539  0.6002  0.7218
13906TIP3    H163133   2.482   2.985  15.433  1.5738  0.4629  1.1052
13906TIP3    H263134   2.518   3.131  15.452  2.5423  0.2310  1.1010
13907TIP3   OH263135   2.097   5.692   2.466  0.5957 -0.0902  0.6561
13907TIP3    H163136   2.166   5.709   2.401 -1.5919 -0.9503 -2.0759
13907TIP3    H263137   2.105   5.764   2.529  2.0378  1.5633 -1.2891
13908TIP3   OH263138   0.244   0.305   6.047  0.3838 -0.5129  0.4502
13908TIP3    H163139   0.226   0.372   6.113 -1.1070  1.9974 -2.2836
13908TIP3    H263140   0.326   0.332   6.006 -0.9436  0.6019 -1.6380
13909TIP3   OH263141   6.780   5.187  13.031 -0.1753 -0.1637 -0.0762
13909TIP3    H163142   6.873   5.165  13.022  0.3417  1.9922 -0.5024
13909TIP3    H263143   6.754   5.217  12.944 -0.8974  0.5146  0.3556
13910TIP3   OH263144   5.729   5.722  14.394  0.1787 -0.0133 -0.3260
13910TIP3    H163145   5.796   5.788  14.413 -0.1077  0.6997 -1.6475
13910TIP3    H263146   5.650   5.755  14.436  0.0844  0.4122 -0.8196
13911TIP3   OH263147   0.633   0.022   5.288  0.5471 -0.3166  0.4730
13911TIP3    H163148   0.608   0.105   5.327 -0.5095 -0.4482  0.0941
13911TIP3    H263149   0.666   0.045   5.201 -0.4974 -0.3480  0.0513
13912TIP3   OH263150   0.983   3.247  15.938 -0.6072  0.0221  0.1731
13912TIP3    H163151   0.955   3.222  15.850  0.7465 -0.6745 -0.0839
13912TIP3    H263152   0.910   3.222  15.994 -0.1198 -2.8673 -0.3124
13913TIP3   OH263153   4.377   4.650   6.099 -0.3945  0.1688  0.3922
13913TIP3    H163154   4.341   4.634   6.186 -0.5355  1.7237  0.6582
13913TIP3    H263155   4.468   4.623   6.105 -0.6264 -0.5520  0.7514
13914TIP3   OH263156   3.745   3.531   0.144 -0.5373 -0.2833  0.1471
13914TIP3    H163157   3.793   3.453   0.113 -1.2978 -0.2669 -1.1257
13914TIP3    H263158   3.724   3.579   0.065 -0.0161  1.2849  0.9265
13915TIP3   OH263159   6.714   4.195   0.992  0.0940 -0.1995  0.0959
13915TIP3    H163160   6.723   4.265   0.927  0.2966 -1.8603 -1.7558
13915TIP3    H263161   6.804   4.176   1.019 -0.0577  1.2666  1.8172
13916TIP3   OH263162   4.175   5.429   2.427 -0.3838  0.2603 -0.8076
13916TIP3    H163163   4.137   5.490   2.363  1.6229  0.8565 -1.4938
13916TIP3    H263164   4.149   5.343   2.395 -2.4391  0.6523 -0.3623
13917TIP3   OH263165   3.216   2.905   1.445  0.0490 -1.2484 -0.0488
13917TIP3    H163166   3.187   2.819   1.477 -2.2016  0.6077  3.5660
13917TIP3    H263167   3.148   2.932   1.384 -1.0032 -0.7617  1.2986
13918TIP3   OH263168   3.879   0.079   3.212  0.3116  0.6243 -0.0281
13918TIP3    H163169   3.887   0.051   3.121  0.1030 -1.8160  0.6354
13918TIP3    H263170   3.967   0.066   3.248  0.9920  3.6563 -0.3327
13919TIP3   OH263171   2.582   3.448  12.784 -0.2518  0.1888  0.5260
13919TIP3    H163172   2.540   3.363  12.772  0.8036 -0.6743  2.4835
13919TIP3    H263173   2.522   3.510  12.743 -1.4632 -1.3981 -0.2049
13920TIP3   OH263174   3.435   5.393   5.675 -0.3863  0.6468  0.3590
13920TIP3    H163175   3.505   5.360   5.732  0.5761  2.6368  0.4153
13920TIP3    H263176   3.466   5.374   5.586 -0.7285 -0.2308  0.4140
13921TIP3   OH263177   6.056   5.709  16.925 -0.0769 -0.1909  0.6280
13921TIP3    H163178   6.149   5.693  16.940 -0.2131 -1.4900  0.1474
13921TIP3    H263179   6.055   5.780  16.860  0.5633  0.1798  1.0094
13922TIP3   OH263180   1.888   4.277   1.005 -0.0571 -0.2007  0.5486
13922TIP3    H163181   1.886   4.321   1.090  0.2639 -2.6387  1.9283
13922TIP3    H263182   1.982   4.269   0.985 -0.1346  0.5537 -0.1793
13923TIP3   OH263183   5.347   4.513  15.517 -0.1070 -0.2669 -0.3289
13923TIP3    H163184   5.287   4.459  15.465 -1.1525  0.8975 -0.3758
13923TIP3    H263185   5.429   4.464  15.516 -0.9311 -1.7067 -0.6040
13924TIP3   OH263186   5.761   5.142  13.640  0.1359  0.3268 -0.0419
13924TIP3    H163187   5.844   5.182  13.666  0.3723 -1.1840  1.7739
13924TIP3    H263188   5.787   5.063  13.592 -0.2236 -0.1248  0.4874
13925TIP3   OH263189   4.033   4.622   6.242 -0.5062  0.3014 -0.0348
13925TIP3    H163190   4.111   4.567   6.236 -0.4282  0.5636 -2.8274
13925TIP3    H263191   4.042   4.685   6.170 -2.4677  1.4495  0.6478
13926TIP3   OH263192   2.118   3.959   5.695 -0.1550 -0.1959 -0.1049
13926TIP3    H163193   2.156   3.998   5.774 -1.4085  1.5080 -0.2991
13926TIP3    H263194   2.033   3.924   5.723  0.3405 -1.5858 -0.2499
13927TIP3   OH263195   6.587   3.488  11.003  0.1985 -0.4595 -0.6664
13927TIP3    H163196   6.639   3.501  10.923  0.7530  0.4006 -0.1760
13927TIP3    H263197   6.530   3.414  10.982  1.5901 -1.4121 -1.2389
13928TIP3   OH263198   6.098   4.804   2.258 -0.0396 -0.0164  0.5257
13928TIP3    H163199   6.187   4.775   2.277  0.5636  0.0255 -1.9352
13928TIP3    H263200   6.105   4.856   2.178 -1.9843  1.8754  1.4669
13929TIP3   OH263201   4.985   0.725   1.695  0.7205 -0.2341 -0.2645
13929TIP3    H163202   4.907   0.770   1.661  0.8602 -0.4816 -0.9403
13929TIP3    H263203   5.058   0.782   1.671  0.8765 -0.6888 -0.9215
13930TIP3   OH263204   3.024   5.271  16.634 -0.9663 -0.2078  0.0592
13930TIP3    H163205   3.074   5.351  16.621 -0.0657 -0.7643  0.0698
13930TIP3    H263206   3.089   5.201  16.634 -1.6119 -0.8380  1.1798
13931TIP3   OH263207   3.450   2.410   2.125  0.2547 -0.3610 -0.3832
13931TIP3    H163208   3.531   2.459   2.131  2.2238 -3.2167 -1.3490
13931TIP3    H263209   3.469   2.326   2.169 -1.6036 -1.7585 -2.0445
13932TIP3   OH263210   3.098   6.071   1.533  0.3274 -0.2886  0.0395
13932TIP3    H163211   3.071   6.075   1.441 -0.1182  1.4076  0.2161
13932TIP3    H263212   3.181   6.022   1.531  0.6161  0.2079 -1.3496
13933TIP3   OH263213   1.562   2.622  10.990  0.4162  0.0534  0.4257
13933TIP3    H163214   1.579   2.536  10.950 -3.3290 -0.9196  0.6051
13933TIP3    H263215   1.521   2.673  10.920  0.2632  0.8306  1.0729
13934TIP3   OH263216   0.217   1.059   4.746 -0.7396  0.3684 -0.4602
13934TIP3    H163217   0.147   1.007   4.785 -0.2308 -0.8015 -1.0753
13934TIP3    H263218   0.232   1.020   4.660  1.9480 -0.6682  0.3714
13935TIP3   OH263219   5.935   0.792  16.330  0.1554 -0.2511  0.9477
13935TIP3    H163220   5.959   0.699  16.330 -2.3120 -0.9866  0.3341
13935TIP3    H263221   5.858   0.796  16.387 -1.4808  0.8382 -1.1725
13936TIP3   OH263222   4.316   2.914   0.593 -0.7256  0.0474 -0.2381
13936TIP3    H163223   4.248   2.974   0.624  1.1798  1.3734  1.6559
13936TIP3    H263224   4.364   2.964   0.527 -1.6359 -0.9612 -1.7331
13937TIP3   OH263225   1.100   4.554  11.749 -0.1018  0.4383 -0.3116
13937TIP3    H163226   1.138   4.537  11.663  0.0795 -1.3918  0.0852
13937TIP3    H263227   1.050   4.635  11.737  1.0597  1.0128 -1.7447
13938TIP3   OH263228   6.459   2.982   3.079  0.2839  0.4101  0.3515
13938TIP3    H163229   6.441   2.893   3.050  1.4527  0.4915 -0.6880
13938TIP3    H263230   6.376   3.028   3.069 -0.0448 -0.2876 -0.1846
13939TIP3   OH263231   0.536   6.186   0.095 -0.6659  0.3935  0.5086
13939TIP3    H163232   0.458   6.222   0.053 -2.0216 -0.8825  1.8069
13939TIP3    H263233   0.502   6.121   0.156  1.5609 -2.2300 -0.8265
13940TIP3   OH263234   6.214   5.332  13.207  0.3146  0.3296 -0.0490
13940TIP3    H163235   6.208   5.426  13.226 -1.6414  0.6710 -2.0114
13940TIP3    H263236   6.221   5.291  13.293 -0.7402  2.1539  0.9733
13941TIP3   OH263237   1.932   2.209   4.952  0.0624 -0.0110  0.4236
13941TIP3    H163238   1.943   2.263   4.874  3.2486  1.6340  1.7983
13941TIP3    H263239   1.992   2.136   4.939 -0.5694 -0.5905  0.6862
13942TIP3   OH263240   3.759   6.657   5.103  0.5918  0.4584 -0.0957
13942TIP3    H163241   3.739   6.750   5.111  0.8625  0.4598  0.6528
13942TIP3    H263242   3.852   6.655   5.077  0.5441  0.4002 -0.2608
13943TIP3   OH263243   0.772   2.482   5.231  0.2342 -0.2965  0.4571
13943TIP3    H163244   0.848   2.425   5.231 -1.6662 -3.0502  1.0995
13943TIP3    H263245   0.721   2.455   5.308 -0.8386  2.2631  0.7435
13944TIP3   OH263246   3.667   5.448   4.779 -0.2471  0.2961  0.0870
13944TIP3    H163247   3.645   5.538   4.754  1.3998  0.7951  0.3494
13944TIP3    H263248   3.587   5.398   4.760 -0.4084  1.3548 -2.3278
13945TIP3   OH263249   4.942   5.793   0.456 -0.4872 -0.0009  0.4835
13945TIP3    H163250   4.958   5.715   0.510  1.6748  0.2449  0.2960
13945TIP3    H263251   5.028   5.813   0.418 -1.4955  1.1488 -1.2749
13946TIP3   OH263252   3.234   3.087  13.288  0.4576 -0.1263  0.0953
13946TIP3    H163253   3.330   3.085  13.288  0.5618 -2.4785 -3.1338
13946TIP3    H263254   3.213   3.172  13.250  1.3432 -0.2864 -0.7965
13947TIP3   OH263255   1.608   3.638   4.940  0.3942  0.6923 -0.4690
13947TIP3    H163256   1.670   3.574   4.974  0.4224 -0.5661 -2.6956
13947TIP3    H263257   1.599   3.703   5.010  0.7851 -1.4349  1.6728
13948TIP3   OH263258   0.454   2.831   2.281  0.0511 -0.6942 -0.4521
13948TIP3    H163259   0.371   2.871   2.304  0.0129 -0.4409 -1.0109
13948TIP3    H263260   0.516   2.904   2.280  0.9727 -1.2494  2.9234
13949TIP3   OH263261   1.156   3.156   1.147 -0.1140 -0.5168 -0.4196
13949TIP3    H163262   1.160   3.114   1.061 -0.0174 -1.8826  0.2197
13949TIP3    H263263   1.244   3.145   1.183 -0.2594 -0.3031  0.0086
13950TIP3   OH263264   3.046   6.689  16.450  0.3733  0.7278  0.5532
13950TIP3    H163265   2.987   6.724  16.517  1.0386 -0.5389  1.8543
13950TIP3    H263266   3.044   6.594  16.463  2.2926  0.6170  0.3113
13951TIP3   OH263267   0.902   6.730  15.975  0.1329 -0.4598 -0.1102
13951TIP3    H163268   0.976   6.670  15.986  0.5801  0.1162  0.0690
13951TIP3    H263269   0.901   6.781  16.056  1.0925  1.2284 -1.1227
13952TIP3   OH263270   4.722   2.977  15.233  0.3178 -0.1772  0.1427
13952TIP3    H163271   4.682   3.064  15.245 -1.2815 -0.7474 -0.7234
13952TIP3    H263272   4.728   2.941  15.322 -1.8453 -0.3500  0.2713
13953TIP3   OH263273   1.919   1.050   6.250 -0.2401 -0.3661  0.0411
13953TIP3    H163274   1.996   1.076   6.301  0.9619 -0.8037 -1.4811
13953TIP3    H263275   1.846   1.094   6.293  0.8120 -0.0932  1.6509
13954TIP3   OH263276   2.503   4.876   5.705  0.5164  0.0275  0.5021
13954TIP3    H163277   2.557   4.953   5.719 -0.1241  0.3411  1.3058
13954TIP3    H263278   2.413   4.909   5.702  0.3209 -0.5324 -0.4209
13955TIP3   OH263279   4.356   0.702   2.297 -0.2004  0.3808  0.6722
13955TIP3    H163280   4.379   0.688   2.388 -0.6092 -0.4439  0.6544
13955TIP3    H263281   4.333   0.795   2.292  1.4755  0.8436  1.0279
13956TIP3   OH263282   4.452   0.389   3.160 -0.2662 -0.3119 -0.1073
13956TIP3    H163283   4.392   0.363   3.090 -1.6135 -0.8721  1.1971
13956TIP3    H263284   4.518   0.320   3.161  0.0312 -0.0612 -1.1047
13957TIP3   OH263285   5.390   4.193   5.405 -0.2415 -0.1053 -0.2451
13957TIP3    H163286   5.473   4.214   5.448 -0.4939  0.1532  0.1249
13957TIP3    H263287   5.396   4.235   5.319  0.5547 -1.2101 -0.7607
13958TIP3   OH263288   3.122   5.962  16.908 -0.4803 -0.0969  0.6159
13958TIP3    H163289   3.063   5.933  16.978  0.2062 -0.1056  1.2045
13958TIP3    H263290   3.147   6.050  16.933 -0.0296 -0.1943  0.5146
13959TIP3   OH263291   2.271   1.533  15.148 -0.1691 -0.1721  0.0335
13959TIP3    H163292   2.325   1.536  15.227 -0.3097 -0.3283  0.1386
13959TIP3    H263293   2.200   1.473  15.171 -0.3040 -0.0840 -0.1540
13960TIP3   OH263294   1.777   5.953   0.616 -0.0934  0.0836 -0.2804
13960TIP3    H163295   1.810   5.885   0.674 -1.0371  0.6502  0.9633
13960TIP3    H263296   1.704   5.912   0.570  0.9304 -0.5082 -1.4831
13961TIP3   OH263297   1.872   4.548  13.667  0.3040  0.1744 -0.4188
13961TIP3    H163298   1.786   4.582  13.691  0.3098 -0.5494  0.7352
13961TIP3    H263299   1.930   4.623  13.671 -0.5531  1.0859 -3.0657
13962TIP3   OH263300   6.203   1.511  15.765 -0.0938 -0.7067 -0.2560
13962TIP3    H163301   6.118   1.473  15.740 -0.5934  0.5141 -0.4699
13962TIP3    H263302   6.181   1.599  15.797  0.8770 -1.0706  1.5446
13963TIP3   OH263303   5.058   5.104   2.815  0.2789  0.5033  0.5604
13963TIP3    H163304   5.090   5.089   2.904  1.3814 -1.1914 -0.0891
13963TIP3    H263305   5.134   5.137   2.767 -0.0098  0.3438 -0.0159
13964TIP3   OH263306   0.454   6.303  16.741  0.4580  0.3984  0.1632
13964TIP3    H163307   0.425   6.332  16.827  0.2919  1.9488 -0.3748
13964TIP3    H263308   0.447   6.381  16.686 -0.3523 -0.7926 -1.4950
13965TIP3   OH263309   5.959   0.566  10.742  0.2443  0.2559  0.3510
13965TIP3    H163310   5.919   0.483  10.714  0.9518  0.0362 -0.0483
13965TIP3    H263311   5.998   0.601  10.662 -0.4365  1.2119  0.4247
13966TIP3   OH263312   3.665   2.555  15.465  0.2009 -0.1096  0.0947
13966TIP3    H163313   3.578   2.571  15.501 -0.5463 -1.3738 -1.0604
13966TIP3    H263314   3.656   2.575  15.371  0.7498 -1.6112 -0.2983
13967TIP3   OH263315   4.794   4.706   3.491  0.1647 -0.3646  0.7893
13967TIP3    H163316   4.846   4.683   3.568  1.0081  1.6632  0.8724
13967TIP3    H263317   4.841   4.664   3.418  0.6643 -0.3860  1.1155
13968TIP3   OH263318   1.293   5.640  13.815  0.5703  0.1944 -0.2536
13968TIP3    H163319   1.203   5.643  13.848  1.0941  1.6365  1.2115
13968TIP3    H263320   1.284   5.645  13.720 -0.9033  0.4691 -0.1192
13969TIP3   OH263321   1.316   3.893  13.302 -1.0216  0.2547  0.2390
13969TIP3    H163322   1.373   3.828  13.261  1.6900  2.5107  0.1149
13969TIP3    H263323   1.305   3.961  13.236  0.0285  2.0080  1.7648
13970TIP3   OH263324   1.215   6.196  13.217  0.1542  0.1111 -0.4307
13970TIP3    H163325   1.155   6.129  13.186 -0.5911  1.2661 -1.6125
13970TIP3    H263326   1.300   6.170  13.183 -0.0199 -0.5435 -0.3698
13971TIP3   OH263327   4.036   4.444  14.623 -0.1603 -0.1204 -0.0002
13971TIP3    H163328   4.072   4.503  14.558 -0.6521 -0.7956 -0.9223
13971TIP3    H263329   4.043   4.491  14.706  2.6404 -0.1587 -0.1361
13972TIP3   OH263330   3.939   0.653   2.440 -0.5926  0.0490 -0.2497
13972TIP3    H163331   3.950   0.724   2.376  0.6717  0.7040  0.6591
13972TIP3    H263332   3.928   0.697   2.524 -0.3360 -0.8311  0.2578
13973TIP3   OH263333   0.654   1.807   2.197  0.0393 -0.0908  0.1570
13973TIP3    H163334   0.666   1.790   2.104 -1.6094  1.6429 -0.4378
13973TIP3    H263335   0.739   1.787   2.237  1.0898  0.1293 -1.8685
13974TIP3   OH263336   1.997   3.654  14.593  0.2954 -0.4854  0.6389
13974TIP3    H163337   1.973   3.746  14.602 -0.9336 -0.8437  1.2403
13974TIP3    H263338   1.927   3.616  14.540  1.6368 -0.7629 -1.0237
13975TIP3   OH263339   0.169   3.185  14.869  0.0296  0.1746  0.4807
13975TIP3    H163340   0.104   3.255  14.873  0.2979  0.3890  1.3173
13975TIP3    H263341   0.148   3.137  14.789 -2.1373 -0.6646  1.4594
13976TIP3   OH263342   6.093   1.823   4.913  0.4458 -0.0959  0.0422
13976TIP3    H163343   6.070   1.731   4.921  0.0193  0.1658  2.7303
13976TIP3    H263344   6.143   1.828   4.831  0.7857 -2.7456 -0.0011
13977TIP3   OH263345   4.656   2.886   4.881 -0.4847  0.1401 -0.3798
13977TIP3    H163346   4.669   2.972   4.842 -0.5319  1.3138  2.0207
13977TIP3    H263347   4.617   2.833   4.811 -0.2356  1.9843 -1.9783
13978TIP3   OH263348   3.580   3.073   1.497 -0.2600 -0.1114  0.3801
13978TIP3    H163349   3.506   3.045   1.551  0.8483  1.1004  2.6524
13978TIP3    H263350   3.608   2.993   1.452 -2.1883 -0.8392  0.3793
13979TIP3   OH263351   4.287   6.269  12.642  0.0994 -0.4796 -0.0247
13979TIP3    H163352   4.365   6.244  12.592  0.1093  0.1652 -0.3457
13979TIP3    H263353   4.321   6.316  12.718  0.0583 -0.9908  0.3173
13980TIP3   OH263354   1.379   3.995  16.716 -0.5763 -0.4476  0.2975
13980TIP3    H163355   1.392   3.967  16.807 -1.3626 -0.1691  0.5055
13980TIP3    H263356   1.461   3.973  16.672 -0.0641 -0.3023  1.1502
13981TIP3   OH263357   4.112   3.842  15.606  0.8800 -0.1517  0.5808
13981TIP3    H163358   4.178   3.775  15.624 -0.4473 -1.7048 -0.0841
13981TIP3    H263359   4.159   3.909  15.556  2.4652 -0.0805  2.0864
13982TIP3   OH263360   1.197   5.794   5.234  0.4549  0.0138  0.2408
13982TIP3    H163361   1.146   5.725   5.191  1.3233  0.7559 -2.1500
13982TIP3    H263362   1.227   5.755   5.315 -0.4795 -1.8389 -0.2567
13983TIP3   OH263363   0.548   0.814   5.522  0.0122 -0.2859 -0.6277
13983TIP3    H163364   0.478   0.771   5.474  0.2450 -0.9069 -0.4340
13983TIP3    H263365   0.511   0.832   5.609 -0.4787  1.0344 -1.0839
13984TIP3   OH263366   5.641   3.681   1.454 -0.0599  0.1944  0.3021
13984TIP3    H163367   5.619   3.773   1.442 -2.6671 -0.2796  0.9014
13984TIP3    H263368   5.675   3.654   1.368  1.3329  1.7998  0.2878
13985TIP3   OH263369   0.260   5.772  15.764  0.4730  0.6218 -0.1080
13985TIP3    H163370   0.344   5.794  15.725  1.6008 -0.6140  1.5298
13985TIP3    H263371   0.280   5.751  15.855 -1.8671  2.0957  0.8392
13986TIP3   OH263372   1.318   2.935   6.086 -0.1595 -0.1897 -0.1787
13986TIP3    H163373   1.312   2.911   6.179  4.0725  0.1373  0.3878
13986TIP3    H263374   1.375   2.868   6.048  0.3518  1.1543 -1.9005
13987TIP3   OH263375   5.153   5.156   4.713  0.4152  0.1427  0.2661
13987TIP3    H163376   5.101   5.078   4.730  1.8370 -0.7678  0.5924
13987TIP3    H263377   5.225   5.152   4.776 -0.3003  2.5592  1.3541
13988TIP3   OH263378   4.769   4.240  16.581  0.1750  0.4889 -0.2226
13988TIP3    H163379   4.733   4.205  16.663 -0.3302  0.1853 -0.5721
13988TIP3    H263380   4.806   4.164  16.537  0.5847  0.6785 -0.2099
13989TIP3   OH263381   2.130   3.253  13.071  0.2391 -0.5950 -0.1386
13989TIP3    H163382   2.221   3.249  13.098  0.2391 -0.0465 -0.0436
13989TIP3    H263383   2.126   3.325  13.008 -0.1490 -0.5180 -0.0354
13990TIP3   OH263384   0.336   2.515   1.861  0.3792 -0.1278  0.1853
13990TIP3    H163385   0.424   2.495   1.894 -0.1795 -3.0803  0.1518
13990TIP3    H263386   0.311   2.595   1.906  2.3774 -0.2195  1.5737
13991TIP3   OH263387   5.640   2.270   5.048  1.3434 -0.7480 -0.4491
13991TIP3    H163388   5.681   2.226   5.122 -0.8446  1.4256  2.2985
13991TIP3    H263389   5.655   2.364   5.064 -1.8200 -0.0313 -0.9549
13992TIP3   OH263390   2.038   6.428   6.183 -0.4131 -0.4630 -0.2763
13992TIP3    H163391   2.071   6.479   6.256 -0.1413  3.1402 -2.6818
13992TIP3    H263392   1.949   6.461   6.168 -1.0107 -2.1608 -0.7333
13993TIP3   OH263393   1.898   2.618  14.711  0.2487 -0.6359  0.3700
13993TIP3    H163394   1.945   2.545  14.672  1.6991 -0.0471  0.9539
13993TIP3    H263395   1.945   2.637  14.793 -0.2434  0.7706  0.3609
13994TIP3   OH263396   3.286   6.545   2.296  0.0674  0.1904  0.1523
13994TIP3    H163397   3.233   6.484   2.349 -0.8592  0.6495 -0.2243
13994TIP3    H263398   3.313   6.494   2.221  1.3915 -0.4706  1.0449
13995TIP3   OH263399   3.139   4.952   4.173 -0.2829 -0.6325  0.0473
13995TIP3    H163400   3.119   4.937   4.266 -2.1770  1.1868  0.0020
13995TIP3    H263401   3.231   4.978   4.172 -0.3610 -0.2270  1.4710
13996TIP3   OH263402   2.464   6.265   5.241  0.2026  0.5303  0.5843
13996TIP3    H163403   2.518   6.189   5.262  0.6756  0.8547  0.5452
13996TIP3    H263404   2.423   6.243   5.158  0.6457  0.4806  0.3777
13997TIP3   OH263405   1.580   6.184   3.149 -0.0166 -0.4028  0.8582
13997TIP3    H163406   1.536   6.255   3.103 -0.0972 -1.3618 -0.6367
13997TIP3    H263407   1.669   6.216   3.166  0.4524 -0.4606 -1.2117
13998TIP3   OH263408   1.537   1.521   6.695 -0.4633  0.1898 -0.0889
13998TIP3    H163409   1.614   1.568   6.727 -0.9921  0.3488  1.0062
13998TIP3    H263410   1.573   1.444   6.650  0.3329 -0.6660  1.8838
13999TIP3   OH263411   5.542   2.873   3.053  0.1034  0.4654  0.3151
13999TIP3    H163412   5.458   2.918   3.038 -1.0369 -1.3551  0.8806
13999TIP3    H263413   5.517   2.788   3.091  2.1924 -0.3856 -0.0905
14000TIP3   OH263414   5.774   0.866   5.983 -0.1643  0.5827 -0.6898
14000TIP3    H163415   5.716   0.938   5.957  0.8469  0.8077 -2.4995
14000TIP3    H263416   5.740   0.790   5.938 -0.1835  0.2982 -0.2019
14001TIP3   OH263417   0.728   3.631  11.555 -0.0957  0.2097  0.0777
14001TIP3    H163418   0.824   3.629  11.553 -0.1102 -1.2604 -0.9627
14001TIP3    H263419   0.704   3.686  11.481 -0.0358 -1.3774 -1.1781
14002TIP3   OH263420   0.826   3.784   2.413  0.8187 -0.8780  0.2524
14002TIP3    H163421   0.780   3.722   2.356 -1.5353  1.5394 -0.7170
14002TIP3    H263422   0.764   3.803   2.483  1.2784  0.6470  0.2829
14003TIP3   OH263423   3.761   6.718   2.210 -0.0037  0.7834 -0.4110
14003TIP3    H163424   3.780   6.804   2.249 -0.3842  1.2965 -1.3404
14003TIP3    H263425   3.671   6.699   2.237  0.0818  0.6627 -0.2021
14004TIP3   OH263426   4.253   1.580   5.672  0.5623  0.5674 -0.0802
14004TIP3    H163427   4.241   1.629   5.590 -1.9165  1.1820  0.5930
14004TIP3    H263428   4.246   1.488   5.646  0.2458  0.7417 -0.6311
14005TIP3   OH263429   3.291   5.005   6.215 -0.3487  0.1182  0.1329
14005TIP3    H163430   3.225   5.047   6.271  1.2284  1.7306  0.9086
14005TIP3    H263431   3.337   4.945   6.273  1.2692  1.7673  0.6423
14006TIP3   OH263432   4.244   0.172  11.267  0.3497 -0.3747  0.0108
14006TIP3    H163433   4.282   0.214  11.189  0.2818 -2.2489 -1.0814
14006TIP3    H263434   4.305   0.193  11.337  0.0339  1.9989 -0.3143
14007TIP3   OH263435   3.893   2.976  12.226 -0.6087  0.0167 -0.0308
14007TIP3    H163436   3.952   3.046  12.198 -1.3437  0.6772  0.0359
14007TIP3    H263437   3.826   3.020  12.277 -0.0220 -0.9908  1.6812
14008TIP3   OH263438   3.518   0.108  10.389 -0.1762 -1.0851 -0.8006
14008TIP3    H163439   3.605   0.122  10.352  1.1432  0.0474  2.4276
14008TIP3    H263440   3.471   0.190  10.373  0.0903 -0.9101 -0.6743
14009TIP3   OH263441   1.449   1.003   1.662  0.0166 -0.3119 -0.5557
14009TIP3    H163442   1.505   0.942   1.710 -0.0437  0.3648  0.4172
14009TIP3    H263443   1.510   1.068   1.626  0.0746 -0.8945 -1.5274
14010TIP3   OH263444   0.645   0.819  12.690 -0.4390  0.2555  0.1395
14010TIP3    H163445   0.551   0.830  12.702 -0.3891  0.6109  0.2152
14010TIP3    H263446   0.684   0.892  12.738 -0.0123 -1.1096  1.9880
14011TIP3   OH263447   5.387   5.706  12.515  0.5055  0.2941  0.0680
14011TIP3    H163448   5.360   5.688  12.425 -4.0188  0.8009  1.0984
14011TIP3    H263449   5.385   5.621  12.558 -1.2208  0.5384  0.5125
14012TIP3   OH263450   3.757   1.424  11.324 -1.0081 -0.3609 -0.1839
14012TIP3    H163451   3.725   1.412  11.413  1.3514 -0.4021  0.7343
14012TIP3    H263452   3.822   1.494  11.331 -1.1173 -0.0183 -1.9952
14013TIP3   OH263453   5.559   3.942  15.962 -0.4321  0.2400  0.3456
14013TIP3    H163454   5.542   3.855  16.000 -0.8628  0.2704  0.2211
14013TIP3    H263455   5.652   3.957  15.980 -0.4147 -0.1358  0.5981
14014TIP3   OH263456   4.028   1.561  11.226 -0.0143 -0.3461  0.2607
14014TIP3    H163457   4.053   1.470  11.210 -1.0415 -0.5793 -0.0724
14014TIP3    H263458   4.111   1.607  11.239  0.4603 -1.7446  2.7674
14015TIP3   OH263459   3.240   3.650  16.627 -0.2419  0.7505  0.3631
14015TIP3    H163460   3.197   3.720  16.579 -0.1946  0.6029  0.1023
14015TIP3    H263461   3.296   3.607  16.562  1.3218  1.7634  0.9843
14016TIP3   OH263462   1.396   6.364  11.540 -0.7306 -0.1596 -0.0963
14016TIP3    H163463   1.443   6.421  11.479  1.3617 -0.6879  0.9006
14016TIP3    H263464   1.341   6.309  11.484 -0.5143  0.8094 -1.3078
14017TIP3   OH263465   4.662   4.592   0.189  0.4482 -0.0480  0.0375
14017TIP3    H163466   4.719   4.567   0.262  0.9354  2.6146  0.6629
14017TIP3    H263467   4.611   4.666   0.222 -0.2059  0.4448 -1.9431
14018TIP3   OH263468   0.486   1.960   3.443  0.0343  0.2628  0.2546
14018TIP3    H163469   0.533   2.036   3.477 -0.2573  0.8859 -0.6733
14018TIP3    H263470   0.394   1.988   3.442  0.2455  1.3409 -3.4913
14019TIP3   OH263471   6.661   2.863  16.625  0.3160 -0.0407 -0.4129
14019TIP3    H163472   6.711   2.924  16.571  0.5550 -0.5911 -0.8184
14019TIP3    H263473   6.611   2.811  16.563  0.7433 -0.8136 -0.1218
14020TIP3   OH263474   0.183   4.269   0.222 -0.4647 -0.5235  0.2589
14020TIP3    H163475   0.129   4.191   0.218  0.3962 -1.1448  0.4239
14020TIP3    H263476   0.261   4.242   0.271  0.0896  0.2881 -0.1442
14021TIP3   OH263477   5.952   1.251   3.200 -0.1019 -0.6203 -0.0152
14021TIP3    H163478   6.047   1.264   3.192  0.1349 -2.9493 -2.1783
14021TIP3    H263479   5.943   1.169   3.247 -1.0886 -0.2896  0.3925
14022TIP3   OH263480   6.559   5.744   5.910 -0.1739  0.0138  0.1841
14022TIP3    H163481   6.544   5.652   5.888  0.3179  0.2859 -1.3594
14022TIP3    H263482   6.471   5.782   5.910 -0.2659 -0.1946 -0.3681
14023TIP3   OH263483   1.053   2.198  11.723 -0.0365 -0.6471  0.4926
14023TIP3    H163484   1.090   2.272  11.676 -0.4829 -0.9404 -0.3293
14023TIP3    H263485   0.962   2.221  11.738 -0.3310 -1.2641 -0.2756
14024TIP3   OH263486   5.411   6.273  12.172  0.6593 -0.7263 -0.3622
14024TIP3    H163487   5.417   6.263  12.078  2.2626  1.1599 -0.5351
14024TIP3    H263488   5.401   6.368  12.186  1.9575 -0.7814  1.3749
14025TIP3   OH263489   0.972   2.366  14.140 -0.1514 -0.3908 -0.4382
14025TIP3    H163490   0.910   2.294  14.142  0.1782 -0.6689 -0.0702
14025TIP3    H263491   0.974   2.394  14.049 -1.3782  0.1160 -0.3304
14026TIP3   OH263492   5.052   2.596  11.157 -0.1631 -0.0014  0.0682
14026TIP3    H163493   5.063   2.665  11.091 -1.4458 -0.7438 -0.9573
14026TIP3    H263494   4.960   2.571  11.152  0.2356 -1.7171  0.4989
14027TIP3   OH263495   3.318   4.405   0.908 -0.8384 -0.2507 -0.1197
14027TIP3    H163496   3.359   4.488   0.929  1.2781 -1.4125  0.5804
14027TIP3    H263497   3.376   4.339   0.944 -1.9397 -2.0864 -1.5064
14028TIP3   OH263498   2.443   1.452   4.294 -0.1358 -0.1004  0.0503
14028TIP3    H163499   2.493   1.403   4.358 -0.1294 -0.0517  0.0828
14028TIP3    H263500   2.509   1.498   4.242 -0.1820  1.1097  1.0020
14029TIP3   OH263501   0.266   0.071   2.951 -0.3347  0.1340  0.0866
14029TIP3    H163502   0.322  -0.003   2.975 -0.6791 -0.2065 -0.1672
14029TIP3    H263503   0.209   0.037   2.882  2.2602  1.6833 -3.1703
14030TIP3   OH263504   0.103   2.812  10.992 -0.4121 -0.2659  0.1146
14030TIP3    H163505   0.021   2.780  10.955 -0.5433  1.6558 -1.3666
14030TIP3    H263506   0.082   2.830  11.084 -1.3714 -0.7230 -0.0046
14031TIP3   OH263507   3.208   4.288  13.024  0.1070 -0.2481 -0.4825
14031TIP3    H163508   3.242   4.310  12.938  1.6936  0.2029  0.2206
14031TIP3    H263509   3.133   4.346  13.036  1.2461  1.3272 -0.6621
14032TIP3   OH263510   4.273   5.290   1.449  0.0095 -0.0301  0.6114
14032TIP3    H163511   4.220   5.320   1.376  2.3450 -0.0044 -1.2125
14032TIP3    H263512   4.278   5.365   1.508 -1.8116 -0.0107  0.7850
14033TIP3   OH263513   3.191   0.773  11.944  0.0986 -0.3291  0.1632
14033TIP3    H163514   3.251   0.845  11.924 -0.4976  0.2250  0.3207
14033TIP3    H263515   3.246   0.705  11.982  0.7750 -0.2124 -0.5725
14034TIP3   OH263516   4.936   4.216  11.806 -0.3053 -0.4557  0.0014
14034TIP3    H163517   4.860   4.198  11.751  0.2597 -0.7016 -0.7285
14034TIP3    H263518   4.930   4.310  11.825 -2.0662 -0.8909  1.9782
14035TIP3   OH263519   0.512   2.042  15.287  0.7183 -0.2690  0.2371
14035TIP3    H163520   0.567   2.108  15.245  0.3993  0.0955  0.3849
14035TIP3    H263521   0.470   1.996  15.215 -0.9044  1.2660  0.1495
14036TIP3   OH263522   0.076   2.039   5.917 -0.0794 -0.0489  0.4900
14036TIP3    H163523   0.097   2.020   6.008 -0.9020 -0.3799  0.6204
14036TIP3    H263524  -0.013   2.005   5.905  0.3388 -0.8125 -0.6720
14037TIP3   OH263525   0.749   3.812  12.704  0.4814  0.3067  0.2651
14037TIP3    H163526   0.719   3.863  12.629 -1.2759 -0.8178  0.1353
14037TIP3    H263527   0.735   3.869  12.780 -0.3145  0.4868 -0.0058
14038TIP3   OH263528   4.792   5.228   4.242 -0.3306  0.1209 -0.2266
14038TIP3    H163529   4.798   5.294   4.172  1.2604  0.1488 -0.0901
14038TIP3    H263530   4.827   5.271   4.319  2.2784 -1.3326 -0.4977
14039TIP3   OH263531   2.895   0.558   5.007 -0.3272  0.9956  0.5197
14039TIP3    H163532   2.822   0.515   5.052 -0.8275  0.5148 -0.7239
14039TIP3    H263533   2.880   0.652   5.021 -1.6280  0.9469 -0.3535
14040TIP3   OH263534   5.869   5.597  13.521 -0.3775  0.0197 -0.0927
14040TIP3    H163535   5.823   5.513  13.516  0.3820 -0.4627  0.6272
14040TIP3    H263536   5.800   5.662  13.532 -0.9061 -0.6747  0.8871
14041TIP3   OH263537   4.508   0.252  12.715  0.4943 -0.1362 -0.2097
14041TIP3    H163538   4.589   0.214  12.682  0.0120 -0.8895 -0.5639
14041TIP3    H263539   4.467   0.181  12.766  0.3028  0.3983  0.4019
14042TIP3   OH263540   4.721   1.829  15.359  0.2691  0.1546  0.5018
14042TIP3    H163541   4.724   1.746  15.313 -0.9998 -1.0153  2.3837
14042TIP3    H263542   4.757   1.810  15.446  0.3430  1.6732  0.8364
14043TIP3   OH263543   2.314   2.596   2.415  0.4101  0.7814  0.5393
14043TIP3    H163544   2.363   2.677   2.426 -0.2533  1.6434 -2.1588
14043TIP3    H263545   2.289   2.595   2.323 -2.3309 -0.9574  1.1861
14044TIP3   OH263546   4.030   3.441  15.544  0.1473 -0.2182  0.3127
14044TIP3    H163547   3.998   3.396  15.467  0.4455 -1.6800  1.0145
14044TIP3    H263548   4.122   3.461  15.525  0.4066 -1.1688  0.5363
14045TIP3   OH263549   3.682   6.439  11.453 -0.6609 -0.3613  0.8192
14045TIP3    H163550   3.776   6.424  11.462 -0.4437  0.8204  0.6735
14045TIP3    H263551   3.649   6.362  11.407  0.5490  0.0645 -0.8410
14046TIP3   OH263552   5.754   3.445  11.793 -0.5296 -0.0437  0.3140
14046TIP3    H163553   5.796   3.423  11.709 -1.2570 -0.0306 -0.0645
14046TIP3    H263554   5.823   3.434  11.858  0.1798  0.4021 -0.3416
14047TIP3   OH263555   6.311   6.371   2.035 -0.1093  0.0372  0.0491
14047TIP3    H163556   6.228   6.324   2.045 -0.8183  1.4890  1.3251
14047TIP3    H263557   6.311   6.398   1.943 -0.1948 -1.4823 -0.4217
14048TIP3   OH263558   6.386   0.639  14.487 -0.0412  0.5100 -0.4239
14048TIP3    H163559   6.428   0.556  14.509  0.0575  0.6261 -0.1654
14048TIP3    H263560   6.303   0.638  14.535  0.9610  1.5334  1.4299
14049TIP3   OH263561   3.296   4.286   2.460 -0.5422  0.3861 -0.2422
14049TIP3    H163562   3.254   4.311   2.542  0.5031 -1.2319  0.8579
14049TIP3    H263563   3.238   4.220   2.422  1.4405 -2.9784  2.0176
14050TIP3   OH263564   3.196   2.154  11.104 -0.3466 -0.1127 -0.1956
14050TIP3    H163565   3.274   2.166  11.049 -0.4221  0.3004 -0.2122
14050TIP3    H263566   3.153   2.077  11.067 -1.8551  1.6863 -2.4709
14051TIP3   OH263567   1.917   6.696  15.169 -0.0110 -0.1241 -0.3726
14051TIP3    H163568   1.980   6.660  15.232 -2.0453 -0.8032  1.3941
14051TIP3    H263569   1.968   6.757  15.117  2.3521 -1.4836  0.1966
14052TIP3   OH263570   5.234   6.455   3.605  0.0656 -0.0644 -0.1191
14052TIP3    H163571   5.150   6.450   3.559  0.3761  1.4686 -0.9196
14052TIP3    H263572   5.214   6.503   3.685  0.4405  1.9043 -1.1324
14053TIP3   OH263573   1.501   5.855  13.128  0.1284 -0.0185  0.6569
14053TIP3    H163574   1.570   5.920  13.113  0.1462  0.1588  1.4624
14053TIP3    H263575   1.547   5.772  13.140  0.0190 -0.7706 -2.9852
14054TIP3   OH263576   4.681   2.505  14.574  0.0048  0.2839  0.0041
14054TIP3    H163577   4.628   2.450  14.517 -3.7372  3.2884  0.1954
14054TIP3    H263578   4.671   2.593  14.539 -0.4215  1.9184  3.7524
14055TIP3   OH263579   4.271   3.031  14.761 -0.2287  0.0406 -0.3487
14055TIP3    H163580   4.336   3.098  14.740  0.4744 -0.7506 -0.7806
14055TIP3    H263581   4.201   3.044  14.697  0.6276 -0.6061 -1.4553
14056TIP3   OH263582   6.462   3.108  11.211  0.1735  0.7514  0.3842
14056TIP3    H163583   6.557   3.098  11.222  0.1774  1.6857  1.3919
14056TIP3    H263584   6.446   3.200  11.230 -0.8376  0.8158 -0.6626
14057TIP3   OH263585   3.608   4.983   0.138  0.2083  0.9400 -0.2081
14057TIP3    H163586   3.605   5.059   0.080 -1.2777  1.1507  0.1076
14057TIP3    H263587   3.592   5.019   0.225 -1.5046  0.1899 -0.1728
14058TIP3   OH263588   0.022   1.311  10.865  0.0544  0.1053 -0.9034
14058TIP3    H163589  -0.059   1.357  10.889  0.0876  0.2353 -1.0377
14058TIP3    H263590   0.068   1.372  10.808  0.4032  0.1599 -0.5659
14059TIP3   OH263591   6.531   1.579   6.111  0.1982 -0.1087 -0.3233
14059TIP3    H163592   6.468   1.513   6.082  0.0920 -0.1784  0.0503
14059TIP3    H263593   6.552   1.554   6.201 -0.3615  0.7441  0.0613
14060TIP3   OH263594   3.289   5.436  13.963 -0.2694  0.0620 -0.0211
14060TIP3    H163595   3.245   5.519  13.983  0.0888  0.2706 -0.1024
14060TIP3    H263596   3.219   5.371  13.969 -1.0536  0.6141 -2.0262
14061TIP3   OH263597   3.101   6.762   1.301 -0.0079 -0.6743 -0.6259
14061TIP3    H163598   3.085   6.698   1.231  0.3348 -0.0370 -1.2983
14061TIP3    H263599   3.096   6.847   1.257 -3.8662  0.0229  0.8242
14062TIP3   OH263600   0.441   1.401   1.814 -0.1428 -0.2598 -0.0178
14062TIP3    H163601   0.500   1.469   1.847 -0.5220 -0.6551  1.5317
14062TIP3    H263602   0.499   1.329   1.788  0.1683  0.0867 -0.2933
14063TIP3   OH263603   1.522   5.398   4.479  0.1391  0.4316 -0.1012
14063TIP3    H163604   1.517   5.493   4.465  0.9946  0.6174  0.7413
14063TIP3    H263605   1.567   5.365   4.401  2.8267  1.1584  1.0460
14064TIP3   OH263606   6.171   6.268   3.485 -0.2900 -0.6173  0.2579
14064TIP3    H163607   6.121   6.309   3.415  1.2675 -0.8018 -1.0185
14064TIP3    H263608   6.197   6.340   3.543  0.1713 -0.1532 -0.5128
14065TIP3   OH263609   1.686   1.879   4.886  0.4926 -0.1793 -0.4559
14065TIP3    H163610   1.636   1.860   4.807 -0.1493  0.7704 -0.2954
14065TIP3    H263611   1.703   1.973   4.881  1.6787 -0.3609 -0.1647
14066TIP3   OH263612   2.124   1.267  12.977 -0.1875 -0.4620  0.1419
14066TIP3    H163613   2.170   1.223  12.906 -0.0304 -1.5043  0.8669
14066TIP3    H263614   2.040   1.221  12.982 -0.3386 -0.1599  0.3951
14067TIP3   OH263615   2.940   0.366   2.049 -0.8612 -0.4563 -0.2718
14067TIP3    H163616   2.946   0.432   2.118  1.8684 -1.6761  0.8177
14067TIP3    H263617   3.007   0.390   1.986 -0.3713 -1.7294 -0.2588
14068TIP3   OH263618   4.653   3.122   2.397  0.3744  0.0508 -0.6745
14068TIP3    H163619   4.637   3.068   2.475  2.2743  3.5070  2.3855
14068TIP3    H263620   4.732   3.085   2.358  0.2093 -0.8978 -0.1429
14069TIP3   OH263621   4.468   1.132  13.629 -0.4078  0.2221 -0.0696
14069TIP3    H163622   4.555   1.126  13.668  0.5913 -1.4135 -2.3149
14069TIP3    H263623   4.414   1.171  13.698  1.4677 -1.2394  2.4167
14070TIP3   OH263624   3.587   1.349  11.024  0.1021  0.0218 -0.3001
14070TIP3    H163625   3.625   1.436  11.039 -0.3972  0.2185 -0.1710
14070TIP3    H263626   3.581   1.341  10.929 -0.8355  0.5607 -0.2949
14071TIP3   OH263627   3.645   2.268   0.796 -0.3925  0.0105 -0.1784
14071TIP3    H163628   3.550   2.264   0.809 -0.3886 -0.2696 -0.2340
14071TIP3    H263629   3.655   2.278   0.701 -0.3254 -1.8821 -0.4146
14072TIP3   OH263630   2.933   3.840  16.007  0.3852 -0.2355 -0.0474
14072TIP3    H163631   2.926   3.778  15.934 -0.6765  2.5845 -2.5482
14072TIP3    H263632   3.024   3.868  16.006  0.4365 -0.3999 -0.0798
14073TIP3   OH263633   1.904   6.470  16.933 -0.5235  0.5474 -0.2869
14073TIP3    H163634   1.812   6.443  16.937 -0.2459 -0.5454 -0.7891
14073TIP3    H263635   1.952   6.389  16.915  0.8691  0.5109  2.9978
14074TIP3   OH263636   3.786   3.851  12.031  0.0371  0.2848  0.5247
14074TIP3    H163637   3.813   3.783  11.969  0.5840  1.0079 -0.0384
14074TIP3    H263638   3.790   3.808  12.117 -1.1543 -0.8621  0.0462
14075TIP3   OH263639   6.492   2.956   1.488  0.7383  0.3413  0.3900
14075TIP3    H163640   6.457   2.868   1.473 -0.2776  0.9064 -0.7939
14075TIP3    H263641   6.441   2.990   1.561 -0.4356  0.7201 -0.5666
14076TIP3   OH263642   0.562   2.748   0.300 -0.9106  0.0952 -0.2510
14076TIP3    H163643   0.507   2.722   0.374 -1.0573  0.4480 -0.2331
14076TIP3    H263644   0.646   2.706   0.316 -1.6700 -1.9557 -1.1872
14077TIP3   OH263645   2.824   6.492   2.255  0.0877 -0.1949 -0.0354
14077TIP3    H163646   2.803   6.564   2.194 -0.5494 -0.1175  0.2634
14077TIP3    H263647   2.837   6.535   2.339  3.4141 -0.0031 -0.5305
14078TIP3   OH263648   2.424   3.607  12.615  0.0554  0.3273  0.4276
14078TIP3    H163649   2.385   3.617  12.528  0.5355 -0.8168  0.0549
14078TIP3    H263650   2.443   3.696  12.643 -1.1568  0.7853 -0.1403
14079TIP3   OH263651   3.958   1.997   4.712  0.1041 -0.4060 -0.1426
14079TIP3    H163652   4.026   1.958   4.767 -0.1963  0.5065  0.9098
14079TIP3    H263653   3.976   2.091   4.715 -1.5460 -0.0821  0.6411
14080TIP3   OH263654   5.792   2.257   5.268  0.1379 -0.3893 -0.4962
14080TIP3    H163655   5.755   2.345   5.263  0.0600 -0.3617  0.4301
14080TIP3    H263656   5.837   2.254   5.352  0.3362 -1.1587 -0.6195
14081TIP3   OH263657   4.438   4.082   5.306 -0.4162  0.3966  0.1744
14081TIP3    H163658   4.501   4.149   5.280 -0.5437  1.2168  1.8741
14081TIP3    H263659   4.389   4.121   5.378 -3.6789  0.2231 -1.7322
14082TIP3   OH263660   2.217   2.991  12.722 -0.4733  0.4619  0.1325
14082TIP3    H163661   2.276   3.057  12.687 -1.0387  1.1875  0.5281
14082TIP3    H263662   2.275   2.927  12.764  0.1560  0.0288 -1.3260
14083TIP3   OH263663   0.849   0.004  14.160  0.2423  0.3620 -0.2924
14083TIP3    H163664   0.829  -0.022  14.250 -0.5088  0.8798 -0.3112
14083TIP3    H263665   0.789  -0.048  14.106  0.2136  0.5700 -0.4592
14084TIP3   OH263666   2.371   2.547   5.879 -0.2648 -0.3826 -0.0199
14084TIP3    H163667   2.422   2.587   5.950 -1.4121 -0.6447  1.0015
14084TIP3    H263668   2.293   2.603   5.872  0.9538  1.1257 -2.8460
14085TIP3   OH263669   6.698   1.793   2.116 -0.1921  0.5904  0.6142
14085TIP3    H163670   6.654   1.864   2.162 -1.0281 -0.2033  1.0778
14085TIP3    H263671   6.693   1.817   2.024 -2.0070  0.3159  0.6188
14086TIP3   OH263672   0.184   2.520  16.394 -0.0731  0.2225 -0.0081
14086TIP3    H163673   0.218   2.440  16.434  1.5393  0.7798 -0.1926
14086TIP3    H263674   0.139   2.490  16.315  1.0005 -0.4713 -0.3766
14087TIP3   OH263675   2.653   5.141   1.347 -0.3335  0.1548  0.1734
14087TIP3    H163676   2.626   5.064   1.397 -0.5847  0.8121  1.0901
14087TIP3    H263677   2.720   5.109   1.287 -1.7198 -1.1169 -0.7540
14088TIP3   OH263678   5.172   0.056  13.566 -0.9565  0.1696 -0.1863
14088TIP3    H163679   5.152   0.092  13.480  0.4417  2.0096  0.1859
14088TIP3    H263680   5.143   0.123  13.627 -2.1475 -1.2151  0.8329
14089TIP3   OH263681   3.881   4.103  16.904  0.0134 -0.1434 -0.3348
14089TIP3    H163682   3.901   4.171  16.968  0.8274 -2.8057  2.4882
14089TIP3    H263683   3.946   4.115  16.834  0.3677  1.6651  0.2655
14090TIP3   OH263684   6.088   6.638   5.300 -0.0529 -0.4437 -0.6031
14090TIP3    H163685   5.997   6.638   5.331  0.3376 -0.3785  0.5832
14090TIP3    H263686   6.108   6.731   5.286  0.7381 -0.1139  2.0365
14091TIP3   OH263687   1.063   3.647   6.429  0.5361 -0.0358 -0.0851
14091TIP3    H163688   1.009   3.583   6.382  0.6360 -0.0017 -0.2482
14091TIP3    H263689   1.012   3.670   6.506  0.5373 -0.3818  0.0212
14092TIP3   OH263690   1.025   5.389   4.053  0.5769 -0.4104 -0.2865
14092TIP3    H163691   0.994   5.477   4.073 -1.7896 -0.7235 -2.0967
14092TIP3    H263692   1.118   5.391   4.076  0.4065  2.2490  0.5838
14093TIP3   OH263693   6.692   0.521   3.675 -0.0250  0.2693 -0.1098
14093TIP3    H163694   6.707   0.486   3.763  0.3814 -0.9211 -0.6413
14093TIP3    H263695   6.631   0.460   3.635  0.2393  0.4863 -0.8540
14094TIP3   OH263696   2.122   3.540  12.613  0.2974  0.0754 -0.1448
14094TIP3    H163697   2.079   3.582  12.539  1.4239  0.3377 -0.6685
14094TIP3    H263698   2.149   3.454  12.580  1.9082  0.6635 -0.4642
14095TIP3   OH263699   5.814   1.994  12.971  0.5846 -0.1740  0.5071
14095TIP3    H163700   5.881   2.010  13.037  0.9829  1.2614 -0.2071
14095TIP3    H263701   5.749   2.063  12.985  0.9853  0.5562 -0.9651
14096TIP3   OH263702   2.255   0.320   0.892  0.5310 -0.2930  0.2887
14096TIP3    H163703   2.282   0.307   0.983  1.8122  1.9763  0.3380
14096TIP3    H263704   2.169   0.361   0.898  0.2358 -0.9383  0.4472
14097TIP3   OH263705   4.361   6.130  12.089  0.0189 -0.1823 -0.5586
14097TIP3    H163706   4.316   6.107  12.009 -2.2731 -1.2986  0.9655
14097TIP3    H263707   4.331   6.219  12.109  1.1160  0.3612 -1.2535
14098TIP3   OH263708   2.571   3.697   0.502  0.4733  0.8412 -0.0270
14098TIP3    H163709   2.510   3.651   0.559 -2.4240  3.1335 -1.0216
14098TIP3    H263710   2.628   3.746   0.561  0.7965 -0.5765  0.8931
14099TIP3   OH263711   2.449   1.441   5.592  0.1458 -0.0259 -0.2883
14099TIP3    H163712   2.502   1.449   5.512 -0.4201  0.9937 -0.5810
14099TIP3    H263713   2.387   1.514   5.586 -1.5902 -1.4252 -0.1906
14100TIP3   OH263714   4.745   2.835  13.281  0.2645  0.5519  0.4410
14100TIP3    H163715   4.683   2.778  13.236  0.7133 -0.2706  0.8547
14100TIP3    H263716   4.798   2.873  13.211  0.1207  0.2788  0.1853
14101TIP3   OH263717   2.564   3.204   5.273 -0.1769 -0.0232 -0.1281
14101TIP3    H163718   2.602   3.236   5.354  0.0782 -0.4090 -0.0886
14101TIP3    H263719   2.512   3.128   5.299 -0.1843 -0.0818 -0.3094
14102TIP3   OH263720   0.948   6.510   4.079 -0.1380  0.4583  0.1187
14102TIP3    H163721   0.977   6.543   3.994  0.2397 -0.5382 -0.1586
14102TIP3    H263722   0.855   6.490   4.067 -0.4493  1.6865  0.3843
14103TIP3   OH263723   0.059   1.706  16.646 -1.2947  0.3867  0.5297
14103TIP3    H163724   0.134   1.759  16.623 -1.6433  1.1845  1.1868
14103TIP3    H263725   0.072   1.624  16.598 -0.8335  1.1102 -0.6242
14104TIP3   OH263726   1.421   2.953   4.869  0.5657  0.1784  0.7231
14104TIP3    H163727   1.416   2.861   4.843  0.4816  0.2794  0.3781
14104TIP3    H263728   1.347   2.965   4.928  0.0300  0.2499  0.0488
14105TIP3   OH263729   6.052   1.274  16.007 -0.1951 -0.3708 -0.3712
14105TIP3    H163730   6.008   1.189  16.000  0.0220 -0.4504 -0.8326
14105TIP3    H263731   6.132   1.263  15.955 -0.9690  0.6241 -1.8507
14106TIP3   OH263732   6.401   6.119  11.801 -0.2237  0.4099 -0.0120
14106TIP3    H163733   6.471   6.116  11.867  0.1921 -0.7239 -0.4828
14106TIP3    H263734   6.354   6.201  11.820 -1.8891 -1.1319  3.4618
14107TIP3   OH263735   1.738   2.246   2.342  0.4998 -0.0325  0.1542
14107TIP3    H163736   1.646   2.245   2.316  0.0243  1.7370  1.5672
14107TIP3    H263737   1.745   2.178   2.409  0.3631 -0.5376 -0.3381
14108TIP3   OH263738   6.774   0.788  17.094  0.2805 -0.3412  0.5448
14108TIP3    H163739   6.683   0.805  17.119  0.4432  1.5995  0.0206
14108TIP3    H263740   6.775   0.799  16.999  0.7726 -1.9833  0.3308
14109TIP3   OH263741   5.754   5.921   2.313  0.3561 -0.1619  0.0062
14109TIP3    H163742   5.751   5.828   2.337 -0.5604 -0.1694 -0.0869
14109TIP3    H263743   5.670   5.956   2.341  0.6608  0.6301 -0.0300
14110TIP3   OH263744   4.979   5.272  16.620 -0.0138  0.1069  0.5964
14110TIP3    H163745   4.958   5.192  16.668  1.1742  0.0972  1.1323
14110TIP3    H263746   5.061   5.252  16.575 -0.0346  0.8175  0.2279
14111TIP3   OH263747   4.893   3.423   4.298  0.3711  0.6829  0.3046
14111TIP3    H163748   4.980   3.425   4.259  1.0518  0.9231  1.7804
14111TIP3    H263749   4.839   3.475   4.238  0.8939 -0.5798 -1.3407
14112TIP3   OH263750   2.716   0.570  16.087  0.2669 -0.4326  0.6710
14112TIP3    H163751   2.701   0.494  16.031  0.1269  1.0025 -1.3674
14112TIP3    H263752   2.674   0.548  16.170 -1.6171 -1.7542 -0.5505
14113TIP3   OH263753   6.059   4.924  15.083 -0.0549  0.2449 -0.2133
14113TIP3    H163754   6.143   4.903  15.123  0.4393  1.0345 -0.7965
14113TIP3    H263755   6.067   4.893  14.992 -0.5585 -0.0661 -0.1550
14114TIP3   OH263756   4.255   2.081   3.741 -0.8036 -0.3576 -0.3151
14114TIP3    H163757   4.310   2.141   3.792  0.3063 -1.3643 -0.2746
14114TIP3    H263758   4.246   2.125   3.656 -0.8569  0.3316  0.0341
14115TIP3   OH263759   2.137   6.706  12.928  0.1961 -0.1868  0.5397
14115TIP3    H163760   2.045   6.686  12.908  0.7954 -1.8893 -0.8396
14115TIP3    H263761   2.178   6.712  12.842  0.9383  3.2034  1.0148
14116TIP3   OH263762   6.160   5.797   2.931 -0.2762  0.5284  0.5203
14116TIP3    H163763   6.131   5.749   3.009 -1.7909  3.0953  1.6619
14116TIP3    H263764   6.229   5.855   2.964  1.4810 -0.6681 -0.8273
14117TIP3   OH263765   6.231   3.713   2.556  0.2453  0.2546  0.1693
14117TIP3    H163766   6.237   3.634   2.610 -2.0674 -1.2826 -1.6193
14117TIP3    H263767   6.245   3.785   2.617  0.7010 -1.4719  2.2201
14118TIP3   OH263768   5.176   2.914   2.924 -0.1023  0.4083  0.3099
14118TIP3    H163769   5.166   2.992   2.869 -0.8538  0.8532  1.0673
14118TIP3    H263770   5.228   2.945   2.998  0.2606 -0.0118  0.2349
14119TIP3   OH263771   2.985   6.301   3.393 -0.0656 -0.1052  0.1479
14119TIP3    H163772   2.964   6.287   3.486 -1.3672  1.1714  0.0832
14119TIP3    H263773   2.952   6.389   3.374 -1.6700 -1.1099 -2.0476
14120TIP3   OH263774   0.606   3.984   0.815 -0.0201  0.4469 -0.1938
14120TIP3    H163775   0.649   3.914   0.765  1.7723  1.5055 -0.2043
14120TIP3    H263776   0.565   4.039   0.749 -0.4307  0.0592 -0.2656
14121TIP3   OH263777   5.249   1.009  13.726  0.0152  1.0820  0.3748
14121TIP3    H163778   5.283   1.058  13.652 -0.3547  1.5391  0.5016
14121TIP3    H263779   5.301   0.928  13.728 -0.7240  0.5483 -1.0621
14122TIP3   OH263780   3.976   3.741  11.667 -0.5111  0.4028  0.3730
14122TIP3    H163781   4.055   3.752  11.719 -0.9847  1.4115  0.9094
14122TIP3    H263782   3.989   3.799  11.591 -1.3125  1.6782  1.1763
14123TIP3   OH263783   6.765   5.493  15.131  0.0299  0.2436  0.3821
14123TIP3    H163784   6.695   5.471  15.069  0.4782  1.5349 -0.6513
14123TIP3    H263785   6.767   5.420  15.193  0.8305 -2.1234 -2.2291
14124TIP3   OH263786   6.499   1.383   2.017  0.3494  0.0029  0.5670
14124TIP3    H163787   6.502   1.332   1.937 -0.7556  0.9057 -0.0711
14124TIP3    H263788   6.574   1.443   2.011 -0.5821  1.1027 -0.5302
14125TIP3   OH263789   0.033   3.973  12.006 -0.3009 -0.0690 -0.9416
14125TIP3    H163790   0.013   3.986  11.914  0.6143  0.5834 -1.0568
14125TIP3    H263791   0.022   4.059  12.046 -0.9538 -0.4019 -0.3854
14126TIP3   OH263792   6.461   5.776  16.494 -0.4993  0.2049  0.3145
14126TIP3    H163793   6.427   5.823  16.419  0.0833  0.8301  0.4305
14126TIP3    H263794   6.485   5.690  16.460  1.2924  1.0190 -0.6010
14127TIP3   OH263795   4.563   2.669   3.526 -0.3589  0.2270 -0.0874
14127TIP3    H163796   4.636   2.696   3.582  1.0755 -0.4283 -1.5479
14127TIP3    H263797   4.531   2.750   3.487  0.9137  0.3233 -0.9605
14128TIP3   OH263798   5.708   6.584  16.541  0.0128  0.4178  0.2542
14128TIP3    H163799   5.781   6.637  16.509  1.2341 -0.5295  1.3305
14128TIP3    H263800   5.690   6.617  16.629  1.5232 -1.5364  1.3891
14129TIP3   OH263801   6.303   6.408   0.926  0.3181 -0.4564  0.5691
14129TIP3    H163802   6.351   6.476   0.972 -0.8466  0.0639  1.0509
14129TIP3    H263803   6.317   6.329   0.978 -0.2510 -0.0656  1.3289
14130TIP3   OH263804   5.255   3.295   0.161 -0.3544  0.0750  0.3056
14130TIP3    H163805   5.225   3.349   0.234 -1.1196  0.6706 -0.4269
14130TIP3    H263806   5.277   3.359   0.092 -1.2268 -0.5248 -0.5619
14131TIP3   OH263807   6.624   0.685   4.610  0.2123  0.4984  0.3247
14131TIP3    H163808   6.623   0.633   4.690 -1.9576 -0.0661 -0.0059
14131TIP3    H263809   6.701   0.654   4.563 -0.1439 -1.3365  0.8542
14132TIP3   OH263810   3.869   2.916  15.258 -0.5812 -0.4755  0.5741
14132TIP3    H163811   3.962   2.934  15.274 -0.8399  1.1204  0.4692
14132TIP3    H263812   3.868   2.865  15.177  0.1954 -0.2208  0.3926
14133TIP3   OH263813   4.239   3.382  16.446 -0.8110 -0.1560  1.2610
14133TIP3    H163814   4.287   3.411  16.368 -1.3222  1.4009  1.4831
14133TIP3    H263815   4.172   3.322  16.412  0.2903 -1.1324  0.7713
14134TIP3   OH263816   5.719   4.642  16.789  0.0471  0.3453 -0.0254
14134TIP3    H163817   5.782   4.656  16.860  1.5822  2.9294 -1.7258
14134TIP3    H263818   5.703   4.729  16.753 -0.1963 -0.8567 -3.2090
14135TIP3   OH263819   4.798   0.941   0.921 -0.4612 -0.1656 -0.1529
14135TIP3    H163820   4.882   0.986   0.909  0.5603 -1.7195  0.6797
14135TIP3    H263821   4.794   0.879   0.847 -0.9437  0.0115 -0.2725
14136TIP3   OH263822   3.461   5.781   0.739 -0.2333  0.7231  0.5202
14136TIP3    H163823   3.552   5.813   0.737  0.9636 -2.2956  1.1458
14136TIP3    H263824   3.449   5.736   0.656 -0.3148 -0.8965  1.3806
14137TIP3   OH263825   0.088   6.184   3.560 -0.0903  0.1038 -0.2045
14137TIP3    H163826   0.019   6.216   3.502  0.4752 -0.8307 -1.4380
14137TIP3    H263827   0.041   6.148   3.636 -0.8809  0.5829 -0.4537
14138TIP3   OH263828   6.221   1.140   4.258  0.5498 -0.6107  0.5984
14138TIP3    H163829   6.249   1.049   4.254 -0.7244 -1.0888  1.8053
14138TIP3    H263830   6.126   1.137   4.242  0.0829  0.2260  2.8419
14139TIP3   OH263831   1.431   4.566   5.064  0.3302 -0.0264 -0.4496
14139TIP3    H163832   1.338   4.583   5.049  0.6150  1.3990 -0.7597
14139TIP3    H263833   1.438   4.470   5.063 -1.1916 -0.1728  0.0226
14140TIP3   OH263834   6.442   3.249  12.042 -0.3739  0.2451 -0.0751
14140TIP3    H163835   6.481   3.289  11.965  0.1982 -1.4630 -0.7204
14140TIP3    H263836   6.350   3.276  12.039 -0.4696 -0.1346 -1.6227
14141TIP3   OH263837   0.859   1.817  16.200  0.0599  0.3845  0.1072
14141TIP3    H163838   0.898   1.753  16.260 -0.1791  0.4530  0.3388
14141TIP3    H263839   0.778   1.774  16.171 -0.1922  0.6514  0.4025
14142TIP3   OH263840   5.099   4.314   2.067 -0.3638 -0.0438  0.1271
14142TIP3    H163841   5.127   4.362   1.989 -0.5767  3.7792  2.1278
14142TIP3    H263842   5.071   4.383   2.128 -1.4522 -2.8715  3.1167
14143TIP3   OH263843   3.165   1.773   3.387  0.3986  0.1324 -0.9326
14143TIP3    H163844   3.207   1.846   3.433 -1.7982  0.9083 -0.0245
14143TIP3    H263845   3.077   1.804   3.367 -1.0655 -2.6473  0.5916
14144TIP3   OH263846   0.854   4.186  12.164  0.0939  0.6251  0.2259
14144TIP3    H163847   0.787   4.245  12.130 -3.1671 -2.3824  0.8032
14144TIP3    H263848   0.927   4.194  12.103 -2.2929  1.3001 -2.7754
14145TIP3   OH263849   1.350   6.528  11.136 -1.0159 -0.3823  0.9420
14145TIP3    H163850   1.361   6.501  11.045 -1.3252  0.0705  0.7639
14145TIP3    H263851   1.355   6.624  11.132 -0.0786 -0.3938  1.5302
14146TIP3   OH263852   2.374   2.658   0.944 -0.3402  0.5416  0.1606
14146TIP3    H163853   2.327   2.652   1.028 -2.5404  0.5815 -0.9856
14146TIP3    H263854   2.341   2.584   0.893  0.6458  0.7594 -0.8251
14147TIP3   OH263855   4.813   4.865  12.314  0.0270  0.4789 -0.3586
14147TIP3    H163856   4.722   4.835  12.315  0.1936 -0.0611  0.9378
14147TIP3    H263857   4.807   4.960  12.300 -0.7843  0.5445  0.3211
14148TIP3   OH263858   4.390   1.894   0.866  0.1797 -0.0905 -0.0559
14148TIP3    H163859   4.415   1.852   0.784  2.0895  2.6966 -1.0730
14148TIP3    H263860   4.318   1.952   0.841  1.0563  1.0927  0.0650
14149TIP3   OH263861   4.764   5.786   0.901  0.1994 -0.3525 -0.7497
14149TIP3    H163862   4.784   5.741   0.983  0.9696  1.3218  0.0276
14149TIP3    H263863   4.710   5.861   0.926 -1.0831 -0.7941 -2.0160
14150TIP3   OH263864   3.858   1.592   4.761 -0.1806 -0.1581  0.0023
14150TIP3    H163865   3.862   1.635   4.676 -1.9505 -0.4788 -0.2847
14150TIP3    H263866   3.841   1.663   4.823 -0.0880 -0.0767 -0.0642
14151TIP3   OH263867   5.032   3.138   3.555 -0.3097  0.7714  0.2418
14151TIP3    H163868   5.096   3.204   3.526 -0.1019  0.6752  0.4811
14151TIP3    H263869   5.083   3.058   3.564 -0.9970 -0.0999 -2.5362
14152TIP3   OH263870   0.333   4.513   2.680  0.1903 -0.3805 -0.2751
14152TIP3    H163871   0.370   4.501   2.592 -1.5444 -2.4692 -0.8144
14152TIP3    H263872   0.258   4.572   2.666  0.8523  0.5864  0.1247
14153TIP3   OH263873   5.008   4.170   3.270 -0.3664 -0.1177  0.3060
14153TIP3    H163874   4.988   4.262   3.286 -0.5272 -0.4201  1.9757
14153TIP3    H263875   5.103   4.164   3.279 -0.3752 -0.1498  0.3743
14154TIP3   OH263876   0.054   1.472  12.166 -0.4627  0.8946 -0.3189
14154TIP3    H163877   0.094   1.533  12.228 -0.1832 -1.6039  2.1274
14154TIP3    H263878   0.128   1.420  12.132 -0.6802  1.8480 -2.4257
14155TIP3   OH263879   6.510   6.324  10.950  1.2087  0.0435  0.2884
14155TIP3    H163880   6.438   6.383  10.927  1.3033  0.3411  0.7357
14155TIP3    H263881   6.581   6.350  10.892  0.6842 -0.8549 -0.7917
14156TIP3   OH263882   1.643   6.169  14.528 -0.2242 -0.1613 -0.0948
14156TIP3    H163883   1.550   6.149  14.529 -0.7522  1.9902  0.3097
14156TIP3    H263884   1.676   6.127  14.449 -1.4473 -1.2728 -0.0460
14157TIP3   OH263885   3.101   1.254   2.970 -0.1194 -0.6717 -0.2712
14157TIP3    H163886   3.067   1.294   3.050 -1.1879  2.0146 -1.9217
14157TIP3    H263887   3.042   1.179   2.954  1.2039 -2.4055  2.2775
14158TIP3   OH263888   2.859   3.564  14.445 -0.1890  0.4923  0.7478
14158TIP3    H163889   2.888   3.531  14.359 -0.8018 -0.7278  0.9878
14158TIP3    H263890   2.930   3.622  14.473 -0.3388  1.6036 -0.9444
14159TIP3   OH263891   2.930   4.604  13.448 -0.7918  0.2882  0.1537
14159TIP3    H163892   2.909   4.625  13.357 -1.0171 -0.8870 -0.0753
14159TIP3    H263893   2.992   4.672  13.474 -0.3589  0.3667 -1.0262
14160TIP3   OH263894   3.092   3.345   3.413 -0.1702 -0.2678 -0.4078
14160TIP3    H163895   3.040   3.385   3.344  0.2370  0.1347 -0.4872
14160TIP3    H263896   3.118   3.419   3.469 -2.1304 -0.7912  1.3108
14161TIP3   OH263897   4.588   4.658  11.143 -0.3133 -0.8087  0.2193
14161TIP3    H163898   4.601   4.689  11.054 -0.3121 -1.9997 -0.2140
14161TIP3    H263899   4.496   4.678  11.162 -0.6518 -1.6199 -0.4977
14162TIP3   OH263900   3.491   0.565   0.701 -0.4627 -0.2152 -0.7024
14162TIP3    H163901   3.493   0.471   0.679  0.0215 -0.6928  1.1833
14162TIP3    H263902   3.529   0.608   0.625 -0.9627 -1.5181 -1.7388
14163TIP3   OH263903   4.783   1.192  15.541 -0.3653 -0.2522  0.1217
14163TIP3    H163904   4.864   1.145  15.560  0.4958  1.0211 -0.3245
14163TIP3    H263905   4.720   1.123  15.519  0.1994 -1.3611  1.7454
14164TIP3   OH263906   1.089   0.906   6.181  0.5768  0.3798 -0.2924
14164TIP3    H163907   1.099   0.811   6.175  2.1706  0.6009 -1.7735
14164TIP3    H263908   1.145   0.941   6.112  3.4660  2.5840  2.8249
14165TIP3   OH263909   4.859   2.867  15.914 -0.7928  0.0839 -0.2889
14165TIP3    H163910   4.804   2.790  15.932  0.4486 -1.1991 -1.6513
14165TIP3    H263911   4.947   2.831  15.902  0.1387  1.9380  0.5917
14166TIP3   OH263912   4.222   5.897   1.360  0.7068  0.6308  0.0265
14166TIP3    H163913   4.221   5.991   1.378 -1.9927  0.7584 -0.4265
14166TIP3    H263914   4.214   5.891   1.265  2.8199 -0.1118 -0.1616
14167TIP3   OH263915   2.250   5.929   0.803 -0.0086  0.5652 -0.2109
14167TIP3    H163916   2.286   5.858   0.750  0.9411  1.2299 -0.4939
14167TIP3    H263917   2.216   5.886   0.881 -1.5748 -0.4547 -1.4070
14168TIP3   OH263918   0.231   1.076   5.572  0.0640  0.0527 -0.2881
14168TIP3    H163919   0.137   1.094   5.570  0.3492  1.6194 -0.2548
14168TIP3    H263920   0.248   1.027   5.492 -0.9828 -1.3915  0.3309
14169TIP3   OH263921   4.463   0.680  16.142  0.5020  0.7514  0.4385
14169TIP3    H163922   4.399   0.610  16.126  0.4700  0.8861 -0.0375
14169TIP3    H263923   4.467   0.688  16.237  0.7336 -0.1181  0.5132
14170TIP3   OH263924   5.359   2.950  12.878 -0.5238  0.0633  0.3210
14170TIP3    H163925   5.339   2.994  12.795 -0.1938 -0.4681 -0.0456
14170TIP3    H263926   5.372   3.021  12.940  1.8266  0.5781 -0.6682
14171TIP3   OH263927   5.384   3.411  16.069 -0.1794 -0.9562  0.1265
14171TIP3    H163928   5.323   3.413  16.142  0.4301 -2.1285  0.6932
14171TIP3    H263929   5.448   3.479  16.090 -0.4413 -0.7553  0.2869
14172TIP3   OH263930   3.933   0.091  16.534 -0.0890  0.0858  0.2108
14172TIP3    H163931   3.968   0.141  16.608 -1.6116  0.9321  0.3964
14172TIP3    H263932   3.856   0.141  16.505 -0.6131 -1.2171 -0.7528
14173TIP3   OH263933   0.030   0.779  16.494  0.2363  0.5280  0.4300
14173TIP3    H163934   0.075   0.845  16.545  0.3721  0.0895  0.8884
14173TIP3    H263935   0.027   0.814  16.405  2.8792 -0.1009  0.0220
14174TIP3   OH263936   0.914   3.155  13.367  0.0566  0.2839  0.3408
14174TIP3    H163937   0.926   3.240  13.327  0.4906  1.4245  2.7090
14174TIP3    H263938   0.977   3.098  13.323 -0.4888  1.0508 -1.5147
14175TIP3   OH263939   6.713   3.913  10.787  0.3391  0.5261 -0.1711
14175TIP3    H163940   6.626   3.927  10.824 -0.1577 -0.4954 -0.8917
14175TIP3    H263941   6.712   3.959  10.703 -0.6653 -2.0359 -1.6808
14176TIP3   OH263942   0.196   0.141  16.042  0.0798 -0.0878 -0.0897
14176TIP3    H163943   0.190   0.139  16.138  0.5433 -1.5962 -0.0631
14176TIP3    H263944   0.124   0.198  16.015  0.1377  0.6399  1.1559
14177TIP3   OH263945   6.486   6.717  14.123  0.3611  0.0471 -0.5549
14177TIP3    H163946   6.489   6.768  14.204  0.3940 -0.0526 -0.4935
14177TIP3    H263947   6.569   6.670  14.122  1.0438  1.2282 -1.4137
14178TIP3   OH263948   0.183   4.498   1.203  0.1909 -0.4642  0.5119
14178TIP3    H163949   0.242   4.521   1.131 -1.2260  0.9342 -0.2535
14178TIP3    H263950   0.241   4.486   1.278  1.4967  0.4141 -0.3108
14179TIP3   OH263951   1.481   5.235   0.674  0.2684  0.3115 -0.2016
14179TIP3    H163952   1.410   5.197   0.622 -0.9412  0.2838  1.4342
14179TIP3    H263953   1.547   5.259   0.608 -1.9096  1.8893 -1.9535
14180TIP3   OH263954   4.688   2.041  15.597 -0.2822 -0.2372 -0.3512
14180TIP3    H163955   4.677   1.969  15.659 -1.1114 -0.6881 -1.0015
14180TIP3    H263956   4.599   2.060  15.567 -0.1888  1.6246  0.4119
14181TIP3   OH263957   0.318   1.604  15.179 -0.2846  0.0702  0.4500
14181TIP3    H163958   0.331   1.676  15.241 -1.5486  0.8567 -0.1752
14181TIP3    H263959   0.406   1.569  15.164  0.1520  0.3967  2.0296
14182TIP3   OH263960   1.285   1.209   1.749 -0.2831 -0.1904  0.4184
14182TIP3    H163961   1.283   1.141   1.816 -0.0656 -1.7795 -1.1118
14182TIP3    H263962   1.317   1.164   1.671 -0.5379  1.5889 -0.7571
14183TIP3   OH263963   2.369   3.142   2.267  0.1813  0.5058 -0.8379
14183TIP3    H163964   2.345   3.235   2.264  1.9896  1.0039 -0.9105
14183TIP3    H263965   2.336   3.106   2.185  3.0439  2.0673 -2.8263
14184TIP3   OH263966   2.320   1.527  16.974 -0.5575 -0.3949 -0.1187
14184TIP3    H163967   2.326   1.599  17.036 -0.0881 -1.0286  0.5815
14184TIP3    H263968   2.246   1.549  16.918 -0.7664  0.3497  0.4503
14185TIP3   OH263969   5.355   4.747   6.489  0.6015 -0.2705 -0.4380
14185TIP3    H163970   5.442   4.709   6.470  0.4147 -0.3732 -1.1146
14185TIP3    H263971   5.295   4.695   6.436  0.0535 -0.5607  0.4535
14186TIP3   OH263972   6.546   1.389  14.443  0.0823  0.5080  0.7519
14186TIP3    H163973   6.497   1.327  14.389  1.2018  0.5307 -0.3230
14186TIP3    H263974   6.547   1.470  14.392  0.0243  0.9327  1.4140
14187TIP3   OH263975   0.173   0.836  16.027  0.0834  0.2813 -0.0322
14187TIP3    H163976   0.216   0.854  16.111  0.5176 -1.1634  0.0923
14187TIP3    H263977   0.244   0.823  15.965  0.0136 -3.0309  0.3641
14188TIP3   OH263978   4.864   1.440   4.121 -0.0373  0.4739 -0.2126
14188TIP3    H163979   4.906   1.418   4.204 -1.8063  2.9988  1.5244
14188TIP3    H263980   4.784   1.387   4.119  0.2391  0.0687 -0.5404
14189TIP3   OH263981   2.302   3.017  15.772 -0.0997  0.9974 -0.1506
14189TIP3    H163982   2.224   2.963  15.756 -0.5198  2.1621 -2.5328
14189TIP3    H263983   2.278   3.072  15.847  0.2665 -1.8532  2.2110
14190TIP3   OH263984   5.437   4.517   0.320  0.3810 -0.4347 -0.3122
14190TIP3    H163985   5.342   4.527   0.320  0.0376 -2.6740  1.5234
14190TIP3    H263986   5.454   4.452   0.251  0.5217 -0.3550 -0.3520
14191TIP3   OH263987   5.250   6.345  11.779  0.4263  0.1708  0.0694
14191TIP3    H163988   5.160   6.360  11.808  0.1852 -1.3422  0.1696
14191TIP3    H263989   5.269   6.419  11.721 -0.6688  0.8207  0.5024
14192TIP3   OH263990   2.306   4.231   3.275 -0.4085  0.0427  0.5320
14192TIP3    H163991   2.250   4.299   3.237 -0.4311  0.3463  1.0940
14192TIP3    H263992   2.331   4.176   3.201 -0.4059  0.6593  0.0680
14193TIP3   OH263993   6.330   0.111  16.589  0.0526  0.1505 -0.0516
14193TIP3    H163994   6.382   0.191  16.592 -1.1235  0.8941  2.3975
14193TIP3    H263995   6.280   0.118  16.508 -0.2117  2.0135  0.2322
14194TIP3   OH263996   6.236   3.640  14.652  0.3073  0.2134 -0.5040
14194TIP3    H163997   6.292   3.604  14.722  0.1153 -0.4563 -0.6940
14194TIP3    H263998   6.177   3.569  14.629  0.1296  0.5502 -1.1068
14195TIP3   OH263999   5.453   5.825  16.147  0.0684  0.0438  0.0364
14195TIP3    H164000   5.397   5.756  16.184 -2.0304  1.2173 -0.7516
14195TIP3    H264001   5.500   5.782  16.075 -1.3689 -0.5487 -0.5881
14196TIP3   OH264002   1.192   1.372  14.145 -0.2298  0.3860  0.1414
14196TIP3    H164003   1.248   1.406  14.215  2.4101  0.3863 -1.8259
14196TIP3    H264004   1.210   1.278  14.144 -1.3990  0.1462  0.3902
14197TIP3   OH264005   2.263   0.156   3.915 -0.4735  0.5774 -0.1091
14197TIP3    H164006   2.220   0.225   3.865 -1.4262 -0.0622 -0.2083
14197TIP3    H264007   2.192   0.115   3.966  0.7393  2.8722  3.9010
14198TIP3   OH264008   2.331   1.567   2.860  0.2522  0.2628  0.3886
14198TIP3    H164009   2.332   1.564   2.764  0.9472 -0.3588  0.4000
14198TIP3    H264010   2.382   1.645   2.882  1.9545 -0.7362  0.2459
14199TIP3   OH264011   4.765   4.106  12.498  0.0430 -0.0772  0.6873
14199TIP3    H164012   4.838   4.076  12.443 -0.8299 -2.0067  0.4866
14199TIP3    H264013   4.702   4.144  12.436  0.0094 -0.2442  0.6183
14200TIP3   OH264014   0.372   3.733   5.248 -0.2156  0.5922 -0.2190
14200TIP3    H164015   0.299   3.672   5.254 -0.5128  1.0256  0.8207
14200TIP3    H264016   0.335   3.811   5.207 -0.7462  1.3765  1.6767
14201TIP3   OH264017   4.524   3.734   2.861  0.7840  0.1541 -0.6932
14201TIP3    H164018   4.594   3.719   2.798  0.1169 -2.5428 -0.9494
14201TIP3    H264019   4.562   3.792   2.926  1.4304  3.2966 -3.6059
14202TIP3   OH264020   4.751   1.442   3.848 -0.5448 -1.0952 -0.5740
14202TIP3    H164021   4.785   1.530   3.861 -1.1852 -0.9934  0.5692
14202TIP3    H264022   4.682   1.452   3.782 -2.2056 -0.2865  1.1769
14203TIP3   OH264023   0.623   2.121   5.596  0.1923 -0.3120  0.1363
14203TIP3    H164024   0.538   2.077   5.593  0.3160 -0.5091 -1.8803
14203TIP3    H264025   0.670   2.077   5.668 -1.7804  0.6490  2.1450
14204TIP3   OH264026   3.415   1.118  12.456  0.4037  0.0004  0.5251
14204TIP3    H164027   3.483   1.097  12.391  0.0457 -0.6727  0.3539
14204TIP3    H264028   3.443   1.073  12.535 -0.3939 -1.2420  0.1418
14205TIP3   OH264029   4.939   3.177  12.615  0.3827  0.0296 -0.2029
14205TIP3    H164030   4.896   3.157  12.532 -0.3088 -0.3783  0.2486
14205TIP3    H264031   4.871   3.168  12.681  0.5970  1.6784  0.2840
14206TIP3   OH264032   5.704   3.348  15.462  0.4224 -0.1960 -0.1685
14206TIP3    H164033   5.798   3.354  15.474  0.1918  0.9643  1.4266
14206TIP3    H264034   5.671   3.313  15.545 -0.6172  0.1991 -0.3924
14207TIP3   OH264035   3.912   6.574  14.629  0.6758 -0.0144 -0.1085
14207TIP3    H164036   3.904   6.533  14.543 -0.5606  1.9508 -1.0086
14207TIP3    H264037   3.994   6.623  14.625 -0.2775  1.5671 -0.8893
14208TIP3   OH264038   4.518   6.279  15.019 -0.1663  0.3121  0.1727
14208TIP3    H164039   4.600   6.329  15.026 -0.1071  0.0280  1.8800
14208TIP3    H264040   4.451   6.337  15.055 -0.3521 -0.2514  0.7491
14209TIP3   OH264041   5.512   5.249  10.889 -0.2467 -0.7978 -1.0916
14209TIP3    H164042   5.440   5.202  10.931  0.1309 -2.3131 -2.0528
14209TIP3    H264043   5.472   5.294  10.815 -0.6093  0.4512 -0.1713
14210TIP3   OH264044   5.165   3.184   3.289  0.3295 -0.1905 -0.0214
14210TIP3    H164045   5.166   3.247   3.217 -1.2498  0.0544  0.1369
14210TIP3    H264046   5.235   3.214   3.348  1.6404 -0.4041 -1.4184
14211TIP3   OH264047   2.569   1.106   5.421  0.3841 -0.1687  0.2950
14211TIP3    H164048   2.542   1.196   5.403 -2.4878 -0.8846  0.5362
14211TIP3    H264049   2.544   1.057   5.342  0.4103 -1.0255  0.8034
14212TIP3   OH264050   3.847   6.242  16.437 -0.1180  0.1372 -0.7701
14212TIP3    H164051   3.922   6.226  16.495  1.0430  0.9512 -1.9677
14212TIP3    H264052   3.831   6.336  16.443 -0.0134  0.2300 -1.6785
14213TIP3   OH264053   2.499   2.183  11.055  0.1872  0.0276  0.0887
14213TIP3    H164054   2.452   2.236  11.120 -0.3605  0.8827 -0.9689
14213TIP3    H264055   2.573   2.237  11.028  1.5432 -1.1133  1.3737
14214TIP3   OH264056   5.792   3.314   1.962 -0.3808  0.0929  0.1640
14214TIP3    H164057   5.751   3.231   1.987  0.3441 -0.0953  0.7584
14214TIP3    H264058   5.730   3.353   1.900 -1.0926 -0.5345  0.4577
14215TIP3   OH264059   3.751   5.280  16.075  0.2659 -0.1520 -0.2515
14215TIP3    H164060   3.733   5.187  16.089  0.6491 -0.4723 -1.7464
14215TIP3    H264061   3.665   5.322  16.079 -0.0191 -0.7033 -0.5153
14216TIP3   OH264062   6.746   1.726   1.372 -0.9471 -0.6858  0.1149
14216TIP3    H164063   6.740   1.679   1.289 -0.7353 -2.4311  1.0385
14216TIP3    H264064   6.838   1.723   1.396 -0.7694  1.0220 -0.2153
14217TIP3   OH264065   2.189   2.463   5.680  0.3685 -0.0909  0.2178
14217TIP3    H164066   2.163   2.415   5.759 -0.0287 -0.4732 -0.1363
14217TIP3    H264067   2.202   2.553   5.710 -0.8338  0.0032  0.5323
14218TIP3   OH264068   0.158   5.461  12.189 -0.9405  0.0937 -0.7358
14218TIP3    H164069   0.247   5.454  12.155 -0.8747  0.1105 -0.5685
14218TIP3    H264070   0.150   5.552  12.217 -0.3204 -0.3658  1.1123
14219TIP3   OH264071   5.794   4.023  14.481 -0.5291 -0.2694  0.1437
14219TIP3    H164072   5.888   4.019  14.466 -0.2292 -2.1241  2.0660
14219TIP3    H264073   5.755   3.986  14.401  0.3726 -0.1361 -0.3732
14220TIP3   OH264074   5.829   4.635   1.246  0.1074  0.2600 -0.2455
14220TIP3    H164075   5.906   4.599   1.290 -1.5188 -0.9448  1.7772
14220TIP3    H264076   5.844   4.729   1.245  0.4173  0.3368  2.7048
14221TIP3   OH264077   2.599   5.900  13.351  0.2199  0.1935 -0.0484
14221TIP3    H164078   2.571   5.991  13.337 -0.4210  0.0602  0.3402
14221TIP3    H264079   2.547   5.870  13.426  0.6004 -0.4195 -0.0260
14222TIP3   OH264080   1.943   5.133  16.404 -0.0011  0.4070  0.3261
14222TIP3    H164081   1.936   5.038  16.404  0.1392  0.3965  0.4882
14222TIP3    H264082   2.025   5.151  16.450  0.6444  0.5624 -0.8472
14223TIP3   OH264083   1.209   4.039   3.569  0.6412  0.4771 -0.0588
14223TIP3    H164084   1.224   4.019   3.476 -0.2730  0.3436 -0.1878
14223TIP3    H264085   1.279   4.100   3.592  1.1923  0.0926 -0.6940
14224TIP3   OH264086   1.696   3.651   4.690 -0.3382 -0.2394 -0.1167
14224TIP3    H164087   1.785   3.617   4.697 -0.6085 -1.0062 -0.2688
14224TIP3    H264088   1.657   3.635   4.775 -0.9420 -1.7426 -0.6391
14225TIP3   OH264089   0.414   2.033  11.514  0.6235  0.2782  0.3920
14225TIP3    H164090   0.468   1.999  11.442  0.7196  0.4354  0.3905
14225TIP3    H264091   0.344   2.080  11.470 -1.9534 -3.3165  0.1725
14226TIP3   OH264092   5.207   1.464   0.269 -0.2458  0.1814  0.0638
14226TIP3    H164093   5.286   1.503   0.307  0.6091 -1.0529 -0.3611
14226TIP3    H264094   5.239   1.386   0.223 -1.9319 -1.5945  1.6807
14227TIP3   OH264095   3.677   1.576   2.548 -0.1719  0.4750  0.3714
14227TIP3    H164096   3.691   1.559   2.641  0.2531  2.9270  0.8411
14227TIP3    H264097   3.760   1.553   2.506  0.0151  0.4130  0.7730
14228TIP3   OH264098   1.061   2.269   3.861 -0.2926  0.2074 -0.4941
14228TIP3    H164099   1.056   2.267   3.765 -2.4990  0.0168 -0.4274
14228TIP3    H264100   1.114   2.192   3.884 -0.4810 -0.2458 -1.5248
14229TIP3   OH264101   6.734   5.425  11.182  0.1649  0.0725  0.1788
14229TIP3    H164102   6.733   5.508  11.134  2.8367  0.1967  0.1768
14229TIP3    H264103   6.800   5.438  11.250  0.7486 -2.0740  0.0981
14230TIP3   OH264104   6.055   4.857   2.860  0.5099  0.0960  0.3563
14230TIP3    H164105   6.103   4.828   2.937 -0.7056  1.3326  1.6257
14230TIP3    H264106   5.971   4.811   2.865  0.7700 -0.5386 -0.7627
14231TIP3   OH264107   5.659   0.753  11.830 -0.2123 -0.5292  0.0285
14231TIP3    H164108   5.607   0.714  11.761  0.1744 -0.9863 -0.0095
14231TIP3    H264109   5.687   0.679  11.885 -0.3314 -0.1984  0.5455
14232TIP3   OH264110   1.002   0.498  16.296  0.6003 -0.2255 -0.3687
14232TIP3    H164111   0.995   0.524  16.204  0.4614  0.1305 -0.2577
14232TIP3    H264112   0.912   0.501  16.329  0.5241 -1.2310 -0.4532
14233TIP3   OH264113   6.470   5.417   3.943 -0.6673  0.2156  0.4937
14233TIP3    H164114   6.488   5.511   3.953  0.8940  0.3133 -2.1843
14233TIP3    H264115   6.546   5.374   3.982 -0.1258  0.2096 -0.5194
14234TIP3   OH264116   3.258   2.137   2.264  0.7700  0.1173 -0.2842
14234TIP3    H164117   3.226   2.186   2.339 -1.0407 -0.2874 -0.7591
14234TIP3    H264118   3.351   2.159   2.260  0.6825  0.9884  1.4111
14235TIP3   OH264119   1.347   3.393   1.306 -0.5983 -0.0566 -1.0576
14235TIP3    H164120   1.270   3.353   1.346  0.2070  0.5883  1.2891
14235TIP3    H264121   1.377   3.328   1.241 -1.5854 -1.4736 -0.1516
14236TIP3   OH264122   2.812   4.758   3.464  0.2043  0.0614 -0.1627
14236TIP3    H164123   2.766   4.697   3.407  2.0595 -1.6715  0.0673
14236TIP3    H264124   2.793   4.727   3.553  0.8058  0.0738 -0.0252
14237TIP3   OH264125   2.367   5.149  13.326  0.0421 -0.4959  0.2796
14237TIP3    H164126   2.409   5.069  13.293 -1.0367 -1.0567  0.2210
14237TIP3    H264127   2.302   5.171  13.259  0.0275  0.1830  0.5154
14238TIP3   OH264128   4.100   6.180   4.154  0.0199 -0.4230  0.3692
14238TIP3    H164129   4.160   6.253   4.170 -0.3224 -0.1546  0.4404
14238TIP3    H264130   4.150   6.120   4.099  1.1117 -1.2215  2.1420
14239TIP3   OH264131   1.108   1.647  11.067  0.3667  0.2475  0.8582
14239TIP3    H164132   1.076   1.716  11.125 -0.8110  0.7682 -0.3840
14239TIP3    H264133   1.204   1.655  11.072  0.2609  1.4707  1.3188
14240TIP3   OH264134   6.475   0.406  15.669 -0.1448 -0.1940  0.5055
14240TIP3    H164135   6.381   0.389  15.654  0.2730 -1.0045 -1.4993
14240TIP3    H264136   6.476   0.476  15.734 -2.1517  0.0898  0.3117
14241TIP3   OH264137   6.611   4.665  16.436  0.5047 -0.1469 -0.5098
14241TIP3    H164138   6.656   4.719  16.371  1.7460 -0.5858 -0.0516
14241TIP3    H264139   6.668   4.670  16.514 -0.6383 -0.1137  0.3472
14242TIP3   OH264140   2.361   1.852  13.279 -0.5448  0.0088  0.0979
14242TIP3    H164141   2.347   1.913  13.206  0.7657  1.4032  0.9674
14242TIP3    H264142   2.292   1.786  13.268 -1.5063  1.1857 -1.3492
14243TIP3   OH264143   0.650   3.152   0.833  0.6116  0.6270 -0.2580
14243TIP3    H164144   0.605   3.226   0.874  0.3543  0.4290 -0.1805
14243TIP3    H264145   0.580   3.091   0.809  0.7259  0.9097 -1.3343
14244TIP3   OH264146   0.620   3.125   2.832 -0.4376 -0.0136  0.2295
14244TIP3    H164147   0.643   3.062   2.901 -2.5187 -1.9727 -0.7097
14244TIP3    H264148   0.531   3.153   2.855 -0.1884  1.2645 -0.3301
14245TIP3   OH264149   1.870   4.318  13.504  0.2337  0.1547  0.3208
14245TIP3    H164150   1.817   4.244  13.533  1.2866 -0.5178  0.6100
14245TIP3    H264151   1.884   4.369  13.584 -1.9043  1.6370 -0.1821
14246TIP3   OH264152   6.315   6.147   3.251 -0.2771 -0.1412 -0.2904
14246TIP3    H164153   6.405   6.174   3.231 -0.0234 -0.7629 -0.0102
14246TIP3    H264154   6.302   6.173   3.342 -0.2218 -0.4546 -0.1914
14247TIP3   OH264155   2.951   0.662   4.583 -0.0538  0.0028  0.3121
14247TIP3    H164156   2.975   0.643   4.492  0.4031 -0.5820  0.5471
14247TIP3    H264157   2.939   0.575   4.623  1.5274  0.1963  1.2824
14248TIP3   OH264158   1.830   2.558  14.310  0.4104  0.0747  0.1529
14248TIP3    H164159   1.780   2.568  14.229  1.0285 -1.4121 -0.4392
14248TIP3    H264160   1.893   2.630  14.308  1.3210 -0.7197 -1.3832
14249TIP3   OH264161   5.922   5.183  14.881  0.0623 -0.0743 -0.5519
14249TIP3    H164162   5.910   5.267  14.836  0.3488  0.1785 -0.1619
14249TIP3    H264163   5.878   5.119  14.824 -0.8653  0.4486 -0.4400
14250TIP3   OH264164   3.558   2.371  13.582 -0.1868 -0.0168  0.0033
14250TIP3    H164165   3.645   2.398  13.611  1.1503 -0.7893 -2.9416
14250TIP3    H264166   3.543   2.419  13.501 -0.2266 -3.5111 -2.2688
14251TIP3   OH264167   5.517   6.424  16.037 -0.4245 -0.2541 -0.2976
14251TIP3    H164168   5.587   6.406  16.100  0.6156 -0.0439 -1.3780
14251TIP3    H264169   5.560   6.468  15.964 -1.4298 -1.3466 -1.6047
14252TIP3   OH264170   0.271   0.531   3.865 -0.3343 -0.6916 -0.3140
14252TIP3    H164171   0.258   0.543   3.771 -1.0311  0.0426 -0.1399
14252TIP3    H264172   0.235   0.611   3.904  2.3237  0.2502  0.4283
14253TIP3   OH264173   2.485   4.489   5.358  0.7674 -0.1366  0.8204
14253TIP3    H164174   2.563   4.468   5.409  0.4559 -2.3001  0.4896
14253TIP3    H264175   2.412   4.469   5.416  0.4356 -0.5269  0.2781
14254TIP3   OH264176   1.802   1.634   4.632 -0.4006 -0.0785 -0.1543
14254TIP3    H164177   1.719   1.607   4.671 -0.6126 -0.4627 -0.8437
14254TIP3    H264178   1.776   1.686   4.556 -0.0058  0.0272 -0.2170
14255TIP3   OH264179   0.312   5.753   4.019  0.0020 -0.0734  0.1242
14255TIP3    H164180   0.283   5.685   4.079  0.3610  0.5762  1.0683
14255TIP3    H264181   0.231   5.799   3.994 -0.1408 -0.3041  0.1571
14256TIP3   OH264182   5.069   6.150  12.927  0.0127 -0.0158 -0.0432
14256TIP3    H164183   5.091   6.237  12.893 -1.5187  0.4742  0.1468
14256TIP3    H264184   4.998   6.119  12.871  0.8449 -1.3704 -0.4027
14257TIP3   OH264185   3.942   0.511   5.415 -0.2462 -0.6831 -0.1338
14257TIP3    H164186   3.859   0.555   5.433  0.0481 -0.1685 -0.0508
14257TIP3    H264187   4.009   0.567   5.454  0.2872 -0.2232 -1.6365
14258TIP3   OH264188   4.277   1.677   3.607 -0.2680  0.3585  0.0355
14258TIP3    H164189   4.359   1.670   3.558 -1.4804  1.0656 -2.2408
14258TIP3    H264190   4.298   1.643   3.694  1.9720 -1.1830 -1.0064
14259TIP3   OH264191   3.196   6.340   0.239  0.6908 -0.1483 -0.0347
14259TIP3    H164192   3.230   6.373   0.322  1.3072  1.6867 -0.9549
14259TIP3    H264193   3.265   6.358   0.176 -0.4217  0.0579 -1.2490
14260TIP3   OH264194   0.996   0.127   5.128  0.2781 -1.0894  0.5985
14260TIP3    H164195   0.945   0.087   5.058  0.7276 -0.3988 -0.1450
14260TIP3    H264196   0.976   0.221   5.121 -1.4376 -1.2088  2.8550
14261TIP3   OH264197   3.670   5.394  16.383  0.6675  0.3739  0.2614
14261TIP3    H164198   3.733   5.431  16.321 -0.4252  2.2001  0.1677
14261TIP3    H264199   3.629   5.470  16.424 -2.0301 -0.6978 -0.2355
14262TIP3   OH264200   6.459   2.864   6.498 -0.4730 -0.2318  0.3850
14262TIP3    H164201   6.531   2.925   6.517 -1.5659  0.8907  1.0464
14262TIP3    H264202   6.450   2.813   6.579 -0.1199 -0.7113  0.1295
14263TIP3   OH264203   2.089   2.130   4.543 -0.1187  0.0894  0.6915
14263TIP3    H164204   2.164   2.154   4.597  1.2854 -0.2143 -1.0283
14263TIP3    H264205   2.120   2.140   4.453 -2.4019  0.7105 -0.0900
14264TIP3   OH264206   6.614   5.128   2.402 -0.6548 -0.8669  0.0152
14264TIP3    H164207   6.521   5.109   2.390 -0.3387 -1.3256 -2.1532
14264TIP3    H264208   6.617   5.216   2.439 -1.9436 -1.4167  1.5571
14265TIP3   OH264209   5.285   1.595   2.297  0.6897 -0.4662 -0.2294
14265TIP3    H164210   5.282   1.673   2.352  0.1969  0.8304 -1.9882
14265TIP3    H264211   5.341   1.621   2.223  3.1091 -2.8394  0.6283
14266TIP3   OH264212   2.714   0.554   3.418 -0.4311 -0.0669 -0.7100
14266TIP3    H164213   2.777   0.485   3.397 -1.6746 -0.9599 -1.6299
14266TIP3    H264214   2.680   0.583   3.334  2.5058  4.1840 -0.7466
14267TIP3   OH264215   4.298   3.852   2.088  0.0514 -0.4355 -0.2556
14267TIP3    H164216   4.282   3.921   2.153 -0.7420 -1.5656  0.7952
14267TIP3    H264217   4.393   3.837   2.092  0.1318  0.1103  0.0119
14268TIP3   OH264218   4.595   2.490  15.262 -0.1216 -0.8466 -0.5150
14268TIP3    H164219   4.682   2.526  15.275  0.4493 -1.2731 -2.6342
14268TIP3    H264220   4.605   2.429  15.188 -2.0368 -1.5703 -0.2530
14269TIP3   OH264221   3.858   4.820  14.899  0.0598 -0.5332  0.3846
14269TIP3    H164222   3.821   4.778  14.820 -0.8235 -1.0225  1.0399
14269TIP3    H264223   3.916   4.753  14.936 -0.1252 -0.5937  0.5669
14270TIP3   OH264224   0.676   1.128  17.015  0.2336  0.1695 -0.0329
14270TIP3    H164225   0.614   1.153  17.084 -0.2122  0.4757 -0.5393
14270TIP3    H264226   0.715   1.211  16.987 -1.2138  0.3509 -1.6861
14271TIP3   OH264227   6.570   1.313   5.316  1.2167 -0.2726 -0.3266
14271TIP3    H164228   6.494   1.355   5.275  1.2328  1.3940  1.1972
14271TIP3    H264229   6.586   1.235   5.263 -0.6303  0.1225 -1.5771
14272TIP3   OH264230   3.724   3.141   5.726 -0.4466 -0.6213 -0.3271
14272TIP3    H164231   3.694   3.183   5.807 -0.2278 -0.6973 -0.2034
14272TIP3    H264232   3.783   3.071   5.757  0.8859  0.3422 -0.6011
14273TIP3   OH264233   4.470   1.163  12.763 -0.0723  0.0670  0.2731
14273TIP3    H164234   4.489   1.245  12.718  0.9141 -1.0969 -1.5461
14273TIP3    H264235   4.375   1.157  12.763 -0.1576 -0.3595 -2.7345
14274TIP3   OH264236   3.980   6.349  11.210 -0.4615  0.1880  0.5647
14274TIP3    H164237   4.044   6.331  11.141 -1.3380 -0.6160 -0.0864
14274TIP3    H264238   4.014   6.304  11.287 -0.8908 -1.4306 -0.1379
14275TIP3   OH264239   4.543   2.786   6.341 -0.6824 -0.1259  0.3790
14275TIP3    H164240   4.632   2.773   6.372  0.0021  0.0197 -1.3997
14275TIP3    H264241   4.536   2.880   6.325 -0.3838 -0.4009 -1.5633
14276TIP3   OH264242   1.853   3.736  12.752  0.1518  0.3202  0.5403
14276TIP3    H164243   1.855   3.716  12.659 -1.3354 -1.2763  0.8050
14276TIP3    H264244   1.768   3.778  12.766 -0.2113 -0.6692  1.3823
14277TIP3   OH264245   5.555   1.342   2.911  0.5348 -0.4472 -0.3615
14277TIP3    H164246   5.549   1.344   2.815  1.1998 -0.9727 -0.4290
14277TIP3    H264247   5.650   1.346   2.928  0.3556  1.6339  0.3416
14278TIP3   OH264248   1.526   6.698   1.235  0.0879 -0.0108  0.2052
14278TIP3    H164249   1.562   6.615   1.205  0.2559 -0.6665  2.1097
14278TIP3    H264250   1.446   6.709   1.183  0.7139 -0.7077 -0.9560
14279TIP3   OH264251   1.355   4.872  14.628 -0.1517 -0.3214 -0.4948
14279TIP3    H164252   1.357   4.815  14.704  1.5085  0.1018 -0.1980
14279TIP3    H264253   1.398   4.953  14.656 -0.9162  0.4414 -1.4214
14280TIP3   OH264254   2.605   5.950  11.364  0.6394 -0.4207  0.1288
14280TIP3    H164255   2.525   6.004  11.363  1.0524  0.2261  0.7865
14280TIP3    H264256   2.584   5.874  11.310 -1.4239 -1.7354  2.6015
14281TIP3   OH264257   6.419   4.250  11.211  0.5072  0.8040  0.2486
14281TIP3    H164258   6.428   4.184  11.142 -0.9351  2.1473 -1.2799
14281TIP3    H264259   6.333   4.233  11.249  1.2643  0.1076  1.7671
14282TIP3   OH264260   4.147   1.054  12.076 -0.1867 -0.0267  0.6740
14282TIP3    H164261   4.231   1.008  12.082 -1.4993 -2.5355  1.3978
14282TIP3    H264262   4.164   1.142  12.108  2.0127 -0.6861  1.4559
14283TIP3   OH264263   6.063   0.193  12.914 -0.1836 -0.4588 -0.4363
14283TIP3    H164264   6.007   0.237  12.977 -0.3770  1.0429 -1.5879
14283TIP3    H264265   6.123   0.140  12.967 -0.5825  0.4418  0.9734
14284TIP3   OH264266   6.453   5.121   4.902  0.1290  0.0900  0.1970
14284TIP3    H164267   6.388   5.149   4.966 -0.8056 -1.6499  0.0504
14284TIP3    H264268   6.455   5.192   4.837  0.7286  1.6370  1.8416
14285TIP3   OH264269   6.010   5.375   2.001 -0.0434  0.3348 -0.1401
14285TIP3    H164270   6.041   5.324   1.926  1.0997  0.3944  0.2678
14285TIP3    H264271   6.052   5.460   1.990 -1.6795  1.1067 -0.6382
14286TIP3   OH264272   0.627   6.280  14.025  0.4680  0.6270  0.0695
14286TIP3    H164273   0.577   6.270  14.106 -1.2431 -0.1779 -1.0173
14286TIP3    H264274   0.588   6.356  13.982  1.8590  1.5027  0.3255
14287TIP3   OH264275   3.584   3.292  15.490  0.5245  0.2754 -0.3887
14287TIP3    H164276   3.560   3.299  15.398 -0.0003 -1.6167 -0.4425
14287TIP3    H264277   3.645   3.217  15.493  0.3942  0.2035  0.8077
14288TIP3   OH264278   4.572   6.323  13.524 -0.0419  0.3603 -0.4821
14288TIP3    H164279   4.548   6.277  13.604  1.1091  0.1668 -0.2210
14288TIP3    H264280   4.661   6.356  13.541  1.9374 -3.0125 -3.0213
14289TIP3   OH264281   0.554   1.121  13.830  0.4997 -0.4032  0.1137
14289TIP3    H164282   0.582   1.127  13.739  0.3070  0.8899  0.1231
14289TIP3    H264283   0.533   1.028  13.843  0.0816 -0.5214 -1.2824
14290TIP3   OH264284   1.552   3.304   1.561 -0.4581 -0.7881  0.0926
14290TIP3    H164285   1.484   3.358   1.520  1.3429  0.7797 -1.0182
14290TIP3    H264286   1.511   3.218   1.574 -2.2961 -0.2109 -1.5007
14291TIP3   OH264287   4.112   1.108   4.318  0.3727 -0.0531 -0.3209
14291TIP3    H164288   4.096   1.202   4.324  1.2124  0.1197 -0.5984
14291TIP3    H264289   4.037   1.068   4.362  0.3502  0.7626  0.4091
14292TIP3   OH264290   3.642   4.826   0.657 -0.0461 -0.0852 -0.2397
14292TIP3    H164291   3.712   4.860   0.602 -1.0084  1.8999 -0.3696
14292TIP3    H264292   3.660   4.862   0.744 -0.7745  0.3361 -0.2445
14293TIP3   OH264293   1.187   0.016   2.966  0.0803 -0.2168  0.3738
14293TIP3    H164294   1.234  -0.058   2.927  1.1061 -0.5714  2.1552
14293TIP3    H264295   1.127  -0.024   3.029  0.2566  0.4261  0.9610
14294TIP3   OH264296   6.214   4.924   5.077 -0.5760 -0.7699  0.3670
14294TIP3    H164297   6.191   4.871   5.154  0.8983 -3.2492 -0.7832
14294TIP3    H264298   6.298   4.964   5.099 -1.1682  0.2802  0.8095
14295TIP3   OH264299   5.631   3.057   4.534 -0.4038 -0.0434  0.0933
14295TIP3    H164300   5.623   3.028   4.443  2.7463 -0.8405 -0.0360
14295TIP3    H264301   5.589   3.144   4.535 -0.6367 -0.0729 -2.0691
14296TIP3   OH264302   1.011   6.066   0.517  0.1536  0.7411 -0.5781
14296TIP3    H164303   1.075   5.998   0.498 -0.3901  0.4286 -1.3204
14296TIP3    H264304   1.060   6.131   0.569  0.8215  0.0712 -0.3523
14297TIP3   OH264305   2.434   1.559   3.375  0.3895  0.4103 -0.4293
14297TIP3    H164306   2.439   1.541   3.281  1.0140  1.0697 -0.5306
14297TIP3    H264307   2.479   1.643   3.386 -0.1051  0.5779  0.3936
14298TIP3   OH264308   0.299   2.758   2.001  0.3493  0.0230  0.0876
14298TIP3    H164309   0.277   2.823   2.067  0.0971  0.0201  0.0067
14298TIP3    H264310   0.395   2.752   2.004  0.3568  0.2269  0.2559
14299TIP3   OH264311   2.450   2.666  13.137  0.4355 -0.4663  0.2414
14299TIP3    H164312   2.512   2.738  13.129 -2.0870  1.7199 -1.9975
14299TIP3    H264313   2.432   2.659  13.230  3.0874 -0.4505  0.8362
14300TIP3   OH264314   2.469   0.557   5.329 -0.0468  0.3797  0.1954
14300TIP3    H164315   2.392   0.500   5.340 -0.2758  0.7849  0.7536
14300TIP3    H264316   2.477   0.602   5.413  1.6688 -0.7042  0.6485
14301TIP3   OH264317   5.955   4.805   1.016  0.0712 -0.1719 -0.7169
14301TIP3    H164318   5.942   4.749   0.939 -2.6157 -2.7164  1.3542
14301TIP3    H264319   6.035   4.771   1.057  0.0694 -0.5538 -1.0192
14302TIP3   OH264320   1.847   0.702   3.649 -0.9390  0.1366  0.4857
14302TIP3    H164321   1.798   0.622   3.667  0.7155 -1.0487 -0.0539
14302TIP3    H264322   1.844   0.752   3.730  2.1784 -2.7900  2.6846
14303TIP3   OH264323   1.555   5.436   2.741  0.1361 -0.1816  0.0099
14303TIP3    H164324   1.556   5.509   2.802 -4.4259  1.5300 -1.5560
14303TIP3    H264325   1.582   5.474   2.657  0.4211 -0.9688 -0.2627
14304TIP3   OH264326   3.770   5.999  13.470  0.2846  0.2934 -0.2740
14304TIP3    H164327   3.861   6.001  13.439  0.1592  0.7108 -0.6147
14304TIP3    H264328   3.739   5.912  13.445  1.6755 -1.3237  3.0169
14305TIP3   OH264329   6.333   6.217  17.158 -0.0030 -0.5763 -0.2144
14305TIP3    H164330   6.361   6.254  17.241  0.4696  1.4011 -1.1929
14305TIP3    H264331   6.238   6.229  17.157  0.1819  1.1281 -0.6999
14306TIP3   OH264332   4.007   3.798   0.771 -0.5849  0.0595 -0.4824
14306TIP3    H164333   4.001   3.781   0.677  0.1037 -0.4463 -0.4420
14306TIP3    H264334   3.921   3.776   0.805  0.1912 -3.4286 -0.4373
14307TIP3   OH264335   6.709   2.096  15.540 -0.0892 -0.6593  0.5816
14307TIP3    H164336   6.744   2.169  15.590 -1.5393  0.1785  0.4435
14307TIP3    H264337   6.646   2.137  15.479 -0.5671 -1.9596  0.1709
14308TIP3   OH264338   4.430   1.495   6.610 -0.3104 -0.0394  0.6215
14308TIP3    H164339   4.413   1.577   6.657 -1.2570  1.7967 -2.5605
14308TIP3    H264340   4.525   1.495   6.595 -0.5268  1.7005 -1.1713
14309TIP3   OH264341   2.133   3.168   2.016 -0.3590 -0.0414 -0.6822
14309TIP3    H164342   2.106   3.098   1.957  1.8026 -3.2443  1.7942
14309TIP3    H264343   2.223   3.190   1.989  0.8851 -1.9571  1.5129
14310TIP3   OH264344   2.337   5.085   6.566 -0.5734 -0.4520  0.5141
14310TIP3    H164345   2.262   5.144   6.569 -0.5874 -0.4906  1.5164
14310TIP3    H264346   2.345   5.059   6.474 -1.8242 -0.4976  0.4044
14311TIP3   OH264347   4.734   5.826   5.539 -0.3961  0.3808 -0.3558
14311TIP3    H164348   4.810   5.769   5.543 -1.9420 -1.7939  2.7185
14311TIP3    H264349   4.764   5.909   5.575  0.6104 -0.4384  0.7913
14312TIP3   OH264350   2.605   1.687  16.577 -0.0559 -0.2504  0.0840
14312TIP3    H164351   2.645   1.618  16.631 -0.8954 -0.6960  0.1471
14312TIP3    H264352   2.515   1.659  16.565 -0.2635  0.5735 -0.3532
14313TIP3   OH264353   5.630   5.675   1.203 -0.0803  0.3817  0.0865
14313TIP3    H164354   5.657   5.701   1.115 -0.6191 -0.8466 -0.4761
14313TIP3    H264355   5.653   5.749   1.259 -1.9717  2.2745 -1.4670
14314TIP3   OH264356   4.009   0.986  16.912  0.5236 -0.0967  0.4277
14314TIP3    H164357   3.969   1.043  16.979  1.5022 -1.1167  1.9433
14314TIP3    H264358   4.103   0.993  16.928  0.8048 -0.1231 -1.0857
14315TIP3   OH264359   2.434   4.455   1.063  0.1634 -0.1316  0.3627
14315TIP3    H164360   2.491   4.390   1.020  0.1835  1.0848 -1.5543
14315TIP3    H264361   2.353   4.452   1.013 -2.1765 -2.7417  3.7963
14316TIP3   OH264362   1.426   4.991   4.323  0.5042  0.6436 -0.1481
14316TIP3    H164363   1.415   4.896   4.326  1.1612  0.4209 -2.6481
14316TIP3    H264364   1.337   5.026   4.327  0.0817 -0.2072 -1.5671
14317TIP3   OH264365   2.790   2.532  14.313 -0.1983 -0.1195  0.4482
14317TIP3    H164366   2.836   2.536  14.397 -1.5538 -0.9712  1.2765
14317TIP3    H264367   2.859   2.531  14.247  0.9077  0.1317  1.5674
14318TIP3   OH264368   0.013   1.846  10.657  0.1068  0.1455  0.3423
14318TIP3    H164369   0.036   1.930  10.697  1.3320 -0.1969  0.4207
14318TIP3    H264370   0.069   1.782  10.702  1.1595 -0.3295 -1.4986
14319TIP3   OH264371   0.804   2.615   0.423  0.4135 -0.2811 -0.2134
14319TIP3    H164372   0.777   2.677   0.491 -0.2712  2.9061 -3.1163
14319TIP3    H264373   0.895   2.594   0.445 -0.6642 -1.9397  3.3166
14320TIP3   OH264374   1.411   2.019   4.504 -0.2043 -0.1167  0.4910
14320TIP3    H164375   1.411   1.991   4.596 -0.7637 -2.0955 -0.0565
14320TIP3    H264376   1.319   2.037   4.485 -0.1774 -0.3700  0.1279
14321TIP3   OH264377   4.297   3.302   4.866 -0.6592 -0.8192 -0.8078
14321TIP3    H164378   4.257   3.384   4.896  1.3239 -0.2354  0.4140
14321TIP3    H264379   4.264   3.291   4.777 -1.1348  1.2019 -0.9328
14322TIP3   OH264380   4.753   4.081   5.030  0.4599 -0.6595  0.0845
14322TIP3    H164381   4.693   4.076   5.104  0.5692 -0.5264  0.1844
14322TIP3    H264382   4.808   4.158   5.050  1.6626 -1.6507  0.7580
14323TIP3   OH264383   0.589   0.002  16.960 -0.0887  0.4529  0.8050
14323TIP3    H164384   0.582  -0.092  16.973  0.1529  0.6153  2.2561
14323TIP3    H264385   0.507   0.038  16.993 -1.4731  0.5632 -2.4214
14324TIP3   OH264386   2.797   5.775   1.104 -0.0628  0.4881  0.2281
14324TIP3    H164387   2.728   5.763   1.039  0.0559  0.4469  0.1097
14324TIP3    H264388   2.870   5.721   1.073  0.4592  1.4660 -0.2919
14325TIP3   OH264389   6.086   5.169  15.180 -0.5661 -0.1584  0.4324
14325TIP3    H164390   6.117   5.235  15.118 -0.0722  0.8990  1.7626
14325TIP3    H264391   6.096   5.086  15.133 -0.1376  0.5989 -0.8707
14326TIP3   OH264392   5.886   2.922  15.653  0.1100 -0.2850  0.3803
14326TIP3    H164393   5.820   2.877  15.600 -0.4767 -0.0916  0.9484
14326TIP3    H264394   5.965   2.869  15.642  0.0447 -0.1650 -0.8210
14327TIP3   OH264395   4.749   4.126   3.777 -0.1239 -0.0291 -0.1839
14327TIP3    H164396   4.692   4.192   3.737  0.4900  1.0631  0.6904
14327TIP3    H264397   4.783   4.168   3.856  0.1225 -1.4779  0.5137
14328TIP3   OH264398   4.080   0.852  13.300  0.5801 -0.1140 -0.3281
14328TIP3    H164399   4.085   0.893  13.214 -0.9071  0.3934 -0.2125
14328TIP3    H264400   4.163   0.874  13.343  2.8108 -3.0436 -2.7066
14329TIP3   OH264401   2.087   4.451   3.278 -0.9807 -0.0410  0.6530
14329TIP3    H164402   2.101   4.543   3.256  0.1604 -0.2738  0.3195
14329TIP3    H264403   2.134   4.439   3.361 -0.2883 -0.5382  0.2031
14330TIP3   OH264404   5.535   6.383  14.627 -0.2077  0.4464 -0.4408
14330TIP3    H164405   5.530   6.291  14.653  1.6831 -0.0892 -1.7136
14330TIP3    H264406   5.516   6.432  14.707  1.9224 -1.0827  1.1213
14331TIP3   OH264407   3.369   5.969  16.303  0.0891  0.1412 -0.4013
14331TIP3    H164408   3.326   5.989  16.220  0.4119 -1.2549 -0.9289
14331TIP3    H264409   3.462   5.975  16.283  0.2240  2.5874  0.5945
14332TIP3   OH264410   5.099   3.499  11.857 -0.0918 -0.0588 -0.3379
14332TIP3    H164411   5.093   3.469  11.948  2.0379 -1.6050 -0.6311
14332TIP3    H264412   5.160   3.438  11.815 -0.1520  1.2684 -2.5403
14333TIP3   OH264413   2.261   4.711   4.211  0.4355  0.5033 -0.3383
14333TIP3    H164414   2.241   4.627   4.253  0.5628  0.5302 -0.2238
14333TIP3    H264415   2.268   4.690   4.118 -0.3097  0.5256 -0.4031
14334TIP3   OH264416   1.041   6.621  13.718  0.2814 -0.4633 -0.2520
14334TIP3    H164417   0.972   6.681  13.747 -0.4967 -2.4449  2.3585
14334TIP3    H264418   1.073   6.660  13.637 -0.8612  2.9007  0.7136
14335TIP3   OH264419   0.297   3.301  12.447  0.2083 -0.3782 -0.4653
14335TIP3    H164420   0.393   3.301  12.438  0.4345 -0.4651  1.5379
14335TIP3    H264421   0.280   3.366  12.515 -1.1522 -0.5407 -0.6354
14336TIP3   OH264422   0.811   4.764  13.723 -0.5172 -0.1997  0.0700
14336TIP3    H164423   0.760   4.726  13.795 -2.6911  1.4486 -0.4816
14336TIP3    H264424   0.851   4.842  13.761  0.4659 -0.7106  0.1169
14337TIP3   OH264425   0.392   6.764   4.075  0.1962  0.0830 -0.0581
14337TIP3    H164426   0.376   6.828   4.006  2.2786 -0.4883 -1.1759
14337TIP3    H264427   0.394   6.680   4.030  0.5306 -0.4215  0.8658
14338TIP3   OH264428   0.919   2.254  16.815  0.2204  0.2215 -0.4915
14338TIP3    H164429   0.992   2.207  16.853 -0.5139 -0.2537  0.3776
14338TIP3    H264430   0.855   2.186  16.793 -0.2792  0.6923 -0.5221
14339TIP3   OH264431   3.429   6.684   1.993 -0.3382 -0.0345 -0.0705
14339TIP3    H164432   3.353   6.739   2.008  0.7377  1.5982 -0.2769
14339TIP3    H264433   3.482   6.693   2.072  0.9933  1.2650 -1.0212
14340TIP3   OH264434   6.077   6.552  12.142  0.9238 -0.3358  0.1476
14340TIP3    H164435   6.005   6.492  12.161  0.6029  0.0977  0.3338
14340TIP3    H264436   6.106   6.583  12.228 -0.8599  2.0174  0.0220
14341TIP3   OH264437   5.191   3.632   4.039  0.4676  0.0169  0.1802
14341TIP3    H164438   5.250   3.633   3.963 -0.2836 -1.1946 -0.4508
14341TIP3    H264439   5.185   3.724   4.065 -0.2306  0.6534 -2.0018
14342TIP3   OH264440   4.523   3.040   2.657  0.1869  0.2829  0.2987
14342TIP3    H164441   4.548   3.088   2.737 -0.7267  0.2890  0.5928
14342TIP3    H264442   4.462   2.974   2.688  1.5031 -1.1734 -0.0971
14343TIP3   OH264443   3.092   2.949   4.918 -0.2953 -0.7365  0.0787
14343TIP3    H164444   3.033   2.876   4.940 -1.1042 -0.1862 -0.2547
14343TIP3    H264445   3.161   2.908   4.866 -0.6321 -1.3104  0.0659
14344TIP3   OH264446   2.479   6.708  12.279 -0.2311 -0.4896  0.7229
14344TIP3    H164447   2.416   6.774  12.249 -1.9180 -1.9688  0.8662
14344TIP3    H264448   2.428   6.628  12.288  1.5722 -1.6258  1.4249
14345TIP3   OH264449   3.146   5.071  11.686 -0.0110 -0.1675 -0.1005
14345TIP3    H164450   3.052   5.057  11.689 -0.1918  1.1702  2.1873
14345TIP3    H264451   3.174   5.072  11.777  1.6556  2.8332 -0.5262
14346TIP3   OH264452   4.147   3.589  16.656 -0.5140 -0.6719  0.0153
14346TIP3    H164453   4.062   3.553  16.682 -0.3951  0.0436  1.5124
14346TIP3    H264454   4.192   3.517  16.613 -1.5977 -1.2692 -0.1574
14347TIP3   OH264455   4.917   5.013  16.673  0.0886 -0.3004 -0.0622
14347TIP3    H164456   4.919   4.938  16.615 -0.1473 -0.6729  0.4063
14347TIP3    H264457   4.849   4.993  16.738  0.3607  0.0914  0.3591
14348TIP3   OH264458   2.786   2.367   0.730 -0.0567  0.2028  0.2731
14348TIP3    H164459   2.864   2.396   0.682 -0.4322  1.9326  0.6217
14348TIP3    H264460   2.737   2.448   0.745 -0.6878 -0.4964  2.2344
14349TIP3   OH264461   4.856   5.940   1.523 -0.3768 -0.1373  0.4435
14349TIP3    H164462   4.791   5.927   1.593 -0.4423 -0.7397  0.2807
14349TIP3    H264463   4.939   5.950   1.570 -0.5466  0.3607  0.6432
14350TIP3   OH264464   0.185   1.763   3.600  0.3929 -0.1950 -0.4790
14350TIP3    H164465   0.136   1.845   3.601  0.9499  0.1748 -1.7699
14350TIP3    H264466   0.201   1.744   3.692 -0.8304  0.4751 -0.0954
14351TIP3   OH264467   0.477   1.196  16.519 -0.5322  0.0799  0.0274
14351TIP3    H164468   0.453   1.257  16.590 -1.5808 -0.4727  0.1641
14351TIP3    H264469   0.543   1.139  16.558  0.3520  1.0290 -0.0578
14352TIP3   OH264470   2.644   3.585  14.635  0.0810 -0.5189 -0.2142
14352TIP3    H164471   2.712   3.571  14.570  1.2027 -1.1228  1.0297
14352TIP3    H264472   2.645   3.680  14.651 -0.1522 -0.3794 -1.0063
14353TIP3   OH264473   0.264   6.160  10.997 -0.4102 -0.4257  0.5531
14353TIP3    H164474   0.174   6.175  11.028 -0.4999 -0.3707  0.2661
14353TIP3    H264475   0.303   6.248  10.994 -1.2636 -0.0443 -2.1561
14354TIP3   OH264476   2.498   6.352   2.879  0.2707  0.1784  0.1720
14354TIP3    H164477   2.496   6.441   2.845  0.4154 -0.1364 -0.7027
14354TIP3    H264478   2.584   6.318   2.854  0.6846  0.1640  1.5295
14355TIP3   OH264479   3.881   5.488   0.540  0.1501 -0.3251  0.3509
14355TIP3    H164480   3.802   5.533   0.570  0.2044 -1.3824  2.2423
14355TIP3    H264481   3.951   5.525   0.594  1.3056  1.6014 -2.2120
14356TIP3   OH264482   3.595   0.997   0.140  0.3566 -0.5380 -0.3535
14356TIP3    H164483   3.636   0.922   0.096 -0.0663 -1.1820  0.3240
14356TIP3    H264484   3.534   0.957   0.202  0.5972  0.3699  0.4747
14357TIP3   OH264485   6.023   5.916   5.290  0.2803  0.2469  0.4229
14357TIP3    H164486   6.014   5.917   5.385  3.6720  1.2745  0.8980
14357TIP3    H264487   5.991   5.830   5.263  2.5829 -1.6101  3.0473
14358TIP3   OH264488   6.065   5.972  11.689  0.4457 -0.1433  0.3816
14358TIP3    H164489   6.127   5.936  11.752 -2.0849 -3.0042  1.5080
14358TIP3    H264490   5.979   5.953  11.727 -1.1805 -0.2012 -2.9689
14359TIP3   OH264491   3.559   3.344   3.194 -0.1406  0.6657 -0.0892
14359TIP3    H164492   3.494   3.284   3.156  0.7777 -0.1521 -0.4054
14359TIP3    H264493   3.511   3.390   3.263 -1.7414  1.8801 -1.9075
14360TIP3   OH264494   1.863   0.977  10.758 -0.3792 -0.7431 -0.3110
14360TIP3    H164495   1.855   1.007  10.667  2.0342 -1.3334 -0.8019
14360TIP3    H264496   1.831   0.887  10.756 -2.2381 -0.1327 -0.0801
14361TIP3   OH264497   4.695   4.975   4.735  0.1954 -0.2165 -0.0325
14361TIP3    H164498   4.670   4.903   4.676  1.6758 -1.2235  0.5277
14361TIP3    H264499   4.647   4.958   4.816  0.5994 -0.6142  0.1234
14362TIP3   OH264500   6.161   5.133   5.407 -0.4021  0.0754  0.8186
14362TIP3    H164501   6.120   5.059   5.452 -1.1820 -0.1403 -0.2268
14362TIP3    H264502   6.255   5.118   5.420 -0.5751 -0.5296  1.5013
14363TIP3   OH264503   3.674   3.106   0.488 -0.2622 -0.4064  0.2095
14363TIP3    H164504   3.635   3.093   0.574  0.5580  2.8134  1.2126
14363TIP3    H264505   3.607   3.152   0.438  0.0452 -0.3368 -0.1396
14364TIP3   OH264506   0.163   3.588   5.569  0.4348  0.6269  0.1917
14364TIP3    H164507   0.159   3.538   5.487  0.9522  0.4143  0.2908
14364TIP3    H264508   0.083   3.563   5.617  0.9164 -0.4755  0.4476
14365TIP3   OH264509   4.454   3.253  14.746  0.1944 -0.7723  0.6089
14365TIP3    H164510   4.462   3.344  14.776  1.6317 -0.8182  0.4224
14365TIP3    H264511   4.528   3.241  14.687 -1.5757 -1.2126 -1.6660
14366TIP3   OH264512   3.434   4.695  13.882 -0.0859  0.2426  0.0762
14366TIP3    H164513   3.485   4.751  13.941 -0.5393 -0.0828  0.7869
14366TIP3    H264514   3.468   4.715  13.795  1.8835 -0.6137  0.6033
14367TIP3   OH264515   6.311   1.344   0.105  0.4946 -0.3019 -0.6868
14367TIP3    H164516   6.242   1.410   0.116  2.4340  2.1742 -2.2086
14367TIP3    H264517   6.332   1.317   0.194 -1.3918 -0.0366 -0.1011
14368TIP3   OH264518   0.024   0.573   6.497  0.0675 -0.2308  0.1539
14368TIP3    H164519   0.083   0.499   6.506  1.3351  0.7155 -0.1390
14368TIP3    H264520  -0.038   0.547   6.429 -0.2542 -1.4687  0.8878
14369TIP3   OH264521   2.632   0.074  14.534 -0.1573  0.2215 -0.0174
14369TIP3    H164522   2.593  -0.009  14.563  1.6104 -0.8110 -0.4171
14369TIP3    H264523   2.586   0.141  14.585 -2.3345 -0.8844 -0.3997
14370TIP3   OH264524   1.032   6.736  12.257  0.4577 -0.5352  0.3307
14370TIP3    H164525   1.098   6.806  12.255 -0.0110 -0.1006 -1.0600
14370TIP3    H264526   0.949   6.781  12.271 -0.0749 -0.5520 -2.2596
14371TIP3   OH264527   2.899   5.746  13.576 -0.0465  0.3863  0.1988
14371TIP3    H164528   2.851   5.680  13.526  0.8271 -0.2479  0.1847
14371TIP3    H264529   2.897   5.715  13.666  0.1697  0.4544  0.2292
14372TIP3   OH264530   0.335   4.446  14.268  0.7916  0.2563 -0.4242
14372TIP3    H164531   0.374   4.453  14.181  0.5289  1.5412 -0.4475
14372TIP3    H264532   0.381   4.511  14.320  0.7292 -0.2868  0.3300
14373TIP3   OH264533   0.698   4.978   4.532  0.4804  0.2183 -0.2579
14373TIP3    H164534   0.769   5.031   4.568  2.0188 -0.5551 -1.9582
14373TIP3    H264535   0.737   4.892   4.518 -0.6534 -0.1212 -1.5808
14374TIP3   OH264536   1.938   1.143   2.288 -0.9347  0.4812  0.4404
14374TIP3    H164537   1.955   1.199   2.364 -0.5844  0.7764  0.1528
14374TIP3    H264538   1.883   1.196   2.231  0.0333  0.8510 -0.1871
14375TIP3   OH264539   6.373   5.748  13.689  0.2084  0.0955  0.0687
14375TIP3    H164540   6.375   5.792  13.773 -1.9746  1.9071 -0.7363
14375TIP3    H264541   6.433   5.798  13.633  0.0613  0.1721 -0.0207
14376TIP3   OH264542   0.239   1.424  13.359 -0.3958  0.2739  0.5514
14376TIP3    H164543   0.283   1.379  13.430 -1.2979 -0.0780  0.9106
14376TIP3    H264544   0.240   1.516  13.384  0.5183  0.3292  0.3334
14377TIP3   OH264545   4.334   3.174   1.314 -0.2147  0.3647 -1.0836
14377TIP3    H164546   4.290   3.210   1.391  0.8688  2.8443 -1.5324
14377TIP3    H264547   4.415   3.224   1.306  0.6612 -1.1874 -2.7036
14378TIP3   OH264548   2.080   1.377  15.256  0.5710 -0.4800 -0.2733
14378TIP3    H164549   2.132   1.343  15.328 -1.8360 -3.4552  0.2368
14378TIP3    H264550   1.993   1.390  15.292 -0.1660  0.1521 -2.1202
14379TIP3   OH264551   4.980   4.173   0.865  0.1119  0.0167  0.2145
14379TIP3    H164552   4.934   4.122   0.799 -1.2653 -0.7067  1.6514
14379TIP3    H264553   5.067   4.187   0.829 -0.3926 -0.9042 -1.4463
14380TIP3   OH264554   6.292   4.095   4.744 -0.1044 -0.1177  0.2805
14380TIP3    H164555   6.327   4.145   4.818 -0.9568 -0.1262  0.7062
14380TIP3    H264556   6.366   4.087   4.683  0.4564  0.3670  0.8777
14381TIP3   OH264557   2.662   4.245  16.262  0.0113 -0.2701 -0.5695
14381TIP3    H164558   2.729   4.297  16.305 -0.1321 -0.0559 -0.6061
14381TIP3    H264559   2.650   4.286  16.177 -0.0120 -0.4374 -0.6476
14382TIP3   OH264560   1.630   4.967   0.136 -0.0235  0.0439 -0.2736
14382TIP3    H164561   1.673   4.887   0.104  0.9266  1.2298 -2.1038
14382TIP3    H264562   1.539   4.940   0.151  0.2763 -1.3907 -0.8165
14383TIP3   OH264563   5.002   5.640  13.871 -0.1809  0.5151 -0.7205
14383TIP3    H164564   4.966   5.686  13.946 -1.1619 -0.5726 -0.4950
14383TIP3    H264565   4.943   5.660  13.799 -0.5076 -0.2208 -0.6647
14384TIP3   OH264566   0.110   6.740   2.772 -0.1845 -0.4537  0.1567
14384TIP3    H164567   0.127   6.703   2.685 -0.1271  0.8766 -0.4265
14384TIP3    H264568   0.040   6.686   2.808  0.6130 -1.7881 -0.1937
14385TIP3   OH264569   2.894   3.436  12.414 -0.5428 -0.1139 -0.0700
14385TIP3    H164570   2.914   3.375  12.342 -0.1261 -0.4029  0.2835
14385TIP3    H264571   2.901   3.382  12.493 -2.7796 -0.2614  0.1013
14386TIP3   OH264572   6.456   6.009  15.665 -0.3600  0.0555  0.6566
14386TIP3    H164573   6.452   6.081  15.602  2.1051 -2.1534 -2.3557
14386TIP3    H264574   6.372   5.965  15.657 -0.8622  1.0174  0.5084
14387TIP3   OH264575   1.671   5.935   1.630 -0.1871 -0.0389 -0.0437
14387TIP3    H164576   1.584   5.958   1.663  0.1537  1.1349  0.1059
14387TIP3    H264577   1.699   5.862   1.685 -1.3704 -0.9115 -0.5792
14388TIP3   OH264578   5.375   2.307   4.693  0.1053 -0.2234  0.5798
14388TIP3    H164579   5.467   2.320   4.669  0.1616 -1.6994 -0.0691
14388TIP3    H264580   5.378   2.269   4.780  0.0468  0.7740  1.0371
14389TIP3   OH264581   1.214   0.017  15.911  0.9965 -0.1259 -0.0059
14389TIP3    H164582   1.188  -0.062  15.959  0.8841 -0.1319 -0.0772
14389TIP3    H264583   1.224   0.084  15.979  0.0398  0.0775 -0.0484
14390TIP3   OH264584   6.075   2.244  11.402  0.4291  0.5291  0.3221
14390TIP3    H164585   5.986   2.208  11.400  0.8965 -0.7636  1.5895
14390TIP3    H264586   6.098   2.255  11.310 -0.5883 -0.2537 -0.0499
14391TIP3   OH264587   0.693   5.086   5.410  0.0307  0.0549  0.1497
14391TIP3    H164588   0.652   5.155   5.358  0.9732 -0.9769 -2.1371
14391TIP3    H264589   0.628   5.016   5.413 -0.2895  0.3849  0.9950
14392TIP3   OH264590   3.587   3.800  11.816 -0.0433  0.2665  0.0959
14392TIP3    H164591   3.651   3.840  11.758  2.1105 -1.7705  0.9056
14392TIP3    H264592   3.621   3.815  11.904 -1.0539 -0.2277  0.5920
14393TIP3   OH264593   0.030   5.149  11.382  0.1895 -0.6283 -0.0363
14393TIP3    H164594   0.014   5.239  11.411 -0.6308 -0.9688  0.6168
14393TIP3    H264595   0.122   5.132  11.403 -0.2172 -0.6576  1.8524
14394TIP3   OH264596   2.314   2.871   3.593 -0.2058 -0.2970  0.0893
14394TIP3    H164597   2.279   2.792   3.553 -0.4409 -0.0153 -0.2660
14394TIP3    H264598   2.409   2.857   3.593 -0.3461 -1.6695  2.3375
14395TIP3   OH264599   1.982   5.891  16.118  0.0840 -0.1189  0.2424
14395TIP3    H164600   2.027   5.974  16.133  0.7302 -0.5746  0.8658
14395TIP3    H264601   1.956   5.894  16.025 -0.7027  1.1479  0.4908
14396TIP3   OH264602   5.329   0.324   0.806  0.1486 -0.4443 -0.1922
14396TIP3    H164603   5.372   0.242   0.832  2.7446  0.8560 -0.1183
14396TIP3    H264604   5.399   0.388   0.800 -1.9135  2.1137  0.8267
14397TIP3   OH264605   2.164   1.422   1.974 -0.0673  0.0294  0.9052
14397TIP3    H164606   2.181   1.406   2.067  1.0244 -0.3504  0.6477
14397TIP3    H264607   2.231   1.484   1.948 -0.7161  0.5652  0.4955
14398TIP3   OH264608   2.160   3.128   5.746  0.2750 -0.3441  0.1109
14398TIP3    H164609   2.209   3.047   5.761  0.5356 -0.2702 -0.3151
14398TIP3    H264610   2.227   3.196   5.739  0.0285 -0.0030  0.9679
14399TIP3   OH264611   2.579   2.780  16.498  0.2689 -0.7417 -0.2428
14399TIP3    H164612   2.527   2.857  16.477  2.6607  0.8950 -0.5750
14399TIP3    H264613   2.566   2.721  16.424 -1.9891 -0.9393  0.2497
14400TIP3   OH264614   2.043   1.054  15.184 -0.4382 -0.1504  0.3284
14400TIP3    H164615   1.996   1.093  15.257  1.5039 -1.1168  2.2179
14400TIP3    H264616   2.010   1.099  15.106  1.2479  5.0074  2.1929
14401TIP3   OH264617   3.617   5.085   5.222  0.0502  0.1335  0.3915
14401TIP3    H164618   3.558   5.038   5.163  0.6336 -0.2366  0.0942
14401TIP3    H264619   3.679   5.129   5.164  0.4261  0.0357  0.7163
14402TIP3   OH264620   5.937   4.140  11.634 -0.3291  0.0425  0.3440
14402TIP3    H164621   5.933   4.052  11.597  1.2243  0.5774 -1.2153
14402TIP3    H264622   6.030   4.161  11.638 -0.6862  2.1387 -0.6780
14403TIP3   OH264623   4.090   0.599  14.417 -0.5732 -0.0520 -0.5203
14403TIP3    H164624   4.044   0.668  14.465  2.2027  0.0861  2.2262
14403TIP3    H264625   4.110   0.640  14.332 -2.8603  0.8351 -0.7276
14404TIP3   OH264626   3.735   6.044  15.372  0.4554  0.1139  0.0414
14404TIP3    H164627   3.777   6.130  15.368  0.6787 -0.0381 -1.7851
14404TIP3    H264628   3.672   6.045  15.300  1.0489 -1.5247 -0.5467
14405TIP3   OH264629   5.627   1.175  17.027  0.1898 -0.4780 -0.5048
14405TIP3    H164630   5.539   1.162  16.992  1.0774 -0.4320 -2.9042
14405TIP3    H264631   5.675   1.096  17.003  0.9207 -0.3778  0.5251
14406TIP3   OH264632   2.941   1.979   5.290  0.4339  0.0482 -0.6072
14406TIP3    H164633   2.978   1.949   5.207  1.2422  0.4475 -0.4030
14406TIP3    H264634   2.968   1.913   5.353 -0.2503 -0.2980 -0.6705
14407TIP3   OH264635   3.845   1.018  12.843  0.5596 -0.1041  0.0656
14407TIP3    H164636   3.783   0.946  12.858  1.5537 -1.4309 -1.7747
14407TIP3    H264637   3.912   1.006  12.910  0.1769 -0.2504  0.4305
14408TIP3   OH264638   6.544   5.861  10.853  0.3165  0.0839  0.1247
14408TIP3    H164639   6.477   5.874  10.920  0.7749 -0.0783  0.6213
14408TIP3    H264640   6.607   5.931  10.868  1.6481 -1.3186  1.3837
14409TIP3   OH264641   2.682   1.175   1.940 -0.3430 -0.0503 -0.8402
14409TIP3    H164642   2.620   1.102   1.949 -0.5704  0.2508  0.1144
14409TIP3    H264643   2.766   1.132   1.920  0.1591 -0.8387  2.4006
14410TIP3   OH264644   0.765   1.578   0.229 -0.2926 -0.2519 -0.3359
14410TIP3    H164645   0.688   1.616   0.187 -0.5046 -1.0001 -0.6490
14410TIP3    H264646   0.745   1.484   0.234  1.4541 -0.8299 -2.4146
14411TIP3   OH264647   6.707   0.388   5.472  0.6475 -0.2758  0.5238
14411TIP3    H164648   6.753   0.353   5.396 -0.2683  2.2820 -1.3243
14411TIP3    H264649   6.730   0.481   5.474 -0.4534  0.0209  2.5877
14412TIP3   OH264650   4.014   1.120  13.989 -0.2858  0.2067 -0.4315
14412TIP3    H164651   3.971   1.038  14.012 -1.5392  0.6476 -1.1265
14412TIP3    H264652   4.104   1.110  14.022 -0.7275 -0.9893  0.4754
14413TIP3   OH264653   6.442   3.662   5.182 -0.1312  0.1487 -0.5891
14413TIP3    H164654   6.375   3.686   5.119 -1.3553  0.9983  0.9780
14413TIP3    H264655   6.393   3.625   5.256  1.1708  0.1850  0.3189
14414TIP3   OH264656   1.517   6.296   0.661 -0.2420  0.2061  0.5782
14414TIP3    H164657   1.464   6.221   0.688  0.7531 -1.3708 -1.4919
14414TIP3    H264658   1.538   6.343   0.742 -2.0858 -0.9291  1.7732
14415TIP3   OH264659   5.037   4.717  13.135 -0.2834  0.1770  0.8221
14415TIP3    H164660   5.001   4.647  13.079  0.2255  1.6656 -1.5077
14415TIP3    H264661   4.984   4.714  13.214 -2.2450 -0.9353 -0.4442
14416TIP3   OH264662   0.864   3.055   3.470  0.0030 -0.0720 -0.4798
14416TIP3    H164663   0.887   2.967   3.498 -1.4047 -1.3671 -3.0174
14416TIP3    H264664   0.817   3.092   3.545 -1.3367 -2.3384 -0.1002
14417TIP3   OH264665   6.335   5.870   1.102  0.1458 -0.6242 -0.0718
14417TIP3    H164666   6.326   5.818   1.022 -0.2681 -1.0531  0.2434
14417TIP3    H264667   6.269   5.833   1.161  0.9543 -0.8077  0.7291
14418TIP3   OH264668   2.564   3.477   6.612 -0.0266 -0.4464 -0.2655
14418TIP3    H164669   2.482   3.479   6.662  0.3102  0.7879  0.2560
14418TIP3    H264670   2.543   3.519   6.529 -0.0655 -0.6381 -0.3528
14419TIP3   OH264671   2.702   4.563   3.260 -0.3043  0.7891  0.1451
14419TIP3    H164672   2.628   4.623   3.256 -1.1990 -0.2290  1.1007
14419TIP3    H264673   2.692   4.507   3.184 -1.4760 -0.4103  1.1443
14420TIP3   OH264674   4.072   2.018  15.755  0.7595 -0.7207  0.2278
14420TIP3    H164675   3.995   1.962  15.744 -0.4285  0.7932  0.4238
14420TIP3    H264676   4.037   2.098  15.795  2.0802  0.8570 -1.6167
14421TIP3   OH264677   5.422   1.422  12.698 -0.0512 -0.3850  0.4862
14421TIP3    H164678   5.451   1.505  12.660  0.4251 -0.9928 -0.5055
14421TIP3    H264679   5.375   1.448  12.777 -3.8335  1.2430 -1.9765
14422TIP3   OH264680   3.572   6.626  12.959  0.5818  0.0478 -0.0775
14422TIP3    H164681   3.582   6.709  12.913 -1.3430 -0.5525 -1.7347
14422TIP3    H264682   3.606   6.560  12.898  0.5835 -0.5320  0.5342
14423TIP3   OH264683   0.809   6.686  10.315  0.2883 -0.1248 -0.2409
14423TIP3    H164684   0.744   6.688  10.386  1.8280  0.6602  1.2325
14423TIP3    H264685   0.841   6.596  10.315 -0.5891 -0.4452 -0.7937
14424TIP3   OH264686   3.317   2.113  15.164 -0.3237  0.1659  0.3739
14424TIP3    H164687   3.333   2.040  15.222 -0.7476 -0.1143  0.1409
14424TIP3    H264688   3.242   2.086  15.111  0.0522  0.4147 -0.2974
14425TIP3   OH264689   0.818   2.485  13.298 -0.1857 -0.5388 -0.5741
14425TIP3    H164690   0.818   2.557  13.360 -0.6458  0.0806 -1.2726
14425TIP3    H264691   0.854   2.522  13.217 -0.3369 -1.1111 -0.9139
14426TIP3   OH264692   3.823   0.508  11.953 -0.2782  0.7512  0.2299
14426TIP3    H164693   3.805   0.467  12.037 -1.7657 -0.9304 -0.8251
14426TIP3    H264694   3.917   0.496  11.939 -0.1861  0.2408  1.2214
14427TIP3   OH264695   3.035   4.581   6.306 -0.3558  0.3311  0.0902
14427TIP3    H164696   2.955   4.533   6.325  0.9308 -2.1122 -0.3271
14427TIP3    H264697   3.059   4.621   6.389  0.5921 -3.0540  1.5944
14428TIP3   OH264698   4.113   5.554  14.237 -0.1287  0.5636 -0.1934
14428TIP3    H164699   4.196   5.580  14.277 -0.4557  1.7094 -0.2213
14428TIP3    H264700   4.138   5.503  14.160  0.5186 -1.1765  1.0901
14429TIP3   OH264701   4.013   0.530   0.236 -0.0245 -0.0174 -0.1540
14429TIP3    H164702   3.923   0.546   0.266  0.0652  2.3636 -0.9879
14429TIP3    H264703   4.068   0.561   0.308  0.1594 -0.9064  0.1013
14430TIP3   OH264704   5.349   0.097   2.593 -0.5791 -0.0484  0.3621
14430TIP3    H164705   5.384   0.012   2.568  0.4780  0.1772  0.9935
14430TIP3    H264706   5.422   0.158   2.580 -1.3370  0.7851 -0.1555
14431TIP3   OH264707   2.310   4.578  16.938 -0.0466 -0.2041 -0.4244
14431TIP3    H164708   2.387   4.574  16.994 -2.1590  0.7245  2.9218
14431TIP3    H264709   2.267   4.493  16.949 -2.3617  1.1689  2.6626
14432TIP3   OH264710   1.624   2.998   5.038 -0.0254 -0.0004  0.5433
14432TIP3    H164711   1.558   2.998   4.969 -0.3775 -0.2695  0.8788
14432TIP3    H264712   1.595   3.065   5.099  1.0273  1.2403 -0.2579
14433TIP3   OH264713   2.003   0.994  14.517 -0.0945  0.3089 -0.2654
14433TIP3    H164714   1.940   0.973  14.449  0.7637  0.3125 -1.0748
14433TIP3    H264715   1.965   1.069  14.562 -0.5156  0.5166 -0.9529
14434TIP3   OH264716   2.585   0.997  11.036  0.5269 -0.1063  0.1102
14434TIP3    H164717   2.636   1.042  10.969  2.1823 -2.2642 -0.1636
14434TIP3    H264718   2.650   0.952  11.090 -1.0314 -2.7401 -0.0499
14435TIP3   OH264719   0.939   3.847   1.111 -0.3600 -0.8427  0.8727
14435TIP3    H164720   0.951   3.806   1.025  1.7267  0.9440  0.2061
14435TIP3    H264721   1.014   3.818   1.162 -0.2855  0.0190  1.2641
14436TIP3   OH264722   6.059   6.624  12.641  0.0863  0.4569 -0.1406
14436TIP3    H164723   6.126   6.688  12.662  2.0538 -0.9457 -1.7238
14436TIP3    H264724   5.993   6.634  12.710  1.7209  2.1436  1.2736
14437TIP3   OH264725   2.060   6.242   5.022  0.4623 -0.1228  0.4632
14437TIP3    H164726   2.013   6.204   5.096 -0.0870 -0.9156 -0.2624
14437TIP3    H264727   2.137   6.187   5.011  0.2806 -0.3239  0.1496
14438TIP3   OH264728   4.154   4.045  13.833  0.4948 -0.1870 -0.5853
14438TIP3    H164729   4.067   4.051  13.873 -0.5909 -0.6482 -2.7665
14438TIP3    H264730   4.207   4.000  13.900 -0.5412  1.2671  1.3166
14439TIP3   OH264731   4.087   4.883   2.733  0.1839  0.1708 -0.2428
14439TIP3    H164732   4.064   4.918   2.647 -0.3761  1.4002  0.3852
14439TIP3    H264733   4.130   4.956   2.778  0.5155 -0.4687  0.4996
14440TIP3   OH264734   3.431   3.049   0.863  0.1554  0.5594  0.4808
14440TIP3    H164735   3.524   3.029   0.876 -0.0880 -0.1679  1.2000
14440TIP3    H264736   3.430   3.137   0.826  1.0223  1.6872  2.9803
14441TIP3   OH264737   4.038   6.697  16.081  0.2968 -0.8143  0.7799
14441TIP3    H164738   4.060   6.606  16.064 -0.1337 -0.7741 -0.0456
14441TIP3    H264739   4.122   6.739  16.100  0.2662 -1.8753  3.8032
14442TIP3   OH264740   5.915   5.586  12.081  0.4505  0.5612  0.0706
14442TIP3    H164741   5.906   5.553  12.170 -0.3047 -0.9634 -0.5355
14442TIP3    H264742   5.910   5.682  12.090 -0.0396  0.4173  1.5992
14443TIP3   OH264743   6.514   6.260  16.970  0.7984 -0.1023  0.2583
14443TIP3    H164744   6.551   6.173  16.956  0.9022 -0.3974  2.0841
14443TIP3    H264745   6.440   6.245  17.030  0.2655  0.9587 -0.1139
14444TIP3   OH264746   1.803   3.284  15.034  0.1674  0.2707 -0.3106
14444TIP3    H164747   1.867   3.349  15.004  1.6479  0.2103  2.4072
14444TIP3    H264748   1.842   3.200  15.011 -1.6760  0.1643 -3.6835
14445TIP3   OH264749   1.445   6.193  15.719  0.0428 -0.4235  0.1190
14445TIP3    H164750   1.433   6.254  15.646 -0.0380  0.8167  1.1500
14445TIP3    H264751   1.365   6.140  15.719  0.3759 -0.9675 -1.1573
14446TIP3   OH264752   6.414   1.177   2.189 -0.3946 -0.1585 -0.7134
14446TIP3    H164753   6.424   1.261   2.144  0.3018  0.0456 -0.1799
14446TIP3    H264754   6.342   1.191   2.250 -0.9866 -0.2782 -1.3594
14447TIP3   OH264755   4.710   2.903   4.591  0.7085  0.4947 -0.1240
14447TIP3    H164756   4.669   2.817   4.584 -0.9208  1.1885  0.4499
14447TIP3    H264757   4.790   2.887   4.640  1.5154 -1.0014 -1.8194
14448TIP3   OH264758   3.701   0.011  11.233 -0.6475 -0.1673 -0.6830
14448TIP3    H164759   3.738  -0.058  11.288 -2.3013 -0.9019 -0.4516
14448TIP3    H264760   3.710  -0.023  11.144  1.3827  0.7193 -0.8803
14449TIP3   OH264761   0.615   2.629  14.450 -0.2205  0.0845  0.1280
14449TIP3    H164762   0.709   2.642  14.457 -0.3352  0.3351  1.5917
14449TIP3    H264763   0.597   2.552  14.505 -0.6601 -1.0533 -1.5462
14450TIP3   OH264764   4.289   3.244  15.893 -0.2735  0.0470 -0.2377
14450TIP3    H164765   4.211   3.245  15.948  0.3208 -0.9218  0.6667
14450TIP3    H264766   4.339   3.321  15.920 -0.2665 -0.1025  0.1919
14451TIP3   OH264767   1.613   4.381   5.892  1.0784 -0.0287 -0.2392
14451TIP3    H164768   1.696   4.429   5.889  0.8342  0.4718  0.7321
14451TIP3    H264769   1.560   4.427   5.957  0.3371 -0.8284 -0.2498
14452TIP3   OH264770   4.440   2.230   2.486 -0.6097 -0.1663  0.2334
14452TIP3    H164771   4.390   2.168   2.540  0.0032 -0.3863  0.5619
14452TIP3    H264772   4.510   2.177   2.448 -0.3254  0.2384  0.1879
14453TIP3   OH264773   5.898   1.295  17.011  0.6317  0.5527 -0.0758
14453TIP3    H164774   5.804   1.276  17.021  0.9572 -0.7924  0.7880
14453TIP3    H264775   5.941   1.216  17.045  2.1349  2.2762  2.3034
14454TIP3   OH264776   1.281   5.157  12.105 -0.1632  0.1051  0.0174
14454TIP3    H164777   1.279   5.095  12.178 -2.7544 -0.3252 -0.3038
14454TIP3    H264778   1.287   5.243  12.146 -2.3815 -0.0784  0.8702
14455TIP3   OH264779   1.247   1.788  17.021 -0.1110  0.5517  0.1661
14455TIP3    H164780   1.273   1.833  16.941 -0.0138  0.5911  0.2200
14455TIP3    H264781   1.163   1.747  17.000 -0.1528  0.6767  0.0869
14456TIP3   OH264782   5.795   4.420  12.693 -0.2509  0.2210  0.3388
14456TIP3    H164783   5.825   4.484  12.758 -0.8479  0.0942  0.7507
14456TIP3    H264784   5.771   4.473  12.617  1.0911  0.3126 -0.0397
14457TIP3   OH264785   5.025   0.626  12.080  0.5194  0.0785  0.4359
14457TIP3    H164786   5.002   0.708  12.123 -1.0932  0.0050 -0.2123
14457TIP3    H264787   5.034   0.563  12.152  1.0996  0.6484  0.8815
14458TIP3   OH264788   1.207   3.755   0.918  0.2039 -0.3492  0.1712
14458TIP3    H164789   1.127   3.704   0.934  1.7148 -2.5191  1.4280
14458TIP3    H264790   1.268   3.726   0.987  1.9543  1.5127 -0.4911
14459TIP3   OH264791   4.384   5.783  14.867  0.9923 -0.5872 -0.1293
14459TIP3    H164792   4.307   5.750  14.820  0.0218 -0.7952  1.5124
14459TIP3    H264793   4.397   5.720  14.938  1.4283  0.5322  0.8108
14460TIP3   OH264794   4.972   0.906   3.055  0.1092 -0.0822 -0.1239
14460TIP3    H164795   5.050   0.917   3.110 -0.0341  3.3640 -0.3911
14460TIP3    H264796   5.003   0.926   2.967 -1.2144  2.7539 -0.0571
14461TIP3   OH264797   3.431   5.808  10.480 -0.5218  0.3484  0.1003
14461TIP3    H164798   3.408   5.717  10.499  1.3694 -0.0707  0.5625
14461TIP3    H264799   3.521   5.804  10.447 -0.7314  1.9684 -0.7924
14462TIP3   OH264800   3.888   5.184  17.076  0.0000  0.8288  0.4394
14462TIP3    H164801   3.973   5.157  17.041  0.5291  0.4934  1.8754
14462TIP3    H264802   3.833   5.198  16.999  1.0992  0.1926 -0.4988
14463TIP3   OH264803   5.485   4.777   2.101 -0.8069 -0.3738 -0.1229
14463TIP3    H164804   5.502   4.861   2.060 -0.8098  0.0185  0.6711
14463TIP3    H264805   5.413   4.740   2.050 -2.2366  1.0268  0.8023
14464TIP3   OH264806   3.234   6.287   1.152 -0.4968  0.5799  0.5654
14464TIP3    H164807   3.261   6.212   1.099 -0.1401  0.9265  0.2550
14464TIP3    H264808   3.316   6.323   1.186 -0.6871  0.6809  0.9184
14465TIP3   OH264809   3.998   5.095   5.885 -0.0738 -0.2321 -0.2691
14465TIP3    H164810   3.922   5.037   5.880 -0.5228  0.2772  0.6036
14465TIP3    H264811   4.055   5.065   5.814 -0.6756 -1.2049 -0.3582
14466TIP3   OH264812   0.681   2.187   5.322  0.4909 -0.2881  0.0333
14466TIP3    H164813   0.697   2.193   5.416 -0.7350 -1.2620  0.3370
14466TIP3    H264814   0.635   2.104   5.311  1.1444 -0.4800 -1.5197
14467TIP3   OH264815   0.900   3.830   4.745 -0.2264  0.3217 -0.2603
14467TIP3    H164816   0.995   3.840   4.742 -0.2856  0.7065 -1.4742
14467TIP3    H264817   0.877   3.838   4.838  0.9962 -0.5818  0.1392
14468TIP3   OH264818   0.054   3.732  11.519  0.2628 -0.5604 -0.0824
14468TIP3    H164819   0.060   3.724  11.614  0.3869  1.9571  0.1885
14468TIP3    H264820   0.130   3.786  11.495 -2.1187  2.7571 -0.9334
14469TIP3   OH264821   4.086   3.350   3.799  0.2700  0.3152 -0.0774
14469TIP3    H164822   4.026   3.399   3.855 -0.4726 -0.1820 -0.4257
14469TIP3    H264823   4.077   3.259   3.827 -2.0043 -0.3646 -2.5920
14470TIP3   OH264824   1.794   0.361  11.835 -0.5171  0.0429 -0.3787
14470TIP3    H164825   1.730   0.293  11.854 -0.0711  0.1191  1.5201
14470TIP3    H264826   1.781   0.427  11.902  1.4444  0.1183  0.0039
14471TIP3   OH264827   3.401   6.756  10.848  0.1904  0.8604 -0.1987
14471TIP3    H164828   3.437   6.709  10.773  1.1857  0.2229  0.6529
14471TIP3    H264829   3.451   6.724  10.923 -1.6469  0.5101  0.9445
14472TIP3   OH264830   0.596   6.598   5.890  0.1089 -0.3325 -0.9523
14472TIP3    H164831   0.558   6.540   5.825  0.3926 -1.5998 -0.0456
14472TIP3    H264832   0.540   6.588   5.967 -0.0001  0.8369 -0.8571
14473TIP3   OH264833   0.556   3.874   4.690  0.7999  0.1352 -0.0054
14473TIP3    H164834   0.553   3.913   4.778 -1.1447 -1.5925  0.7842
14473TIP3    H264835   0.614   3.932   4.640 -0.9896  3.3769  1.3520
14474TIP3   OH264836   4.064   1.675   2.914 -0.7374 -1.0402 -0.3682
14474TIP3    H164837   4.140   1.679   2.973 -0.8610 -2.8287 -0.0321
14474TIP3    H264838   4.021   1.760   2.925  1.0433 -0.0926 -0.3520
14475TIP3   OH264839   6.273   0.015  12.621 -0.7725 -0.0173 -0.6090
14475TIP3    H164840   6.349   0.070  12.600 -0.3605 -0.0174  0.8252
14475TIP3    H264841   6.280  -0.003  12.714 -2.9371  0.6091 -0.2540
14476TIP3   OH264842   4.514   2.604   6.663 -0.1463 -0.4484 -0.3356
14476TIP3    H164843   4.553   2.541   6.603  0.6018  0.9657 -1.4040
14476TIP3    H264844   4.589   2.636   6.715 -0.5005 -0.3789  0.1389
14477TIP3   OH264845   4.446   4.322  13.222  0.1120  0.2174  0.0314
14477TIP3    H164846   4.493   4.374  13.156 -1.0307  0.8328 -0.3196
14477TIP3    H264847   4.482   4.234  13.212 -0.7819  0.0231 -2.1873
14478TIP3   OH264848   6.637   6.118   1.376  0.3011  0.1028  0.4359
14478TIP3    H164849   6.637   6.033   1.333  1.4544  0.4247 -0.2342
14478TIP3    H264850   6.642   6.098   1.469 -1.3545 -0.5857  0.4091
14479TIP3   OH264851   2.092   1.126   3.892 -0.2656  0.5883 -0.0633
14479TIP3    H164852   2.155   1.072   3.844  0.6411  0.8963  0.7445
14479TIP3    H264853   2.128   1.215   3.888 -0.0110  0.5822  1.3883
14480TIP3   OH264854   5.573   5.235   1.028 -0.5690 -0.6249  0.6059
14480TIP3    H164855   5.654   5.215   1.074 -0.0996 -1.8582 -0.6886
14480TIP3    H264856   5.597   5.237   0.936 -1.9114 -0.4676  0.2317
14481TIP3   OH264857   0.324   5.477   5.952 -0.1212 -0.1943 -0.4359
14481TIP3    H164858   0.327   5.384   5.975 -2.0953  0.0794  1.2245
14481TIP3    H264859   0.409   5.511   5.979 -0.2785 -1.0534  1.2714
14482TIP3   OH264860   1.893   3.723   0.507  0.3677  0.5527 -0.0700
14482TIP3    H164861   1.891   3.663   0.433  2.7803  1.3688 -0.9093
14482TIP3    H264862   1.886   3.810   0.467  0.9619  0.9740  0.7037
14483TIP3   OH264863   2.331   3.901  14.879  0.7376  0.3309  0.3698
14483TIP3    H164864   2.294   3.819  14.846 -0.5339  1.7258 -1.9570
14483TIP3    H264865   2.421   3.900  14.848  1.3858 -1.0183  2.1045
14484TIP3   OH264866   5.384   0.678  13.798 -0.8797  0.0579  0.1285
14484TIP3    H164867   5.344   0.672  13.711  1.7993 -0.6332 -1.1722
14484TIP3    H264868   5.476   0.696  13.781 -0.4796  1.1978  2.9115
14485TIP3   OH264869   3.352   1.729  12.265 -0.0547 -0.3522 -0.6191
14485TIP3    H164870   3.284   1.788  12.298  0.5741 -0.4481  0.9525
14485TIP3    H264871   3.397   1.779  12.198 -1.3901 -0.1334 -1.3805
14486TIP3   OH264872   1.029   2.014  14.453 -0.2399 -0.1070 -0.4939
14486TIP3    H164873   0.981   1.935  14.431 -0.3832  0.3221 -1.8724
14486TIP3    H264874   1.101   1.985  14.508 -1.1074 -0.9835  0.2037
14487TIP3   OH264875   3.229   4.206  14.333  0.1413 -0.5179 -0.4548
14487TIP3    H164876   3.287   4.219  14.408  0.6037  1.6309 -1.1187
14487TIP3    H264877   3.210   4.294  14.302 -0.0426 -1.3306 -2.8624
14488TIP3   OH264878   5.453   2.550  11.028  0.0793 -0.5568 -0.4874
14488TIP3    H164879   5.533   2.598  11.049  0.6338  0.1490 -3.6363
14488TIP3    H264880   5.447   2.481  11.095  2.0650  0.7469  1.1341
14489TIP3   OH264881   0.619   4.713   2.756 -0.1751 -0.0344  0.3446
14489TIP3    H164882   0.526   4.729   2.741 -0.2116  0.2583  0.8682
14489TIP3    H264883   0.661   4.798   2.741  0.3925 -0.7162 -2.6469
14490TIP3   OH264884   3.697   5.677   6.384  0.0431  0.2256  0.4166
14490TIP3    H164885   3.660   5.595   6.351  0.9857 -0.2538  0.5392
14490TIP3    H264886   3.758   5.705   6.316 -0.5817  1.0583  0.1804
14491TIP3   OH264887   3.223   1.314  15.020  0.1144  0.3923 -0.0551
14491TIP3    H164888   3.270   1.361  15.089  0.0885  0.1165  0.1484
14491TIP3    H264889   3.264   1.227  15.017  0.7529  0.7032 -1.0224
14492TIP3   OH264890   2.412   1.542  15.397  0.0809  0.7698  0.2997
14492TIP3    H164891   2.467   1.464  15.395 -1.2519 -0.1911 -1.0660
14492TIP3    H264892   2.474   1.615  15.399  1.4594 -0.2499 -1.7844
14493TIP3   OH264893   6.423   3.667   3.599  0.7695 -0.2834  0.5985
14493TIP3    H164894   6.478   3.589   3.594 -1.4175 -2.0921  2.5087
14493TIP3    H264895   6.350   3.649   3.540  1.3763  1.4169 -0.7458
14494TIP3   OH264896   6.608   5.027   5.651 -0.2743 -0.5399 -0.1004
14494TIP3    H164897   6.685   5.027   5.595 -1.8274 -1.2177 -2.3894
14494TIP3    H264898   6.558   5.104   5.623 -0.1132  0.3466  1.8953
14495TIP3   OH264899   4.695   0.897   4.726 -0.2874 -0.2828  0.0090
14495TIP3    H164900   4.600   0.898   4.738 -0.3778  1.8970 -0.4660
14495TIP3    H264901   4.731   0.927   4.809 -0.1019  0.2121 -0.2440
14496TIP3   OH264902   0.846   1.872  13.386  0.2837  0.2301  0.3847
14496TIP3    H164903   0.858   1.946  13.327  0.6779 -0.4248 -0.3711
14496TIP3    H264904   0.842   1.795  13.329 -0.8010 -0.2750  1.1025
14497TIP3   OH264905   2.216   0.406  15.009 -0.4295 -0.1254  0.2989
14497TIP3    H164906   2.222   0.454  15.092 -1.4594  0.2033  0.1946
14497TIP3    H264907   2.127   0.423  14.978 -0.0329 -0.1746 -0.9163
14498TIP3   OH264908   0.820   5.912  11.664 -0.3053 -0.1009  0.7199
14498TIP3    H164909   0.753   5.957  11.715 -1.2920 -1.0876  0.3279
14498TIP3    H264910   0.879   5.875  11.730 -1.9555 -1.9643  1.2340
14499TIP3   OH264911   3.540   5.866  10.993 -0.0406 -0.0406  0.3831
14499TIP3    H164912   3.556   5.809  10.918 -0.6622 -0.6897  0.7264
14499TIP3    H264913   3.479   5.932  10.961 -0.4863 -0.4512  0.3634
14500TIP3   OH264914   0.609   3.279   6.155  0.3748 -0.0031  0.4419
14500TIP3    H164915   0.675   3.249   6.217  0.6941 -1.2818 -0.4851
14500TIP3    H264916   0.544   3.209   6.152  1.5721 -1.1082 -2.3938
14501TIP3   OH264917   2.833   0.288  16.503  0.1053  0.2529  0.1646
14501TIP3    H164918   2.788   0.207  16.530 -0.2915  0.8100  1.2513
14501TIP3    H264919   2.886   0.262  16.428 -1.0162 -0.7318 -0.3330
14502TIP3   OH264920   4.245   0.962   5.033 -0.4359 -0.3862  0.5103
14502TIP3    H164921   4.321   1.013   5.062  0.2601 -0.4992 -1.0188
14502TIP3    H264922   4.282   0.891   4.982 -1.3737 -2.5953  2.6887
14503TIP3   OH264923   4.692   5.018   2.904 -0.2447 -0.0242  0.1194
14503TIP3    H164924   4.675   5.065   2.985  1.7672 -1.1095  1.2479
14503TIP3    H264925   4.779   5.045   2.878 -0.5293 -0.3405 -1.2284
14504TIP3   OH264926   4.334   1.953   5.746 -0.2265 -0.0146  0.4262
14504TIP3    H164927   4.247   1.935   5.712  0.2676 -0.1306 -0.8149
14504TIP3    H264928   4.380   1.870   5.739  0.3198  0.3177  0.0406
14505TIP3   OH264929   0.495   4.328   3.360 -0.1984 -0.8280 -0.3943
14505TIP3    H164930   0.549   4.275   3.300 -0.5209  0.6944 -2.0882
14505TIP3    H264931   0.549   4.405   3.378 -0.5180 -0.8105  0.5041
14506TIP3   OH264932   3.704   2.872   1.350 -0.1268  0.0935 -0.1960
14506TIP3    H164933   3.775   2.905   1.404  0.0447  2.0131 -1.5261
14506TIP3    H264934   3.747   2.837   1.272 -0.5104 -0.8481 -0.0041
14507TIP3   OH264935   3.838   4.120   3.427 -0.2481  0.4836 -0.6220
14507TIP3    H164936   3.824   4.095   3.336 -0.2094 -1.4405 -0.1382
14507TIP3    H264937   3.758   4.167   3.451 -0.5256  0.4600 -1.4697
14508TIP3   OH264938   0.236   4.006  16.695  0.1949 -0.3294  0.7020
14508TIP3    H164939   0.251   3.953  16.773 -0.3000 -1.1682  0.2446
14508TIP3    H264940   0.251   3.946  16.622 -1.2730 -0.1037  0.1877
14509TIP3   OH264941   0.452   3.671   4.988  0.1011  0.1554 -0.2405
14509TIP3    H164942   0.420   3.636   4.905 -1.1570  2.5420 -0.8671
14509TIP3    H264943   0.381   3.652   5.051  0.5332 -0.6034  0.0308
14510TIP3   OH264944   2.185   5.364  16.191  0.5658 -0.3562 -0.2591
14510TIP3    H164945   2.163   5.422  16.117 -0.2055 -0.7478 -0.3528
14510TIP3    H264946   2.199   5.278  16.150  2.1912 -0.1564 -0.1781
14511TIP3   OH264947   5.029   1.364  13.027  0.4777  0.4734 -0.2267
14511TIP3    H164948   5.086   1.290  13.007 -1.0116 -0.4349 -1.2702
14511TIP3    H264949   5.019   1.362  13.122  0.1974 -0.8726 -0.2718
14512TIP3   OH264950   5.530   4.634   2.527  0.1097 -0.0132 -0.6753
14512TIP3    H164951   5.572   4.625   2.612  0.0383 -0.6022 -0.6959
14512TIP3    H264952   5.438   4.647   2.547  0.1708  0.3844 -0.6508
14513TIP3   OH264953   5.808   3.733  15.543 -0.2982  0.0342  0.3130
14513TIP3    H164954   5.794   3.700  15.632  0.9680  0.2916  0.6202
14513TIP3    H264955   5.839   3.823  15.554 -1.0430  0.3947 -0.4278
14514TIP3   OH264956   3.616   3.445  11.004 -0.1810  0.3954 -0.3818
14514TIP3    H164957   3.702   3.479  11.031 -0.3189  1.4262 -1.2005
14514TIP3    H264958   3.610   3.466  10.911 -1.6566  1.0694 -0.1572
14515TIP3   OH264959   2.534   5.606  15.862 -0.1151 -1.0610  0.2552
14515TIP3    H164960   2.582   5.670  15.914  1.1575 -1.6906 -0.1017
14515TIP3    H264961   2.443   5.615  15.890 -0.2784  1.9281 -0.7983
14516TIP3   OH264962   1.571   6.541   1.558  0.1734  0.5159 -0.4435
14516TIP3    H164963   1.486   6.505   1.532 -0.4924  2.5674 -1.2885
14516TIP3    H264964   1.561   6.636   1.548  2.0301  0.9308  1.0906
14517TIP3   OH264965   6.142   1.806  15.799 -0.2628 -0.1749  0.6856
14517TIP3    H164966   6.212   1.870  15.786 -0.8596  0.0984 -1.5591
14517TIP3    H264967   6.069   1.839  15.748 -1.7556 -0.9557  2.2149
14518TIP3   OH264968   1.959   6.096  10.743  0.3063  0.4318  0.0350
14518TIP3    H164969   2.042   6.072  10.703 -0.4355 -1.2624 -0.5723
14518TIP3    H264970   1.969   6.073  10.835  1.0269  1.6955  0.2963
14519TIP3   OH264971   6.218   3.433  15.947  0.2600  0.0254  0.0765
14519TIP3    H164972   6.208   3.344  15.982  0.0247  0.1576  0.3508
14519TIP3    H264973   6.213   3.490  16.024  0.6140  0.2635 -0.0754
14520TIP3   OH264974   1.138   1.659   0.008  0.0171  0.0973  0.4272
14520TIP3    H164975   1.202   1.712   0.056 -0.7445  2.3662 -0.9088
14520TIP3    H264976   1.172   1.655  -0.081  0.2706 -2.1276  0.5737
14521TIP3   OH264977   6.646   5.779   0.221  0.5555 -0.3232  0.3835
14521TIP3    H164978   6.686   5.734   0.296  0.5002  1.1266  1.3261
14521TIP3    H264979   6.641   5.871   0.248 -0.3299  0.0823 -1.0454
14522TIP3   OH264980   4.134   5.183  15.589  0.4014 -0.1504  0.1089
14522TIP3    H164981   4.101   5.221  15.507  0.3445  0.1226  0.2565
14522TIP3    H264982   4.193   5.250  15.624 -2.7140  1.6619  2.4164
14523TIP3   OH264983   3.248   4.538   0.417 -0.4769  0.0614 -0.1973
14523TIP3    H164984   3.207   4.603   0.360 -0.3921 -1.0178 -1.5330
14523TIP3    H264985   3.309   4.588   0.472  2.0288  0.7797 -3.3780
14524TIP3   OH264986   5.032   2.550  12.019 -0.0468 -0.0483 -0.1545
14524TIP3    H164987   4.947   2.595  12.011  1.5523  3.0069 -2.4280
14524TIP3    H264988   5.060   2.537  11.929  2.3755  0.0689  0.5153
14525TIP3   OH264989   4.508   0.800   5.631  0.2590  0.1800  0.2191
14525TIP3    H164990   4.501   0.721   5.683 -0.8036 -0.1076 -0.3209
14525TIP3    H264991   4.507   0.872   5.695 -2.8365 -0.0658  0.6067
14526TIP3   OH264992   1.668   0.601   3.317 -0.4055  0.3232  0.0902
14526TIP3    H164993   1.628   0.516   3.337 -0.7495  0.1591 -1.2019
14526TIP3    H264994   1.603   0.645   3.262 -0.8962  2.0627  1.9715
14527TIP3   OH264995   6.116   0.581   3.868  0.4571 -0.4304 -0.5079
14527TIP3    H164996   6.087   0.629   3.790  1.2130 -0.3278 -0.7327
14527TIP3    H264997   6.044   0.592   3.931 -1.0769 -2.1646 -1.8310
14528TIP3   OH264998   3.168   5.400  17.165 -0.4720  0.0782  0.0460
14528TIP3    H164999   3.257   5.429  17.148 -0.6333  1.0885  0.7872
14528TIP3    H265000   3.124   5.478  17.201 -1.6372 -0.4059 -0.2765
14529TIP3   OH265001   0.214   1.973   2.671 -0.4772  0.2630 -0.0758
14529TIP3    H165002   0.168   1.960   2.754 -0.1002  3.9596  0.8628
14529TIP3    H265003   0.293   1.918   2.679  0.6845  2.1246  3.0957
14530TIP3   OH265004   4.623   0.506  11.252 -0.7242 -0.6333 -0.2955
14530TIP3    H165005   4.704   0.462  11.227  0.8401  1.0209  1.5293
14530TIP3    H265006   4.607   0.569  11.182 -0.6107 -1.1299 -0.7793
14531TIP3   OH265007   3.703   1.516   3.797  0.0287  0.3382 -0.7086
14531TIP3    H165008   3.727   1.436   3.750  1.6450  0.1508  0.3663
14531TIP3    H265009   3.777   1.575   3.783  0.1353  0.5969  0.8349
14532TIP3   OH265010   4.698   2.134   4.623  0.0723 -0.0913 -0.0938
14532TIP3    H165011   4.618   2.138   4.570  0.3075 -0.3520 -0.4740
14532TIP3    H265012   4.764   2.098   4.564  0.4437  0.0134  0.2532
14533TIP3   OH265013   5.916   6.112  12.276 -0.2692  0.1626 -0.2188
14533TIP3    H165014   5.906   6.019  12.299 -1.8956  0.4005  0.1688
14533TIP3    H265015   5.994   6.114  12.222  0.0484 -1.3792  0.1161
14534TIP3   OH265016   1.392   2.550   2.840 -0.2577 -0.5250 -0.7873
14534TIP3    H165017   1.315   2.538   2.785  0.2058  0.2537 -1.6302
14534TIP3    H265018   1.465   2.513   2.789  0.2424  0.5714 -0.8930
14535TIP3   OH265019   1.248   1.779   2.151 -0.3156 -0.2294  0.1724
14535TIP3    H165020   1.241   1.860   2.101 -0.2907 -0.6716 -0.5631
14535TIP3    H265021   1.342   1.771   2.169 -0.2377 -0.4183 -0.3071
14536TIP3   OH265022   1.002   1.431   5.648  0.2759 -0.9194 -0.2001
14536TIP3    H165023   1.016   1.473   5.733  1.2726  0.6182 -1.0705
14536TIP3    H265024   1.001   1.337   5.667 -1.8249 -0.5630  1.7862
14537TIP3   OH265025   1.405   1.757  11.751  0.4450 -0.6460 -0.0362
14537TIP3    H165026   1.366   1.844  11.742 -1.0523 -1.3439 -0.5521
14537TIP3    H265027   1.468   1.752  11.678  1.6693  0.5347  0.8857
14538TIP3   OH265028   1.687   5.748   6.045  0.4620 -0.4042  0.3986
14538TIP3    H165029   1.623   5.755   6.115 -1.8006  0.1983 -1.6004
14538TIP3    H265030   1.640   5.775   5.966  2.9568 -0.7461 -1.3399
14539TIP3   OH265031   3.237   4.237   0.719  0.2619  0.1751 -0.3150
14539TIP3    H165032   3.313   4.183   0.743  0.4872  0.1630 -1.0301
14539TIP3    H265033   3.258   4.324   0.754  2.0497  0.9844 -3.0751
14540TIP3   OH265034   5.217   4.624  14.378 -0.2861  0.2101 -0.4979
14540TIP3    H165035   5.179   4.649  14.294 -3.1408  0.4494  0.7705
14540TIP3    H265036   5.157   4.560  14.414 -0.5294  1.8955  2.4114
14541TIP3   OH265037   3.219   1.164  14.660 -0.0588  0.1630 -0.3909
14541TIP3    H165038   3.303   1.119  14.652 -0.0330 -0.3092  1.8686
14541TIP3    H265039   3.176   1.148  14.576  1.4643 -0.9038 -1.0327
14542TIP3   OH265040   3.018   0.795  11.078 -0.1893  0.2025  0.2965
14542TIP3    H165041   3.104   0.757  11.060  0.6775  1.3290  1.7898
14542TIP3    H265042   2.969   0.725  11.121  1.0191  0.3506  2.0529
14543TIP3   OH265043   4.277   0.159  13.083 -0.4650  0.2443 -0.7482
14543TIP3    H165044   4.246   0.223  13.018 -0.0456 -0.8341 -2.0440
14543TIP3    H265045   4.197   0.113  13.110 -0.3303 -1.1929 -2.6163
14544TIP3   OH265046   1.452   5.712  17.180 -0.8142  0.9183 -0.1069
14544TIP3    H165047   1.398   5.652  17.233 -0.1521  0.5454  0.1581
14544TIP3    H265048   1.506   5.654  17.127  1.9545  1.1555  2.2365
14545TIP3   OH265049   4.071   1.433   2.702  0.0463  0.2384  0.0403
14545TIP3    H165050   4.074   1.337   2.696 -0.5272  0.2987 -1.7181
14545TIP3    H265051   4.135   1.455   2.770 -0.2070 -1.4151  0.8579
14546TIP3   OH265052   5.087   2.550   0.767 -0.9391 -0.4696 -0.6252
14546TIP3    H165053   5.035   2.629   0.784 -0.2096 -0.0080 -0.4933
14546TIP3    H265054   5.093   2.547   0.671  0.8682  0.8958 -0.6132
14547TIP3   OH265055   4.410   6.260   5.024  0.3785  0.1027 -0.5483
14547TIP3    H165056   4.474   6.233   4.959 -0.8525 -0.2084 -1.6767
14547TIP3    H265057   4.425   6.202   5.099  1.5894  0.2409 -0.6749
14548TIP3   OH265058   6.273   5.620  13.961 -0.3717 -0.0525 -0.1246
14548TIP3    H165059   6.318   5.705  13.955 -0.2985 -0.1204 -0.6088
14548TIP3    H265060   6.343   5.556  13.946 -0.6062 -0.1629 -0.7764
14549TIP3   OH265061   2.816   6.154   2.402 -0.2914  0.4191 -0.3906
14549TIP3    H165062   2.816   6.206   2.322  2.1036 -0.5182 -1.1151
14549TIP3    H265063   2.834   6.217   2.472 -2.1675  1.2092 -0.5611
14550TIP3   OH265064   3.281   3.944  16.782  0.4056  0.3165  0.0996
14550TIP3    H165065   3.232   3.929  16.700 -0.6661 -0.3273  0.8235
14550TIP3    H265066   3.369   3.967  16.754  0.3424 -0.9159 -1.2384
14551TIP3   OH265067   5.776   5.925  10.673  0.0408 -0.8988 -0.0101
14551TIP3    H165068   5.803   6.011  10.706  0.0155 -0.2325 -1.6348
14551TIP3    H265069   5.859   5.882  10.649  0.0068 -1.0426  0.1288
14552TIP3   OH265070   4.314   3.606   5.830  0.3422  0.6012  0.0305
14552TIP3    H165071   4.249   3.662   5.788  1.4227  0.8657 -1.3777
14552TIP3    H265072   4.351   3.554   5.758  1.1401 -0.0867  0.9081
14553TIP3   OH265073   6.304   0.262   2.390 -0.6398  0.3819  0.3763
14553TIP3    H165074   6.266   0.223   2.311  0.1370 -1.1820  0.7302
14553TIP3    H265075   6.304   0.356   2.372  0.1939  0.0322 -1.8210
14554TIP3   OH265076   3.168   5.164  15.390  0.4736  0.1972 -0.0285
14554TIP3    H165077   3.211   5.089  15.433 -0.9677 -0.1106  0.9466
14554TIP3    H265078   3.185   5.151  15.297 -0.5523 -1.8944  0.0257
14555TIP3   OH265079   3.416   4.600   1.727 -0.9088 -0.1042  0.2210
14555TIP3    H165080   3.485   4.543   1.764 -1.0482 -1.1170 -1.0097
14555TIP3    H265081   3.334   4.556   1.749 -1.0126 -0.4845 -0.8720
14556TIP3   OH265082   5.497   1.236   5.508  0.2200 -0.6174 -0.0854
14556TIP3    H165083   5.550   1.157   5.511 -1.7904 -2.0714 -0.4128
14556TIP3    H265084   5.435   1.221   5.437 -1.1535  0.6084  0.7845
14557TIP3   OH265085   4.088   5.177  11.127 -0.1829 -0.0232 -0.2226
14557TIP3    H165086   4.078   5.082  11.117  1.2248 -0.4735  1.9177
14557TIP3    H265087   4.072   5.193  11.220  1.5283  1.5281 -0.1370
14558TIP3   OH265088   3.383   3.920  14.571  0.4591  0.7587  0.2580
14558TIP3    H165089   3.303   3.921  14.519  0.5040  0.8700  0.1887
14558TIP3    H265090   3.354   3.936  14.661  0.2846 -0.3594  0.4114
14559TIP3   OH265091   4.216   2.040   0.053 -0.1742  0.2433 -0.2675
14559TIP3    H165092   4.299   2.087   0.046  0.1171 -0.4667 -2.2802
14559TIP3    H265093   4.171   2.059  -0.030 -1.5094 -0.3375  0.2998
14560TIP3   OH265094   4.079   1.768  12.247 -0.3950  0.2859 -1.1830
14560TIP3    H165095   4.019   1.695  12.263 -1.4466  1.3050 -0.2552
14560TIP3    H265096   4.102   1.799  12.335  2.6002 -0.8918 -1.4317
14561TIP3   OH265097   0.381   4.102  11.150  0.2797  0.5862 -0.6219
14561TIP3    H165098   0.428   4.176  11.187  2.1054  0.0878 -1.8341
14561TIP3    H265099   0.418   4.090  11.063 -0.2685 -1.4822 -0.6333
14562TIP3   OH265100   4.506   2.249  11.256 -0.3366  0.5775  0.4078
14562TIP3    H165101   4.480   2.242  11.164  2.7280  0.5038 -0.5388
14562TIP3    H265102   4.544   2.337  11.264  0.4958  0.1584  1.2874
14563TIP3   OH265103   1.970   0.268  11.563 -0.8620 -0.0729 -0.7008
14563TIP3    H165104   1.975   0.203  11.633 -0.7883 -0.2797 -0.8975
14563TIP3    H265105   1.932   0.221  11.489 -2.5027  0.5544 -0.3127
14564TIP3   OH265106   6.112   2.966  13.508 -0.1664 -0.4541  0.1633
14564TIP3    H165107   6.067   2.899  13.561  0.2401 -0.8387  0.0278
14564TIP3    H265108   6.089   3.049  13.550  0.8421 -0.8049  1.4782
14565TIP3   OH265109   4.573   0.681   0.105 -0.4736  0.1762  0.6861
14565TIP3    H165110   4.506   0.746   0.088 -0.8470 -0.3710  0.0025
14565TIP3    H265111   4.617   0.711   0.185 -2.1006  0.0918  1.6612
14566TIP3   OH265112   6.433   1.856  13.263  0.1696 -0.0129  0.3379
14566TIP3    H165113   6.380   1.935  13.254 -2.7170 -1.6610  1.4277
14566TIP3    H265114   6.448   1.827  13.173 -1.1267  0.3512 -0.0177
14567TIP3   OH265115   2.710   2.596  11.026 -0.2729  0.2487 -0.1448
14567TIP3    H165116   2.753   2.656  10.966 -0.3882  0.4745 -0.0030
14567TIP3    H265117   2.748   2.615  11.112 -1.4498  1.2468  0.1906
14568TIP3   OH265118   3.398   4.737   5.650  0.1818 -0.2475 -0.2796
14568TIP3    H165119   3.439   4.823   5.661 -3.0907  1.6518 -1.2264
14568TIP3    H265120   3.351   4.722   5.732  0.7369 -1.1966 -0.1171
14569TIP3   OH265121   4.185   5.023   4.390 -0.0890  0.2046 -0.2330
14569TIP3    H165122   4.160   5.114   4.407 -1.4607 -0.4840  1.8153
14569TIP3    H265123   4.220   4.992   4.474  2.6863 -0.5165 -1.5196
14570TIP3   OH265124   2.997   5.190  15.833  0.1143 -0.4401  0.0199
14570TIP3    H165125   2.999   5.187  15.929  2.6241 -1.1028  0.0175
14570TIP3    H265126   3.056   5.262  15.810 -0.8566  0.0479 -1.0500
14571TIP3   OH265127   2.136   0.173  16.494 -0.8833  0.2755 -0.4506
14571TIP3    H165128   2.189   0.100  16.524 -0.4106  1.3778  1.5180
14571TIP3    H265129   2.059   0.173  16.551  0.0006  2.3732  0.8705
14572TIP3   OH265130   5.273   1.887  15.799  0.0669  0.1482  0.1380
14572TIP3    H165131   5.326   1.963  15.777  1.0703 -0.6942 -0.4254
14572TIP3    H265132   5.332   1.829  15.847 -0.2847 -0.8528 -0.5936
14573TIP3   OH265133   3.959   5.960  11.069  0.2776  0.5630 -0.4450
14573TIP3    H165134   3.969   5.877  11.115 -0.7021  1.8362  2.2524
14573TIP3    H265135   4.046   5.978  11.032  0.9962 -0.7379  0.5689
14574TIP3   OH265136   6.391   4.925  12.546 -0.2071  0.4634 -0.4012
14574TIP3    H165137   6.370   4.941  12.638 -0.0854  1.4457 -0.5332
14574TIP3    H265138   6.480   4.958  12.535 -0.0759  0.0011 -0.7897
14575TIP3   OH265139   0.285   6.257   2.840 -0.2669 -0.2108 -0.2503
14575TIP3    H165140   0.207   6.243   2.786  0.2099  0.7930 -1.2321
14575TIP3    H265141   0.252   6.291   2.923 -0.9544 -0.9887 -0.1975
14576TIP3   OH265142   1.211   5.061   4.786 -0.3672 -0.6024 -0.4563
14576TIP3    H165143   1.161   5.139   4.808 -0.4929 -0.4334 -1.3071
14576TIP3    H265144   1.196   5.047   4.693  0.7616 -0.8348 -0.6278
14577TIP3   OH265145   6.065   6.524   0.053  0.5655  0.1748  0.3074
14577TIP3    H165146   6.097   6.598   0.001 -0.8793  1.4417  1.1525
14577TIP3    H265147   5.982   6.554   0.091  0.3537 -1.5767  1.3735
14578TIP3   OH265148   0.317   4.963   0.786  0.3157 -0.0603  0.1815
14578TIP3    H165149   0.397   4.918   0.761  0.4985  1.0544 -1.3749
14578TIP3    H265150   0.259   4.956   0.710 -0.7425 -0.0982  0.9545
14579TIP3   OH265151   4.933   5.902   3.928  0.0925 -0.0573 -0.1246
14579TIP3    H165152   4.884   5.902   3.845 -1.9727 -0.9544  1.0044
14579TIP3    H265153   4.946   5.995   3.947 -2.1169  0.2912 -0.0123
14580TIP3   OH265154   2.614   1.667   1.121 -0.1053 -0.0606  0.2225
14580TIP3    H165155   2.672   1.623   1.059 -0.5321 -0.1940 -0.0875
14580TIP3    H265156   2.562   1.597   1.160 -0.5776  0.1324 -0.0533
14581TIP3   OH265157   1.374   0.272  13.391 -0.0021 -0.2142 -1.0103
14581TIP3    H165158   1.452   0.321  13.417  0.7602 -2.3319  1.0024
14581TIP3    H265159   1.336   0.241  13.473 -3.0605  0.7528 -1.9122
14582TIP3   OH265160   1.767   0.266   3.171  0.4314 -0.2070  0.4818
14582TIP3    H165161   1.825   0.202   3.211 -0.1984  0.0313  1.8229
14582TIP3    H265162   1.695   0.275   3.233  1.0311  2.6107  0.9017
14583TIP3   OH265163   0.102   4.306   2.903  0.1631 -0.2427  0.2329
14583TIP3    H165164   0.190   4.343   2.907 -0.2412  0.6399  1.6789
14583TIP3    H265165   0.062   4.345   2.826  1.6268 -2.0871 -1.5427
14584TIP3   OH265166   1.307   0.794  13.602  0.0879  0.8993  0.2538
14584TIP3    H165167   1.333   0.815  13.512  1.5184  1.1515  0.7092
14584TIP3    H265168   1.248   0.719  13.593  0.2544  0.8911 -0.8878
14585TIP3   OH265169   6.378   0.925  11.938 -0.4253  0.4362  0.0642
14585TIP3    H165170   6.439   0.852  11.952  0.4968  1.3437  0.9452
14585TIP3    H265171   6.326   0.898  11.862  1.0842 -0.3677 -0.7395
14586TIP3   OH265172   3.231   3.208  14.923 -0.1591 -0.3133  0.1490
14586TIP3    H165173   3.166   3.156  14.971 -2.0584  0.0761 -1.8302
14586TIP3    H265174   3.309   3.153  14.922 -1.2151 -1.9164  0.5077
14587TIP3   OH265175   1.179   4.869   2.494  0.0322 -0.0319  0.4711
14587TIP3    H165176   1.143   4.957   2.477  0.7804 -0.2015 -2.4353
14587TIP3    H265177   1.233   4.881   2.572  1.4569  2.5533 -0.7683
14588TIP3   OH265178   3.124   4.403   4.681  0.2150  0.0081  0.0065
14588TIP3    H165179   3.178   4.457   4.740 -0.5284  1.4725 -0.6054
14588TIP3    H265180   3.042   4.392   4.728 -0.9475  2.4384 -1.2530
14589TIP3   OH265181   0.896   0.267  14.401  0.6598 -0.2513 -0.1547
14589TIP3    H165182   0.848   0.192  14.368  1.7010 -0.4205 -1.3412
14589TIP3    H265183   0.980   0.264  14.355  0.3473  2.2169 -1.0268
14590TIP3   OH265184   4.358   1.374  16.195 -0.7672 -0.4595 -0.2350
14590TIP3    H165185   4.393   1.360  16.107  0.6009 -2.1942  0.5236
14590TIP3    H265186   4.337   1.286  16.226 -1.6002  0.1632  1.0412
14591TIP3   OH265187   0.139   0.409  13.878  0.6983 -0.2180  0.9350
14591TIP3    H165188   0.134   0.340  13.812  2.3009 -1.8544  2.3905
14591TIP3    H265189   0.049   0.440  13.889  0.1849 -0.9463 -0.8894
14592TIP3   OH265190   0.497   3.707  14.019  0.0405  0.6702  0.6571
14592TIP3    H165191   0.530   3.796  14.030 -2.0814  1.3835  1.7253
14592TIP3    H265192   0.446   3.689  14.098  0.1061 -1.3778  0.3090
14593TIP3   OH265193   6.504   0.861   2.519  0.8354  0.7312 -0.0954
14593TIP3    H165194   6.482   0.849   2.427 -0.2399  1.7913 -0.0031
14593TIP3    H265195   6.436   0.813   2.567  0.8076  1.0219  0.1593
14594TIP3   OH265196   6.637   6.425  16.558  0.1853  0.2102  0.4989
14594TIP3    H165197   6.660   6.477  16.481  0.3185 -0.8737 -0.2256
14594TIP3    H265198   6.715   6.371  16.574 -0.2413 -0.3526  0.7169
14595TIP3   OH265199   3.679   4.759   3.455  0.0946  0.0645 -0.2105
14595TIP3    H165200   3.678   4.711   3.538 -0.7194 -1.8961 -1.2796
14595TIP3    H265201   3.682   4.691   3.388 -3.2728  1.3200 -1.8998
14596TIP3   OH265202   2.905   3.714  16.307  0.1599 -0.0009 -0.3520
14596TIP3    H165203   2.853   3.643  16.269  1.4511 -0.4691 -1.3077
14596TIP3    H265204   2.890   3.788  16.248  0.5422 -0.1286 -0.6130
14597TIP3   OH265205   6.000   3.890   0.587  0.2012  0.2980  0.1751
14597TIP3    H165206   6.045   3.835   0.651 -0.2828 -1.2104 -0.7214
14597TIP3    H265207   6.037   3.865   0.502  0.5482  1.9759 -0.2084
14598TIP3   OH265208   1.341   4.447  12.039  0.6322  0.3090  0.0920
14598TIP3    H165209   1.296   4.530  12.021 -0.6584 -0.7991 -2.2785
14598TIP3    H265210   1.410   4.443  11.972  1.7630  0.1639  1.2154
14599TIP3   OH265211   6.138   4.981  13.002 -0.5458 -0.5542  0.2390
14599TIP3    H165212   6.150   4.940  13.087 -0.4709 -1.4899 -0.2058
14599TIP3    H265213   6.043   4.981  12.988 -0.7695  1.6432  1.2661
14600TIP3   OH265214   4.098   5.322   5.339 -0.2628 -0.1849  0.4064
14600TIP3    H165215   4.009   5.337   5.372 -0.6726 -2.7476  0.6776
14600TIP3    H265216   4.092   5.345   5.246 -1.3166 -0.6587  0.3398
14601TIP3   OH265217   1.684   0.492   5.637  0.6501 -0.0131  0.0959
14601TIP3    H165218   1.735   0.573   5.636  2.3724 -0.9321 -3.2810
14601TIP3    H265219   1.596   0.519   5.610  0.9682  0.8278 -0.1364
14602TIP3   OH265220   4.432   0.122  11.441  0.0307  0.0941 -0.2166
14602TIP3    H165221   4.486   0.198  11.465 -0.8755  0.6290  0.1686
14602TIP3    H265222   4.488   0.047  11.458  1.0797  0.6727 -0.9389
14603TIP3   OH265223   3.576   0.541  15.815 -0.0363 -0.1676  0.6434
14603TIP3    H165224   3.622   0.618  15.783 -1.0013  0.4390  0.6714
14603TIP3    H265225   3.484   0.558  15.796 -0.1195 -2.1632 -1.1208
14604TIP3   OH265226   3.514   0.772  14.836 -0.2225  0.0345 -0.0925
14604TIP3    H165227   3.459   0.696  14.854 -1.0799  0.6878  0.0865
14604TIP3    H265228   3.567   0.782  14.915 -1.9322  1.1493  0.9796
14605TIP3   OH265229   6.377   0.535  11.314 -0.1334  0.3422 -0.3316
14605TIP3    H165230   6.348   0.447  11.337  0.7422  0.6768  2.3537
14605TIP3    H265231   6.297   0.587  11.312 -0.3407  0.1521  1.5298
14606TIP3   OH265232   2.213   3.144   6.122  0.2771 -0.3555 -0.2456
14606TIP3    H165233   2.143   3.210   6.121  2.4469  2.1071 -0.7113
14606TIP3    H265234   2.293   3.194   6.106  2.0279 -3.2284 -1.1552
14607TIP3   OH265235   6.087   4.602   6.445 -0.5217 -0.4877  0.4984
14607TIP3    H165236   6.116   4.527   6.393 -0.7640  0.2942 -0.8252
14607TIP3    H265237   6.167   4.639   6.482 -0.5138 -2.0749  2.1593
14608TIP3   OH265238   4.032   0.382   4.162 -0.5257 -0.3308  0.1960
14608TIP3    H165239   4.081   0.304   4.189 -0.7431 -0.8469 -0.8051
14608TIP3    H265240   3.941   0.351   4.156 -0.7187  0.1864  0.4792
14609TIP3   OH265241   2.600   4.254  15.250  0.5797 -0.1289  0.1778
14609TIP3    H165242   2.624   4.191  15.318  0.1849 -1.3896 -0.8117
14609TIP3    H265243   2.661   4.236  15.178  1.9232  2.1136  0.6318
14610TIP3   OH265244   0.879   5.067   1.299  0.3036  0.3257  0.0796
14610TIP3    H165245   0.791   5.078   1.265  1.2552  1.6691 -2.1431
14610TIP3    H265246   0.878   5.112   1.384 -1.4404 -0.8077  0.7118
14611TIP3   OH265247   0.111   6.571   1.149  0.1685 -0.1106  0.2049
14611TIP3    H165248   0.106   6.525   1.233  0.4868 -0.7202 -0.1040
14611TIP3    H265249   0.113   6.664   1.173  1.3724 -0.3042  0.9382
14612TIP3   OH265250   5.032   6.364   5.583 -0.1403 -0.2621  0.0429
14612TIP3    H165251   5.098   6.400   5.643 -1.0450 -0.1700  1.0162
14612TIP3    H265252   4.961   6.428   5.585 -2.1399 -2.3607  2.4226
14613TIP3   OH265253   5.878   1.436   5.472 -0.5959  0.4642  0.4636
14613TIP3    H165254   5.932   1.388   5.410 -0.9831  0.0171  0.4729
14613TIP3    H265255   5.901   1.400   5.558 -1.0633  0.1196  0.4478
14614TIP3   OH265256   6.316   1.065   5.590 -0.3271 -0.3993 -0.1979
14614TIP3    H165257   6.341   1.056   5.498 -2.5014  0.1882 -0.9140
14614TIP3    H265258   6.327   1.158   5.609 -1.0524 -0.2955 -0.2594
14615TIP3   OH265259   3.647   6.614  14.736 -0.4549  0.3558 -0.1107
14615TIP3    H165260   3.719   6.598  14.675 -1.4476 -0.7510 -1.0393
14615TIP3    H265261   3.662   6.551  14.807 -0.6779 -0.0799 -0.4513
14616TIP3   OH265262   1.689   5.934   1.023  0.0694  0.5261  0.4303
14616TIP3    H165263   1.766   5.897   0.980 -0.1964  1.6907 -1.1172
14616TIP3    H265264   1.623   5.939   0.954 -0.7076  1.5247  1.2205
14617TIP3   OH265265   0.208   2.351  12.544  0.1471  0.2372 -0.3921
14617TIP3    H165266   0.205   2.430  12.598  0.5354 -0.2669  0.3993
14617TIP3    H265267   0.233   2.282  12.606  1.8000 -0.1633 -1.4429
14618TIP3   OH265268   3.358   5.184   6.024  0.7489 -0.1371 -0.8100
14618TIP3    H165269   3.437   5.146   5.985  0.3079 -1.0429 -0.8508
14618TIP3    H265270   3.312   5.109   6.063  0.2992  0.4939 -0.1009
14619TIP3   OH265271   5.762   1.243   2.462  0.2735 -0.5152 -0.1940
14619TIP3    H165272   5.712   1.297   2.400 -1.2514 -1.9413 -0.2730
14619TIP3    H265273   5.759   1.292   2.544 -0.5724 -0.1981 -0.4058
14620TIP3   OH265274   5.856   5.891  16.748 -0.6340  0.3237  0.5430
14620TIP3    H165275   5.775   5.941  16.735 -0.3314  0.4699 -0.9749
14620TIP3    H265276   5.896   5.889  16.662  0.7857 -0.1042  1.1913
14621TIP3   OH265277   5.471   3.941  16.537  0.4279  0.1079 -0.5090
14621TIP3    H165278   5.497   3.969  16.450 -1.3840  1.4656 -0.6789
14621TIP3    H265279   5.452   3.847  16.527  0.7279  0.1359 -1.4513
14622TIP3   OH265280   4.500   1.235  11.228 -0.0455 -0.3304  0.2570
14622TIP3    H165281   4.447   1.170  11.181  0.4062  0.7055 -1.8070
14622TIP3    H265282   4.471   1.228  11.319 -1.8010 -1.6569 -0.3419
14623TIP3   OH265283   3.268   4.279  14.048 -0.0363 -0.2784  0.7266
14623TIP3    H165284   3.258   4.353  14.107 -0.1036 -0.3434  0.7977
14623TIP3    H265285   3.203   4.294  13.979  1.5801  1.0001 -0.6018
14624TIP3   OH265286   1.696   4.856  14.445 -0.4730 -0.9269  0.2049
14624TIP3    H165287   1.707   4.803  14.366 -1.6779 -1.4248  0.3502
14624TIP3    H265288   1.677   4.793  14.514  0.4813 -0.4874  0.8920
14625TIP3   OH265289   5.528   2.708   4.238  0.3532  0.3716  0.1463
14625TIP3    H165290   5.539   2.802   4.226  0.8235  0.2413 -0.5163
14625TIP3    H265291   5.577   2.688   4.318  1.8245  0.4194 -0.6919
14626TIP3   OH265292   3.844   0.971  13.299  0.2067  0.0503 -0.0148
14626TIP3    H165293   3.859   1.062  13.275  0.9998 -0.0805 -0.0216
14626TIP3    H265294   3.931   0.932  13.304 -0.1654 -0.9493 -0.9045
14627TIP3   OH265295   1.248   3.865  14.029 -0.1602 -0.3055 -0.5987
14627TIP3    H165296   1.254   3.960  14.015  0.5215 -0.4756 -1.5535
14627TIP3    H265297   1.286   3.827  13.950 -1.3566 -1.3921 -0.6836
14628TIP3   OH265298   3.395   0.261   5.616  0.0366  0.5497  0.0144
14628TIP3    H165299   3.309   0.300   5.634 -0.7610 -0.6187 -1.1271
14628TIP3    H265300   3.425   0.230   5.701 -1.5435 -0.7059  0.1497
14629TIP3   OH265301   3.461   2.367   5.499 -0.4632  0.2093 -0.0910
14629TIP3    H165302   3.516   2.329   5.568  0.8870  0.5941 -0.9195
14629TIP3    H265303   3.405   2.430   5.544 -0.3231 -0.2750  0.7862
14630TIP3   OH265304   1.940   2.869   2.334 -0.1284 -0.1927  0.9100
14630TIP3    H165305   2.007   2.846   2.397  2.1162  1.6412 -0.6173
14630TIP3    H265306   1.943   2.965   2.330 -1.0892 -0.1942 -1.0207
14631TIP3   OH265307   2.330   6.235   6.530 -0.2460  0.0228  0.0841
14631TIP3    H165308   2.312   6.192   6.614 -1.6938 -1.5329 -0.9630
14631TIP3    H265309   2.415   6.202   6.503  0.0106  0.1619  0.7059
14632TIP3   OH265310   1.725   0.417   2.463  0.4786 -0.0750  0.2498
14632TIP3    H165311   1.689   0.336   2.499 -0.0146  0.3286  0.6740
14632TIP3    H265312   1.692   0.421   2.373 -3.1997  1.8217  1.5044
14633TIP3   OH265313   4.431   4.054  16.170  0.2790  0.2509  0.6810
14633TIP3    H165314   4.397   4.091  16.252 -1.0052 -0.1293  0.3367
14633TIP3    H265315   4.422   4.125  16.106  0.9551  0.4325  0.7816
14634TIP3   OH265316   2.273   5.494   2.272  0.3935 -0.3801 -0.1292
14634TIP3    H165317   2.310   5.406   2.262 -0.7111 -0.7923 -0.8109
14634TIP3    H265318   2.179   5.479   2.283  0.0027  0.7551 -1.5844
14635TIP3   OH265319   2.645   1.423   1.823  0.0885 -0.8652 -0.4427
14635TIP3    H165320   2.705   1.492   1.852 -0.9533 -0.0527 -0.1285
14635TIP3    H265321   2.668   1.347   1.877 -0.0517 -0.1592  0.6549
14636TIP3   OH265322   5.078   2.957   5.204  0.1766  0.5094  0.1654
14636TIP3    H165323   5.159   2.969   5.254 -0.2150 -0.6448  1.0940
14636TIP3    H265324   5.098   2.887   5.142  0.4014  1.3805 -0.7811
14637TIP3   OH265325   1.873   0.039  11.705  0.3779  0.1312 -0.4027
14637TIP3    H165326   1.921   0.003  11.780  0.5498  0.1367 -0.5115
14637TIP3    H265327   1.785   0.002  11.714  0.2219  0.6085  0.1487
14638TIP3   OH265328   6.034   0.314  10.386  0.0320 -0.4141  0.5322
14638TIP3    H165329   5.956   0.275  10.348  0.9145 -1.2563 -0.4778
14638TIP3    H265330   6.081   0.241  10.427  2.5402 -0.9222 -2.8094
14639TIP3   OH265331   3.991   2.448  11.767 -0.2638 -0.6572 -0.5198
14639TIP3    H165332   4.073   2.477  11.729 -1.0403  2.6363  0.0379
14639TIP3    H265333   4.017   2.384  11.833  1.9519  0.7286  0.0534
14640TIP3   OH265334   5.705   4.136   1.748  0.0026  0.1771  0.1340
14640TIP3    H165335   5.692   4.068   1.814 -2.5046  0.2106 -0.2308
14640TIP3    H265336   5.741   4.210   1.797 -0.5338 -0.2512  1.2266
14641TIP3   OH265337   3.761   1.609   3.438 -0.1844 -0.1124  0.1031
14641TIP3    H165338   3.765   1.692   3.391 -2.0226  0.9948  1.7668
14641TIP3    H265339   3.817   1.622   3.515  2.4415 -1.7497 -1.3665
14642TIP3   OH265340   5.300   6.478  12.445 -0.9573 -0.0755  0.3447
14642TIP3    H165341   5.339   6.554  12.488  1.4327  0.0465 -1.7906
14642TIP3    H265342   5.295   6.411  12.513 -0.1816  1.0265  1.5282
14643TIP3   OH265343   3.006   1.796  15.298  0.1076 -0.0281 -0.3543
14643TIP3    H165344   3.094   1.821  15.270  0.3901 -0.2519  0.3167
14643TIP3    H265345   3.009   1.702  15.311  0.3037  0.1757  1.4262
14644TIP3   OH265346   2.993   4.238  11.682 -0.1169  0.2585 -0.5076
14644TIP3    H165347   2.931   4.311  11.676 -1.2814 -0.5099  1.4060
14644TIP3    H265348   3.030   4.245  11.770  2.8834  0.8856 -1.6673
14645TIP3   OH265349   5.225   1.994   2.096 -0.1066 -0.3687 -0.0808
14645TIP3    H165350   5.252   1.907   2.066  0.4658 -0.2450  0.0599
14645TIP3    H265351   5.196   2.039   2.016 -1.3422 -1.0053 -0.0158
14646TIP3   OH265352   0.219   4.442  15.745 -0.1260 -0.5130  0.4259
14646TIP3    H165353   0.185   4.459  15.657  0.5369  0.3534  0.3138
14646TIP3    H265354   0.267   4.359  15.737 -0.4725 -0.6811  0.0870
14647TIP3   OH265355   0.339   3.740  12.697  0.2211 -0.3621  0.4769
14647TIP3    H165356   0.286   3.665  12.669 -0.8858  0.4396  0.3859
14647TIP3    H265357   0.344   3.733  12.792  0.1193 -0.5461  0.4683
14648TIP3   OH265358   6.675   3.447   1.914 -0.3213 -0.4801  0.4172
14648TIP3    H165359   6.629   3.384   1.970 -0.0870 -0.6694  0.3988
14648TIP3    H265360   6.710   3.512   1.975 -0.2986 -0.5377  0.4656
14649TIP3   OH265361   2.724   1.183  15.790  0.2020  0.0858 -0.6434
14649TIP3    H165362   2.736   1.277  15.799  0.8892  0.0196 -0.7968
14649TIP3    H265363   2.710   1.169  15.697 -0.2009  0.0624 -0.5828
14650TIP3   OH265364   4.113   4.254  16.779 -0.0555  0.7081  0.4833
14650TIP3    H165365   4.093   4.245  16.686  0.0991  0.4565  0.4733
14650TIP3    H265366   4.130   4.348  16.791  0.7269  0.6226  0.0937
14651TIP3   OH265367   2.533   4.456   6.076 -0.1457  0.2599 -0.7987
14651TIP3    H165368   2.455   4.459   6.131 -0.5773 -1.3710 -1.2903
14651TIP3    H265369   2.529   4.372   6.031  0.4697  1.3030 -2.9515
14652TIP3   OH265370   0.750   5.032   3.215  0.4072 -0.2526  0.0042
14652TIP3    H165371   0.762   5.000   3.125  0.0598  1.6827 -0.7828
14652TIP3    H265372   0.839   5.036   3.250  1.0818  2.4647 -1.6166
14653TIP3   OH265373   2.687   5.032   2.234 -0.0671 -0.0602  0.2481
14653TIP3    H165374   2.684   4.989   2.319  0.9923  1.2628  0.9855
14653TIP3    H265375   2.748   4.980   2.182 -1.0713 -1.1397  0.1201
14654TIP3   OH265376   6.731   3.579   5.794  0.1537  0.1941 -0.1222
14654TIP3    H165377   6.671   3.507   5.812  0.9521 -0.4622 -0.0231
14654TIP3    H265378   6.690   3.655   5.833 -0.3399 -0.3494  0.4347
14655TIP3   OH265379   2.239   6.091   0.208  0.3142  0.2334  0.2709
14655TIP3    H165380   2.176   6.076   0.278  1.6203 -1.0220  1.2343
14655TIP3    H265381   2.322   6.060   0.243  1.3947  1.3506 -1.1492
14656TIP3   OH265382   6.307   0.788  15.310  0.3376 -0.0753  0.2821
14656TIP3    H165383   6.229   0.739  15.282  1.7212 -1.0526 -2.2092
14656TIP3    H265384   6.320   0.762  15.401 -2.1999  0.1171  0.7927
14657TIP3   OH265385   3.825   3.866  13.970  0.0953 -0.1747  0.3307
14657TIP3    H165386   3.771   3.945  13.971  2.3437  1.5666 -2.2401
14657TIP3    H265387   3.763   3.795  13.951 -1.5711  1.3989 -0.4363
14658TIP3   OH265388   5.664   5.094  12.307 -0.4254  0.7081  0.0145
14658TIP3    H165389   5.721   5.067  12.379 -0.7034 -0.4260 -0.1723
14658TIP3    H265390   5.688   5.185  12.291  1.8784  0.0691 -0.5656
14659TIP3   OH265391   1.389   0.911  11.018  0.6340 -0.3212 -0.5689
14659TIP3    H165392   1.465   0.912  10.960  1.5235 -1.8064  0.5021
14659TIP3    H265393   1.409   0.978  11.084  1.3103 -1.0727  0.0177
14660TIP3   OH265394   3.656   2.980   1.743 -0.3157 -0.7328 -0.0249
14660TIP3    H165395   3.564   3.000   1.765  0.1012  1.0293  0.2893
14660TIP3    H265396   3.687   3.058   1.697  1.5460 -0.5107  1.4939
14661TIP3   OH265397   4.062   0.241  11.913 -0.1583 -0.0333 -0.0994
14661TIP3    H165398   4.124   0.211  11.979  0.3768 -0.5895 -0.8328
14661TIP3    H265399   4.068   0.336  11.916  1.0822 -0.0797 -0.4687
14662TIP3   OH265400   4.069   6.488   0.773 -0.0454 -0.2219 -0.2482
14662TIP3    H165401   4.141   6.435   0.738  0.5630 -0.4400  1.2812
14662TIP3    H265402   4.103   6.578   0.772 -0.4051 -0.0833 -1.1243
14663TIP3   OH265403   0.184   1.997   0.057  0.3940  0.1434  0.2731
14663TIP3    H165404   0.180   2.023  -0.035 -0.6213  1.6741  0.7030
14663TIP3    H265405   0.234   2.067   0.099 -1.7765  1.1580  1.3533
14664TIP3   OH265406   4.153   6.570   3.120 -0.1440 -0.5858  0.8784
14664TIP3    H165407   4.062   6.548   3.141  0.3984  0.0565  4.6792
14664TIP3    H265408   4.200   6.487   3.127 -0.3675 -0.9449 -1.2287
14665TIP3   OH265409   3.947   1.643   3.665 -0.7473 -0.1637 -0.4975
14665TIP3    H165410   4.013   1.709   3.643  1.8710 -2.7201 -0.8990
14665TIP3    H265411   3.942   1.644   3.760 -1.8356  1.5380 -0.5366
14666TIP3   OH265412   3.528   0.354  14.484 -0.3580  0.3420  0.7279
14666TIP3    H165413   3.587   0.404  14.542 -0.4156 -0.0029  1.0830
14666TIP3    H265414   3.490   0.421  14.427  1.7853  0.3717 -0.7690
14667TIP3   OH265415   6.483   0.662  14.797  0.4142 -0.2377  0.1523
14667TIP3    H165416   6.528   0.714  14.730  1.0358  0.5038  1.1103
14667TIP3    H265417   6.417   0.721  14.833 -0.2358 -0.7862 -0.1094
14668TIP3   OH265418   2.928   4.071   1.633  0.2343  0.7208  0.2744
14668TIP3    H165419   2.942   4.056   1.539 -3.4014  0.1430 -0.3070
14668TIP3    H265420   2.895   3.988   1.666  0.9258  1.0942  2.0080
14669TIP3   OH265421   1.738   6.287   1.561  0.4654 -0.3140 -0.1298
14669TIP3    H165422   1.710   6.376   1.582 -0.1241  0.2400 -2.8508
14669TIP3    H265423   1.724   6.238   1.641  0.4205  1.9359  1.3436
14670TIP3   OH265424   3.632   2.205   5.876 -1.1828 -0.3613 -0.1356
14670TIP3    H165425   3.697   2.181   5.809  0.4526  0.5727  1.0325
14670TIP3    H265426   3.682   2.204   5.958 -2.6572  0.4561  0.8104
14671TIP3   OH265427   6.082   0.940   2.364 -0.7950  0.1744  0.0388
14671TIP3    H165428   5.988   0.945   2.381 -0.3822  3.5748  2.4164
14671TIP3    H265429   6.102   1.018   2.313  1.0791  1.4883  2.5237
14672TIP3   OH265430   3.551   4.726  12.988  0.3494  0.1950  0.1397
14672TIP3    H165431   3.623   4.776  12.949  0.1509  0.4684  0.1201
14672TIP3    H265432   3.515   4.675  12.915  0.6365 -0.0775  0.1872
14673TIP3   OH265433   0.864   6.267  15.605 -0.2482  0.5439 -0.3304
14673TIP3    H165434   0.950   6.309  15.612 -0.6179  1.0177  2.4293
14673TIP3    H265435   0.802   6.340  15.614 -0.9245 -0.0316 -0.2950
14674TIP3   OH265436   2.570   3.178  11.929 -0.2293 -0.0932  0.1957
14674TIP3    H165437   2.536   3.258  11.887  0.6639 -0.0963 -0.5610
14674TIP3    H265438   2.556   3.193  12.022 -0.2828  0.8596  0.0492
14675TIP3   OH265439   4.749   1.897  16.118 -0.0325 -0.0103 -0.5607
14675TIP3    H165440   4.765   1.886  16.025  1.5736  3.7385 -0.8594
14675TIP3    H265441   4.704   1.981  16.126 -0.2565 -0.2809  2.0584
14676TIP3   OH265442   1.286   4.210   1.993 -0.1179  0.2220 -0.0546
14676TIP3    H165443   1.347   4.280   1.969  3.0856 -0.3960  4.8676
14676TIP3    H265444   1.324   4.131   1.953  1.8019  0.0429  1.9467
14677TIP3   OH265445   3.733   1.063   5.054 -0.8093  0.4594 -0.3298
14677TIP3    H165446   3.717   0.968   5.049 -0.0163  0.3933 -3.3108
14677TIP3    H265447   3.828   1.071   5.064 -0.9414  0.9827  0.6677
14678TIP3   OH265448   1.118   5.361   0.767 -0.7601 -0.3655  0.3791
14678TIP3    H165449   1.154   5.295   0.708 -1.6264 -0.0251 -0.5675
14678TIP3    H265450   1.194   5.398   0.812 -0.1731 -1.2687  0.1488
14679TIP3   OH265451   6.082   1.205  13.275  0.0460  0.2326  0.1675
14679TIP3    H165452   6.013   1.141  13.260  1.7030 -1.6652  0.2160
14679TIP3    H265453   6.037   1.281  13.311 -2.1465 -0.4576 -0.9566
14680TIP3   OH265454   2.383   0.110  15.552 -0.0797 -0.0181 -0.6298
14680TIP3    H165455   2.363   0.046  15.620 -1.3609  0.3433 -0.6430
14680TIP3    H265456   2.478   0.122  15.557  0.2446 -2.1530 -0.8521
14681TIP3   OH265457   4.186   2.401   3.659  0.1885 -0.1387  0.2390
14681TIP3    H165458   4.150   2.383   3.572  0.6100 -1.0174  0.2409
14681TIP3    H265459   4.120   2.457   3.700 -0.3470 -0.2870 -0.3916
14682TIP3   OH265460   0.468   2.705   5.023 -0.1311  0.4421 -0.3489
14682TIP3    H165461   0.399   2.766   5.044 -1.3671 -1.0668  0.1752
14682TIP3    H265462   0.458   2.634   5.087  1.6339 -0.0227 -0.5260
14683TIP3   OH265463   2.062   6.065   0.399  0.0524  0.8058  0.1165
14683TIP3    H165464   2.045   5.982   0.444 -0.9431  1.0251  0.1767
14683TIP3    H265465   1.989   6.074   0.338  1.3628  0.5369 -1.5367
14684TIP3   OH265466   5.671   4.304   2.745 -0.4121 -0.5793  0.3663
14684TIP3    H165467   5.608   4.233   2.735 -1.1174 -0.1776  1.6393
14684TIP3    H265468   5.691   4.331   2.656 -0.5617 -1.9878 -0.1180
14685TIP3   OH265469   3.457   1.948  11.783  0.1486  0.1825 -0.0256
14685TIP3    H165470   3.503   2.025  11.817 -0.4388  0.0398  1.1576
14685TIP3    H265471   3.526   1.894  11.745  0.5768  1.2550 -0.8389
14686TIP3   OH265472   4.217   4.355  13.837 -0.1474  0.6657  0.1338
14686TIP3    H165473   4.238   4.266  13.865 -1.1454  0.8159  1.5098
14686TIP3    H265474   4.275   4.411  13.889 -0.1592  0.8474 -0.0493
14687TIP3   OH265475   0.009   4.402  11.290  0.0942 -0.1103  0.0898
14687TIP3    H165476  -0.034   4.488  11.293 -0.9094 -0.5516 -1.0207
14687TIP3    H265477  -0.022   4.363  11.209  0.3740 -1.6119  0.6839
14688TIP3   OH265478   1.802   6.088  11.777  0.3812  0.5269  0.3695
14688TIP3    H165479   1.868   6.151  11.808 -0.4715  1.4094  0.4451
14688TIP3    H265480   1.756   6.135  11.708  1.6536 -1.0751 -1.6970
14689TIP3   OH265481   2.937   2.275   2.160  0.3598 -0.3138  0.6155
14689TIP3    H165482   2.927   2.229   2.244  0.0520 -1.9350 -0.2600
14689TIP3    H265483   3.007   2.227   2.115  0.6874  0.6844  0.0397
14690TIP3   OH265484   6.573   5.814  11.308  0.1334 -0.0389 -0.2133
14690TIP3    H165485   6.620   5.749  11.360 -2.3827 -2.9450 -1.2483
14690TIP3    H265486   6.500   5.842  11.363 -0.5172 -0.4119 -0.8710
14691TIP3   OH265487   1.463   0.831  16.727  0.4457 -0.1398 -0.2562
14691TIP3    H165488   1.476   0.889  16.651 -0.1004  0.2686 -0.0456
14691TIP3    H265489   1.517   0.869  16.796  1.3800 -0.8300 -0.5973
14692TIP3   OH265490   5.117   4.312   5.992  0.2869 -0.2406  0.7832
14692TIP3    H165491   5.154   4.392   5.955  0.2999 -0.2919  0.6858
14692TIP3    H265492   5.081   4.339   6.077 -0.6830  0.1028  0.2780
14693TIP3   OH265493   3.367   2.174  12.667 -0.7050  0.3807  0.7696
14693TIP3    H165494   3.390   2.174  12.760 -0.2069  0.4367  0.6492
14693TIP3    H265495   3.332   2.086  12.651 -2.6290  0.9892  1.4438
14694TIP3   OH265496   2.480   5.245   4.509 -0.1244 -0.2548  0.3639
14694TIP3    H165497   2.394   5.207   4.490 -0.7542  1.8841 -1.4734
14694TIP3    H265498   2.462   5.336   4.532  1.5235 -0.2965  2.0203
14695TIP3   OH265499   1.343   1.927  16.328 -0.0762  0.4168  0.7886
14695TIP3    H165500   1.256   1.932  16.288  0.7912  0.6705 -1.1872
14695TIP3    H265501   1.350   2.006  16.380 -0.6179  0.9798  0.0373
14696TIP3   OH265502   3.578   0.237  15.006 -0.0073 -0.0208  0.3024
14696TIP3    H165503   3.578   0.170  14.939 -0.1160  1.0391 -0.7930
14696TIP3    H265504   3.671   0.247  15.029  0.0652 -0.1628  0.0762
14697TIP3   OH265505   0.346   2.211   3.794  0.2539  0.5032 -0.2442
14697TIP3    H165506   0.379   2.123   3.811 -2.2525 -0.5137 -0.1369
14697TIP3    H265507   0.377   2.262   3.869  0.9975 -0.5069  0.1701
14698TIP3   OH265508   6.447   4.064   5.021  0.3942 -0.2590 -0.7818
14698TIP3    H165509   6.512   4.080   4.953 -0.6543  1.6869 -1.3933
14698TIP3    H265510   6.496   4.066   5.103  1.4295 -1.0877 -1.3668
14699TIP3   OH265511   5.970   1.311  15.109 -0.2222  0.2349 -0.1619
14699TIP3    H165512   5.992   1.387  15.055 -0.2807  0.1186 -0.3495
14699TIP3    H265513   6.018   1.325  15.190  1.3109 -0.4825 -0.9058
14700TIP3   OH265514   0.174   2.626  15.292 -0.3324 -0.1178 -0.5218
14700TIP3    H165515   0.195   2.626  15.385  1.1035 -2.8196 -0.7549
14700TIP3    H265516   0.176   2.719  15.267 -0.6473  0.6673  2.0575
14701TIP3   OH265517   3.614   3.300  16.727  0.2628 -0.2216 -0.2074
14701TIP3    H165518   3.617   3.393  16.747 -0.2790 -0.0501 -0.8880
14701TIP3    H265519   3.674   3.290  16.653 -0.8328 -0.1357 -1.1342
14702TIP3   OH265520   4.785   1.420   3.529 -0.3469 -0.2178  0.0775
14702TIP3    H165521   4.803   1.359   3.601 -0.5125 -1.2716 -0.7485
14702TIP3    H265522   4.770   1.364   3.453 -0.3969  0.8668 -0.7398
14703TIP3   OH265523   0.654   5.851  10.616  0.4648  0.0162  0.4750
14703TIP3    H165524   0.587   5.897  10.566  0.9499 -0.6282 -0.8275
14703TIP3    H265525   0.609   5.774  10.651  0.4761 -0.3547 -0.2979
14704TIP3   OH265526   2.661   6.584   4.438 -0.2947 -0.0581  0.0248
14704TIP3    H165527   2.600   6.638   4.488  0.2298 -0.1468  0.7755
14704TIP3    H265528   2.698   6.524   4.502 -1.6584 -2.0642 -0.9799
14705TIP3   OH265529   4.157   4.434  11.118  0.5145 -0.3584 -0.1511
14705TIP3    H165530   4.167   4.498  11.048  0.0489 -0.5240 -0.3754
14705TIP3    H265531   4.071   4.452  11.156  1.3914  0.7520  1.4324
14706TIP3   OH265532   1.243   5.007   5.867  0.6157 -0.9506  0.0607
14706TIP3    H165533   1.268   5.073   5.932  0.4919  0.3349 -1.1614
14706TIP3    H265534   1.327   4.976   5.832  0.6415  0.0197 -0.7707
14707TIP3   OH265535   3.513   3.116  13.273  0.1137  0.2963  0.2252
14707TIP3    H165536   3.557   3.134  13.190  0.1640  0.1402  0.2166
14707TIP3    H265537   3.575   3.143  13.340 -0.2619  1.2183  0.2139
14708TIP3   OH265538   1.644   5.407  14.411 -0.1826  0.3075  0.5348
14708TIP3    H165539   1.626   5.442  14.324 -0.6390 -0.1957  0.4197
14708TIP3    H265540   1.644   5.312  14.398  0.8007  0.2571  0.8811
14709TIP3   OH265541   4.271   2.736  14.215 -0.9495 -0.3689 -0.1833
14709TIP3    H165542   4.349   2.729  14.161 -0.6956 -0.2124  0.1611
14709TIP3    H265543   4.272   2.826  14.246  0.1830 -1.0649  1.9861
14710TIP3   OH265544   5.909   0.457   0.624  0.1995 -0.2615 -0.5895
14710TIP3    H165545   5.873   0.538   0.588  0.3873  0.3752  0.5802
14710TIP3    H265546   5.881   0.389   0.564 -2.6380  0.2283  0.0280
14711TIP3   OH265547   5.129   0.826  12.912 -0.1877  0.0919  0.2971
14711TIP3    H165548   5.204   0.816  12.971  0.9191 -2.2138 -1.3339
14711TIP3    H265549   5.054   0.803  12.966  0.4897  0.5589  1.4792
14712TIP3   OH265550   0.151   2.482  11.495  0.4960 -0.1774 -0.3345
14712TIP3    H165551   0.156   2.387  11.484 -0.0047 -0.0840 -1.6231
14712TIP3    H265552   0.062   2.505  11.466  0.5546  0.6617  0.1108
14713TIP3   OH265553   4.607   1.929  13.845 -0.0772  0.3735 -0.5517
14713TIP3    H165554   4.564   1.986  13.781  0.0582 -0.9385 -1.8699
14713TIP3    H265555   4.604   1.978  13.927 -4.6142  0.1789 -0.3763
14714TIP3   OH265556   2.137   2.787  11.675  0.2949  0.2160  0.0532
14714TIP3    H165557   2.167   2.861  11.623 -1.4982  1.2629  0.4112
14714TIP3    H265558   2.217   2.738  11.697  1.2037  0.1963 -2.8941
14715TIP3   OH265559   5.043   4.673  14.731 -0.6612 -0.0481  0.0286
14715TIP3    H165560   4.973   4.736  14.714 -1.2629 -0.6246  0.3118
14715TIP3    H265561   4.999   4.600  14.775  0.2216 -0.1605  0.7560
14716TIP3   OH265562   1.048   0.953   0.495 -0.5359 -0.4049  0.2644
14716TIP3    H165563   1.074   1.031   0.544 -0.3762 -1.0130  1.1591
14716TIP3    H265564   1.127   0.930   0.445 -0.5962  0.0211 -0.0353
14717TIP3   OH265565   3.609   5.576  11.875 -0.0141 -0.7547  0.0962
14717TIP3    H165566   3.617   5.496  11.822  2.1392  0.0484 -0.9081
14717TIP3    H265567   3.578   5.545  11.960  0.9367 -2.7097 -0.2036
14718TIP3   OH265568   2.754   3.003   5.874  0.1094 -0.4697 -0.0909
14718TIP3    H165569   2.774   3.085   5.919 -0.6167 -0.5132  0.3243
14718TIP3    H265570   2.836   2.954   5.875  0.5266  0.2135 -0.2745
14719TIP3   OH265571   6.683   2.739   2.677  0.0729 -0.0398  0.2253
14719TIP3    H165572   6.603   2.708   2.718 -0.3114  1.3304  0.5441
14719TIP3    H265573   6.711   2.666   2.621 -1.1660 -0.6790  0.4139
14720TIP3   OH265574   1.298   2.816   2.781 -0.4736 -0.7571 -0.5155
14720TIP3    H165575   1.355   2.876   2.828 -2.2238 -0.5005  1.4520
14720TIP3    H265576   1.334   2.729   2.797  0.5727 -0.4545 -1.1589
14721TIP3   OH265577   6.092   1.748   2.160  0.1447 -0.2423 -0.1125
14721TIP3    H165578   6.040   1.674   2.129 -0.6306 -0.3264  1.3084
14721TIP3    H265579   6.051   1.825   2.122 -0.3553 -0.3948  0.1175
14722TIP3   OH265580   3.770   4.494  16.363  0.1415  0.0715  0.5082
14722TIP3    H165581   3.685   4.509  16.322  0.2763  0.4368  0.3579
14722TIP3    H265582   3.829   4.473  16.291  0.0495 -0.7897  0.6748
14723TIP3   OH265583   3.105   4.319   0.149 -0.0523 -0.5294  0.2931
14723TIP3    H165584   3.173   4.358   0.094  0.2409 -0.9082  0.3846
14723TIP3    H265585   3.148   4.246   0.193 -0.3167 -0.2894  0.9550
14724TIP3   OH265586   2.925   4.481   5.366 -0.0783  0.0838  0.1277
14724TIP3    H165587   3.012   4.512   5.392  0.4228  1.3692 -2.7002
14724TIP3    H265588   2.871   4.560   5.363 -1.0520 -0.5398  0.7549
14725TIP3   OH265589   3.959   2.786   2.827  0.1434  0.3356  0.8476
14725TIP3    H165590   4.004   2.806   2.745 -1.6739 -0.1134 -0.3088
14725TIP3    H265591   4.029   2.787   2.893  1.5537  1.3344 -0.5733
14726TIP3   OH265592   3.452   3.623  16.439  0.0802  0.1364  0.1097
14726TIP3    H165593   3.416   3.655  16.356 -3.4252  1.2861  1.8444
14726TIP3    H265594   3.415   3.535  16.449 -1.4596  0.8783  1.4031
14727TIP3   OH265595   2.581   2.361  17.013 -0.1519 -0.2811 -0.6682
14727TIP3    H165596   2.675   2.382  17.011  0.5333 -2.5851  1.5673
14727TIP3    H265597   2.577   2.267  16.995 -1.6499 -0.8782  2.1663
14728TIP3   OH265598   3.640   4.265  14.332 -0.3913 -0.0029 -0.3594
14728TIP3    H165599   3.641   4.319  14.253 -1.3813  1.2784  0.4522
14728TIP3    H265600   3.725   4.280  14.372 -0.8055  1.3706  0.0771
14729TIP3   OH265601   6.397   6.093  13.585 -0.0089  0.0495  0.4363
14729TIP3    H165602   6.397   6.142  13.502  1.1952  0.8234  0.8621
14729TIP3    H265603   6.447   6.014  13.566  1.2573  0.7607  0.6896
14730TIP3   OH265604   5.205   0.257   1.971 -0.2807 -0.1019  0.0747
14730TIP3    H165605   5.178   0.234   1.883 -0.0224 -1.7499  0.3932
14730TIP3    H265606   5.276   0.195   1.992  3.0581  3.2123 -0.2917
14731TIP3   OH265607   2.357   6.157   1.788  0.0833 -0.0324 -0.4065
14731TIP3    H165608   2.451   6.167   1.803  0.0810  0.0447 -0.4415
14731TIP3    H265609   2.336   6.070   1.820 -0.0298  0.3422  0.5714
14732TIP3   OH265610   5.727   3.674  12.552  0.4430  0.0069 -0.0290
14732TIP3    H165611   5.784   3.733  12.601  1.0438  0.5060 -1.2691
14732TIP3    H265612   5.706   3.604  12.613  0.7158  0.8787  1.0923
14733TIP3   OH265613   5.564   5.984  12.446  0.1477  0.2260  0.3077
14733TIP3    H165614   5.487   5.981  12.389 -0.3369  0.4673  0.9472
14733TIP3    H265615   5.609   6.065  12.421 -0.2652  0.5255  0.5277
14734TIP3   OH265616   1.506   3.444   3.012 -0.1432 -0.4934  0.0129
14734TIP3    H165617   1.602   3.439   3.020  0.0499  0.7488 -1.1539
14734TIP3    H265618   1.484   3.368   2.957  0.1556 -0.8440  0.3675
14735TIP3   OH265619   5.399   5.227  16.917  0.1710 -0.0947 -0.7630
14735TIP3    H165620   5.322   5.228  16.974  0.0581 -1.7545 -0.8538
14735TIP3    H265621   5.406   5.137  16.887  2.1847  0.0006 -0.7217
14736TIP3   OH265622   2.091   2.466  10.403  0.2116 -0.4187 -0.7195
14736TIP3    H165623   2.171   2.477  10.352  1.5885  1.9454  1.6433
14736TIP3    H265624   2.118   2.414  10.478 -0.9371 -1.1224 -0.7795
14737TIP3   OH265625   5.948   0.714  12.130 -0.2139 -0.8869 -0.1655
14737TIP3    H165626   6.036   0.696  12.097  0.0315  0.1052 -0.0945
14737TIP3    H265627   5.948   0.808  12.148 -1.2309 -0.9082  0.0165
14738TIP3   OH265628   2.375   0.614  15.878 -0.0344  0.4803 -0.8792
14738TIP3    H165629   2.438   0.686  15.891  1.4156 -1.0123  0.8403
14738TIP3    H265630   2.430   0.536  15.869 -1.5979 -0.5244 -2.0478
14739TIP3   OH265631   4.708   5.737  11.247  0.2122  0.5137  0.2137
14739TIP3    H165632   4.706   5.786  11.329  0.4146 -0.1068  0.6002
14739TIP3    H265633   4.800   5.739  11.220  0.2458  0.2378  0.3025
14740TIP3   OH265634   4.410   5.001   2.707 -0.2306 -0.2777 -0.5238
14740TIP3    H165635   4.340   5.064   2.722 -0.4129 -0.3079 -1.2023
14740TIP3    H265636   4.427   5.006   2.613 -1.4137 -2.4442 -0.9144
14741TIP3   OH265637   2.244   3.641  13.180  0.1847 -0.1816  0.2785
14741TIP3    H165638   2.197   3.662  13.261  0.2959  1.4045 -0.0287
14741TIP3    H265639   2.286   3.724  13.155  3.0240 -1.4306  0.4443
14742TIP3   OH265640   1.540   2.096  12.505  0.2485  0.2594  0.2375
14742TIP3    H165641   1.475   2.130  12.567 -0.3973  0.1079 -0.3371
14742TIP3    H265642   1.557   2.168  12.446 -0.4726 -0.1221 -0.4611
14743TIP3   OH265643   3.871   0.255  10.742  0.0613  0.2343 -0.2150
14743TIP3    H165644   3.778   0.233  10.737  0.2222 -0.4040 -0.4638
14743TIP3    H265645   3.878   0.339  10.696 -0.4891  0.6210  0.3814
14744TIP3   OH265646   5.400   5.445  15.835  0.1808  0.8166 -0.1045
14744TIP3    H165647   5.316   5.465  15.793  0.1660 -1.8912 -1.5649
14744TIP3    H265648   5.411   5.351  15.822  2.4873  0.7377  1.8924
14745TIP3   OH265649   4.774   4.754  14.068  0.2162 -0.2973  0.6720
14745TIP3    H165650   4.702   4.798  14.022 -0.7170  0.6545  2.9164
14745TIP3    H265651   4.853   4.796  14.034 -0.3370 -0.2936 -0.7135
14746TIP3   OH265652   3.148   4.208   2.795  0.3950  0.1531  0.4357
14746TIP3    H165653   3.155   4.265   2.718  2.9036 -2.7756 -1.7259
14746TIP3    H265654   3.196   4.254   2.864 -0.1620  1.9026 -0.2952
14747TIP3   OH265655   2.317   3.226   1.571  0.0244  0.1256 -0.1251
14747TIP3    H165656   2.388   3.278   1.609  1.6722 -1.5783 -0.7036
14747TIP3    H265657   2.348   3.203   1.484 -1.3385 -0.4984 -0.4646
14748TIP3   OH265658   3.570   1.490  13.535  0.3132 -0.3429  0.1386
14748TIP3    H165659   3.665   1.486  13.523  0.0849 -0.0242 -2.3947
14748TIP3    H265660   3.547   1.405  13.573  1.5193 -0.7166  0.0934
14749TIP3   OH265661   5.459   1.808  15.141 -0.3484  0.4904 -0.1563
14749TIP3    H165662   5.528   1.743  15.129  0.8461  1.6419  0.2781
14749TIP3    H265663   5.505   1.891  15.152 -1.7456  1.0945  1.5542
14750TIP3   OH265664   4.594   2.624   4.259 -0.2018  0.2305 -0.4765
14750TIP3    H165665   4.687   2.606   4.274 -0.6658 -2.1940 -0.1179
14750TIP3    H265666   4.587   2.639   4.165  0.4641 -0.2093 -0.6038
14751TIP3   OH265667   0.805   4.902  13.248  0.3734 -0.3310 -0.0887
14751TIP3    H165668   0.787   4.902  13.154 -0.2139 -0.2454  0.0241
14751TIP3    H265669   0.792   4.993  13.275 -2.4415 -0.8681  0.6340
14752TIP3   OH265670   2.262   4.432   0.043 -0.3303  0.5867  0.7158
14752TIP3    H165671   2.347   4.389   0.032 -0.5778 -0.3442  2.1516
14752TIP3    H265672   2.207   4.393  -0.025  0.6988  2.1862 -1.1275
14753TIP3   OH265673   3.361   6.489   0.401 -0.1635 -0.9063 -0.1332
14753TIP3    H165674   3.355   6.498   0.305 -0.2903  0.3413 -0.0258
14753TIP3    H265675   3.452   6.465   0.418 -0.1020 -0.9793 -0.5576
14754TIP3   OH265676   6.691   6.067   1.631  0.8756  0.3253  0.1311
14754TIP3    H165677   6.625   6.079   1.699  1.5506  0.2360  0.8107
14754TIP3    H265678   6.672   5.981   1.594  1.6673 -0.5058  1.5405
14755TIP3   OH265679   0.222   3.687  15.945  0.1445  0.1047 -0.5896
14755TIP3    H165680   0.243   3.710  16.036  0.6640 -0.0454 -0.6687
14755TIP3    H265681   0.174   3.763  15.912  0.4263  0.3896 -0.3518
14756TIP3   OH265682   5.968   1.513  16.111 -0.0234 -0.6381  0.1531
14756TIP3    H165683   6.030   1.585  16.102  0.4393 -1.0914 -0.3673
14756TIP3    H265684   6.005   1.443  16.057 -0.9126 -0.9672 -0.0401
14757TIP3   OH265685   2.714   3.175  13.152  0.1814 -0.2041 -0.6548
14757TIP3    H165686   2.767   3.208  13.224  0.8355 -0.8154 -0.8444
14757TIP3    H265687   2.653   3.246  13.133 -1.4813 -0.7826  1.9409
14758TIP3   OH265688   0.960   1.398   2.240  0.0378 -0.3388  0.1170
14758TIP3    H165689   1.037   1.356   2.202  0.8068 -1.0508  2.3587
14758TIP3    H265690   0.995   1.475   2.285 -0.7332 -0.0327  0.2062
14759TIP3   OH265691   5.840   2.555   1.776  0.0105  0.0087 -0.4098
14759TIP3    H165692   5.858   2.467   1.808  2.0783  1.0570  1.5919
14759TIP3    H265693   5.745   2.559   1.770 -0.1481 -2.2558 -0.3462
14760TIP3   OH265694   4.477   3.833  16.716 -0.3123  0.1042  0.4140
14760TIP3    H165695   4.492   3.773  16.644 -0.0511  0.3814  0.2329
14760TIP3    H265696   4.560   3.834  16.765 -0.1664  0.6379  0.1658
14761TIP3   OH265697   5.153   2.042   1.829  0.1356  0.3587  0.0415
14761TIP3    H165698   5.115   1.960   1.859  2.2286 -1.4582 -1.8867
14761TIP3    H265699   5.134   2.043   1.735  2.2780  0.8014 -0.4227
14762TIP3   OH265700   0.801   4.720   4.500 -0.3096 -0.2373  0.5301
14762TIP3    H165701   0.804   4.676   4.415 -0.4782 -0.3076  0.5601
14762TIP3    H265702   0.870   4.678   4.551  0.8966  0.9252 -0.1051
14763TIP3   OH265703   5.090   4.422  14.529  0.1979 -0.8123  0.2168
14763TIP3    H165704   5.025   4.430  14.600  2.7140  1.4627  2.5265
14763TIP3    H265705   5.038   4.398  14.452 -3.3379  0.4331  1.9512
14764TIP3   OH265706   5.245   0.252   3.231  0.1141 -0.1985 -0.2395
14764TIP3    H165707   5.312   0.319   3.244 -0.9335  0.9205 -0.4619
14764TIP3    H265708   5.172   0.281   3.286  0.1108 -1.8782  0.7161
14765TIP3   OH265709   4.497   2.926   3.799  0.7940  0.5279 -0.3212
14765TIP3    H165710   4.503   2.912   3.894 -0.5073  2.0760  0.0271
14765TIP3    H265711   4.587   2.936   3.771  1.3562 -1.7032  0.4259
14766TIP3   OH265712   1.847   3.876  13.815  0.5375 -0.5795  0.1869
14766TIP3    H165713   1.898   3.914  13.887  2.3548 -0.5697 -1.0517
14766TIP3    H265714   1.771   3.836  13.859 -1.1504  3.6259  1.7119
14767TIP3   OH265715   0.322   4.155  16.167 -0.3869 -0.6033  0.6367
14767TIP3    H165716   0.353   4.086  16.226  0.0639 -0.9658 -0.0078
14767TIP3    H265717   0.382   4.228  16.184  0.1723 -0.9391  0.1560
14768TIP3   OH265718   2.918   5.262  16.890 -0.2235  0.3405  0.1921
14768TIP3    H165719   2.945   5.173  16.910 -1.7045 -0.2133 -0.1886
14768TIP3    H265720   2.944   5.276  16.799  2.2471  1.2118  0.9489
14769TIP3   OH265721   4.851   0.503   3.165  0.0467  0.2211 -0.5212
14769TIP3    H165722   4.826   0.508   3.072  0.2478  0.9728 -0.5433
14769TIP3    H265723   4.821   0.586   3.202 -0.0272 -0.0753  0.0867
14770TIP3   OH265724   4.290   0.460  15.107 -0.3486 -0.0859  0.0692
14770TIP3    H165725   4.206   0.459  15.062 -0.5108  1.0555  0.3168
14770TIP3    H265726   4.277   0.521  15.180  0.3646 -0.7390  0.7723
14771TIP3   OH265727   0.356   3.133  15.336 -0.6855  0.2988  0.5709
14771TIP3    H165728   0.355   3.186  15.257 -1.1535 -0.8244 -0.1921
14771TIP3    H265729   0.403   3.053  15.312 -1.0746 -0.1796  1.3407
14772TIP3   OH265730   6.560   0.799   1.214  0.2251  0.0453  0.0588
14772TIP3    H165731   6.545   0.820   1.306 -1.5079  1.6269 -0.5182
14772TIP3    H265732   6.563   0.884   1.170  1.3345 -0.6610 -1.3187
14773TIP3   OH265733   5.660   4.650   6.663 -0.0827 -0.2823  0.7524
14773TIP3    H165734   5.637   4.740   6.686 -1.2318 -0.8252  1.8425
14773TIP3    H265735   5.753   4.643   6.683 -0.0187  0.6164  0.8017
14774TIP3   OH265736   2.919   5.293  11.683 -0.9219 -0.6340  0.2517
14774TIP3    H165737   2.924   5.384  11.711 -0.0787 -0.5524 -0.1199
14774TIP3    H265738   2.907   5.297  11.588  1.7208 -0.8497 -0.1845
14775TIP3   OH265739   0.856   1.914  15.716  0.1400 -0.0866 -0.3126
14775TIP3    H165740   0.832   1.964  15.638  1.1056 -0.4803 -0.8775
14775TIP3    H265741   0.938   1.953  15.745  0.9544 -1.3597 -0.8096
14776TIP3   OH265742   4.109   4.596   5.816 -0.0822  0.2005 -0.1155
14776TIP3    H165743   4.139   4.658   5.749 -0.0124  1.4186  1.0207
14776TIP3    H265744   4.067   4.650   5.882 -0.7580 -1.0594  0.5165
14777TIP3   OH265745   5.364   6.449   1.490 -0.0093 -0.6309  0.4333
14777TIP3    H165746   5.306   6.434   1.415 -0.2938  0.1312  0.4923
14777TIP3    H265747   5.452   6.429   1.458 -0.1259 -0.2604 -0.1178
14778TIP3   OH265748   2.179   4.118   0.713 -0.0704 -0.8436 -0.3480
14778TIP3    H165749   2.190   4.054   0.783  0.4702 -1.1245 -0.6810
14778TIP3    H265750   2.255   4.104   0.656  1.4234  1.7643  0.8653
14779TIP3   OH265751   6.741   1.016   2.338  0.2520 -0.1987  0.4747
14779TIP3    H165752   6.741   1.103   2.299 -0.0935  0.5294  2.0216
14779TIP3    H265753   6.806   1.021   2.409  0.1468 -1.1593  0.6543
14780TIP3   OH265754   3.604   5.330   5.881 -0.3514 -0.1468  0.2173
14780TIP3    H165755   3.648   5.374   5.954  0.3953 -0.1972 -0.1833
14780TIP3    H265756   3.606   5.237   5.904  0.2203 -0.2010 -0.0295
14781TIP3   OH265757   1.700   6.124   6.331 -0.2376  0.7574 -0.3968
14781TIP3    H165758   1.755   6.049   6.308 -0.2301  1.1754 -1.8301
14781TIP3    H265759   1.610   6.093   6.319 -0.2925  0.4347  0.7901
14782TIP3   OH265760   0.742   0.757   3.336  0.2398 -0.2590  0.2985
14782TIP3    H165761   0.809   0.821   3.313 -0.3413  0.4795  0.5796
14782TIP3    H265762   0.675   0.768   3.268  0.2075 -0.6753  0.2631
14783TIP3   OH265763   4.713   3.483  13.109 -0.1082  0.3391  0.0663
14783TIP3    H165764   4.678   3.535  13.182  0.0575 -1.4960  1.5403
14783TIP3    H265765   4.803   3.465  13.134  0.3877  0.8340 -1.2927
14784TIP3   OH265766   0.170   0.253   1.406  0.0021 -0.2840  0.2726
14784TIP3    H165767   0.215   0.171   1.428  1.2121 -0.1190 -1.4009
14784TIP3    H265768   0.226   0.294   1.340 -0.5362  1.9412  1.1141
14785TIP3   OH265769   3.146   4.165  16.878  0.3100 -0.1308 -0.6253
14785TIP3    H165770   3.190   4.080  16.873  1.4950  0.3127  1.2712
14785TIP3    H265771   3.092   4.160  16.957 -0.2544  0.5897 -0.9501
14786TIP3   OH265772   5.508   2.287  15.933 -0.0045 -0.1823 -0.7191
14786TIP3    H165773   5.548   2.224  15.992 -2.2931 -0.0595  1.1110
14786TIP3    H265774   5.415   2.287  15.958 -0.2822  3.0954 -1.3835
14787TIP3   OH265775   6.595   3.107  13.770 -0.3857 -0.2707  0.1306
14787TIP3    H165776   6.539   3.032  13.752 -1.2505  0.5196 -0.5623
14787TIP3    H265777   6.547   3.158  13.836 -0.1147  0.0031  0.1195
14788TIP3   OH265778   4.562   6.391   3.380  0.8630 -0.5679 -0.1862
14788TIP3    H165779   4.646   6.355   3.408  0.6696 -0.6734  0.2634
14788TIP3    H265780   4.575   6.411   3.287  1.6840  0.3051  0.1058
14789TIP3   OH265781   3.896   3.265   6.234 -0.7077  0.5521  0.4668
14789TIP3    H165782   3.926   3.338   6.289  1.0404  0.7043 -0.6047
14789TIP3    H265783   3.801   3.263   6.247 -0.6502  2.2053  1.5054
14790TIP3   OH265784   1.079   0.049  15.301  0.0175  0.4347 -0.0679
14790TIP3    H165785   1.128   0.069  15.221  1.3412 -0.6464  0.4366
14790TIP3    H265786   1.062  -0.045  15.296  1.5585 -0.0002  1.6435
14791TIP3   OH265787   1.808   3.489  14.200 -0.5313 -0.2959  0.2217
14791TIP3    H165788   1.725   3.482  14.247 -1.2484  2.2773 -0.4827
14791TIP3    H265789   1.782   3.493  14.107  0.5594 -1.5757 -0.1603
14792TIP3   OH265790   3.061   1.217  16.067  0.2883  0.0990 -0.1715
14792TIP3    H165791   3.105   1.262  16.139  0.4767 -1.0539  0.4578
14792TIP3    H265792   3.001   1.156  16.110 -1.0493  0.7856 -1.0184
14793TIP3   OH265793   6.255   0.487   4.550  0.0210 -0.0749 -0.6000
14793TIP3    H165794   6.245   0.392   4.557 -1.5461  0.1000  0.1332
14793TIP3    H265795   6.256   0.504   4.455 -2.9003 -0.6242 -0.8477
14794TIP3   OH265796   6.455   1.410  16.672 -0.1346  0.1339  0.3016
14794TIP3    H165797   6.409   1.348  16.616 -0.1724  0.5913 -0.1847
14794TIP3    H265798   6.385   1.460  16.714 -0.0957  0.4202  0.0314
14795TIP3   OH265799   2.751   1.541   1.345 -0.1331  0.4532 -0.3163
14795TIP3    H165800   2.749   1.453   1.308  1.5176  1.5745 -3.5243
14795TIP3    H265801   2.665   1.578   1.324 -0.2527  0.1164 -0.4280
14796TIP3   OH265802   2.693   1.847  13.611 -0.4362 -0.0798  0.2264
14796TIP3    H165803   2.681   1.801  13.528 -0.1425 -0.4361  0.3773
14796TIP3    H265804   2.643   1.929  13.601  1.1463  0.7918 -1.0230
14797TIP3   OH265805   1.067   0.208  15.031  0.2599  0.2686  0.7245
14797TIP3    H165806   0.997   0.148  15.054 -0.4143  0.6129 -0.3500
14797TIP3    H265807   1.034   0.255  14.954  1.7946  0.2056 -0.0180
14798TIP3   OH265808   0.535   2.214  15.671 -0.2503 -0.1143  0.1112
14798TIP3    H165809   0.455   2.191  15.624  0.5371 -0.8882 -0.8966
14798TIP3    H265810   0.590   2.258  15.606  0.0554  0.6520  0.8607
14799TIP3   OH265811   6.121   5.481  11.795 -0.4582  1.1083 -0.1626
14799TIP3    H165812   6.054   5.424  11.834  0.5819  0.1446  0.2660
14799TIP3    H265813   6.072   5.558  11.766 -1.8218  0.2822 -0.1943
14800TIP3   OH265814   1.811   0.727   4.332  0.1930 -0.6526  0.2863
14800TIP3    H165815   1.746   0.673   4.377 -1.1113  2.2381  2.2263
14800TIP3    H265816   1.883   0.735   4.394  0.6713 -0.7088 -0.2541
14801TIP3   OH265817   0.192   0.127  12.370  0.6547  0.0739 -0.4321
14801TIP3    H165818   0.140   0.116  12.449  0.5115  1.3841 -0.3166
14801TIP3    H265819   0.277   0.088  12.390  1.3790  2.2904  1.1941
14802TIP3   OH265820   0.802   3.520  16.261 -0.1340  0.6413 -0.1864
14802TIP3    H165821   0.775   3.429  16.275 -1.3649  1.1087  0.7144
14802TIP3    H265822   0.759   3.545  16.179 -0.8717  0.7752  0.2248
14803TIP3   OH265823   0.027   2.513   2.566 -0.7641  0.7735  0.8791
14803TIP3    H165824   0.117   2.533   2.592 -0.8553  1.3154  0.7834
14803TIP3    H265825   0.011   2.426   2.602 -0.2845  0.7746  1.1060
14804TIP3   OH265826   4.057   5.668   4.766  0.3576  0.0560 -0.3575
14804TIP3    H165827   4.144   5.646   4.798 -0.4149  0.1910  2.0021
14804TIP3    H265828   4.012   5.708   4.841 -1.2281  1.4865 -1.9468
14805TIP3   OH265829   1.282   2.405  15.951  0.4250 -0.1993  0.3847
14805TIP3    H165830   1.345   2.357  16.003  0.7429  0.2570  0.4298
14805TIP3    H265831   1.330   2.481  15.919 -0.0288  0.0206  0.2082
14806TIP3   OH265832   6.374   3.923   5.519 -0.3867  0.2559 -0.4512
14806TIP3    H165833   6.413   3.921   5.606 -0.7678  3.5055 -0.0824
14806TIP3    H265834   6.431   3.866   5.466  0.5412 -0.8475  1.5999
14807TIP3   OH265835   0.010   0.752  13.728  0.5849  0.1433  0.0429
14807TIP3    H165836   0.010   0.656  13.731 -1.0360  0.1430  0.9180
14807TIP3    H265837   0.017   0.779  13.819 -1.2311  0.8042  0.0246
14808TIP3   OH265838   0.040   3.753   1.427  0.0688  0.4395  0.2868
14808TIP3    H165839   0.065   3.814   1.496  0.2975  0.6538  0.0181
14808TIP3    H265840  -0.002   3.680   1.473 -1.7259  1.5477  0.4925
14809TIP3   OH265841   6.640   2.338   0.082 -0.4081 -0.6654 -0.1749
14809TIP3    H165842   6.550   2.339   0.115 -0.4649 -2.6358 -0.1567
14809TIP3    H265843   6.630   2.341  -0.014 -0.5185 -1.4009 -0.1871
14810TIP3   OH265844   0.521   4.463   6.197  0.6522  0.2591 -0.4428
14810TIP3    H165845   0.528   4.532   6.263  1.6234  0.9297 -1.2134
14810TIP3    H265846   0.504   4.383   6.247 -0.4869  1.0358  0.4680
14811TIP3   OH265847   6.327   2.794  12.817 -1.1208 -0.0311  0.1401
14811TIP3    H165848   6.419   2.769  12.831 -0.8147  0.8941 -0.1341
14811TIP3    H265849   6.294   2.813  12.904 -1.1704 -0.7394  0.2831
14812TIP3   OH265850   1.256   5.302  13.369  0.0899  0.3614  0.4015
14812TIP3    H165851   1.239   5.390  13.333  0.6637  0.7515  1.0545
14812TIP3    H265852   1.217   5.304  13.456 -1.2788 -0.5743 -0.1628
14813TIP3   OH265853   3.463   2.491  16.221  0.1404 -0.4185  0.2693
14813TIP3    H165854   3.530   2.482  16.289  0.2893 -0.4205  0.1237
14813TIP3    H265855   3.507   2.539  16.151  0.3113 -1.3294 -0.2622
14814TIP3   OH265856   3.924   5.322   2.702 -0.2969 -0.5815  0.1309
14814TIP3    H165857   3.878   5.369   2.633  0.2163 -1.4679 -0.8422
14814TIP3    H265858   3.992   5.384   2.731  1.8626 -1.4046 -2.7037
14815TIP3   OH265859   1.655   1.744  11.266  0.1798 -0.7993  0.6006
14815TIP3    H165860   1.562   1.768  11.264  0.6834  1.5555 -2.3828
14815TIP3    H265861   1.672   1.707  11.180  2.4292  1.0368  0.1416
14816TIP3   OH265862   0.180   0.977   4.322  0.5669 -0.6433  0.3357
14816TIP3    H165863   0.263   0.964   4.277  0.6031  0.5165  0.0326
14816TIP3    H265864   0.184   0.918   4.398  2.2024  0.3100  1.0363
14817TIP3   OH265865   2.659   6.518  13.590  0.4666 -0.1001 -0.5725
14817TIP3    H165866   2.596   6.455  13.556  2.1285 -0.9696 -2.2136
14817TIP3    H265867   2.744   6.475  13.581  1.7194  2.4623 -2.1553
14818TIP3   OH265868   1.159   4.854   6.090 -0.3494 -0.1314  0.1350
14818TIP3    H165869   1.251   4.832   6.075 -0.4515 -0.4782  0.0132
14818TIP3    H265870   1.135   4.909   6.015 -0.5182 -0.8644 -0.3653
14819TIP3   OH265871   2.689   6.034  16.392  0.2644 -0.0420  0.1284
14819TIP3    H165872   2.728   5.993  16.469  2.0519  4.1629  1.7537
14819TIP3    H265873   2.737   5.996  16.318  2.7151 -0.0376  1.5838
14820TIP3   OH265874   2.456   5.889   3.174  0.2474 -0.3971 -0.5614
14820TIP3    H165875   2.445   5.974   3.132  1.3338  0.1715  0.2278
14820TIP3    H265876   2.461   5.910   3.268 -0.4403 -1.4414 -0.2813
14821TIP3   OH265877   4.373   0.006   4.799  0.3839  0.2497  0.1955
14821TIP3    H165878   4.369   0.022   4.704 -1.0714 -0.6105  0.0711
14821TIP3    H265879   4.466   0.002   4.819  0.7284  0.0482 -1.2858
14822TIP3   OH265880   6.755   4.709  13.324 -0.0142  0.1920  0.0038
14822TIP3    H165881   6.730   4.801  13.322 -0.7274  0.0143  0.6053
14822TIP3    H265882   6.679   4.664  13.358  1.6511 -0.1895  3.6540
14823TIP3   OH265883   4.213   2.273  14.525  0.6934 -0.3091  0.4386
14823TIP3    H165884   4.273   2.340  14.558 -1.4428  0.7706  2.3973
14823TIP3    H265885   4.222   2.201  14.587  4.3493 -2.9190 -2.6286
14824TIP3   OH265886   1.394   4.983  17.134 -0.1842  0.1485 -0.5149
14824TIP3    H165887   1.484   4.952  17.131 -0.3369 -0.2674 -1.4697
14824TIP3    H265888   1.372   4.986  17.227  1.1378  1.2522 -0.2118
14825TIP3   OH265889   5.937   4.653   6.688 -0.2617  0.6998 -0.6137
14825TIP3    H165890   5.996   4.609   6.749  2.1282 -1.7261 -4.3318
14825TIP3    H265891   5.993   4.684   6.618 -3.1990 -1.0762 -4.0682
14826TIP3   OH265892   3.488   1.628  15.773 -0.1774  0.7833  0.3658
14826TIP3    H165893   3.407   1.593  15.733  0.9654 -0.2317 -1.1893
14826TIP3    H265894   3.510   1.704  15.720 -0.2641  1.2393  0.9770
14827TIP3   OH265895   4.939   0.456  11.510  0.5838  0.7092 -0.2199
14827TIP3    H165896   4.844   0.459  11.517  0.6758  0.4416  1.4602
14827TIP3    H265897   4.965   0.383  11.566  1.7881  0.8917 -0.5153
14828TIP3   OH265898   2.045   2.783  16.384 -0.6328 -0.2119 -0.1338
14828TIP3    H165899   2.130   2.762  16.423  0.2953  1.8734 -0.8402
14828TIP3    H265900   2.040   2.729  16.306 -0.1851 -0.7269  0.1881
14829TIP3   OH265901   3.710   2.784   6.243  0.0588  0.3020  0.6384
14829TIP3    H165902   3.666   2.772   6.159  1.0198 -0.1129  0.1838
14829TIP3    H265903   3.654   2.739   6.306  0.2545 -0.9474 -0.0547
14830TIP3   OH265904   2.853   5.476   2.171 -0.0962 -0.0891  0.0960
14830TIP3    H165905   2.938   5.489   2.214 -0.3396  1.4984  0.1519
14830TIP3    H265906   2.860   5.524   2.089 -1.1690  0.6624  0.4260
14831TIP3   OH265907   4.943   1.741  12.758 -0.2554 -0.1503  0.1661
14831TIP3    H165908   4.988   1.656  12.754  1.0331  0.5286 -0.3839
14831TIP3    H265909   4.854   1.719  12.786  0.2588 -1.6014  0.8079
14832TIP3   OH265910   3.725   6.610  13.445 -0.6187  0.0613  0.2244
14832TIP3    H165911   3.746   6.635  13.355  0.1631  0.7909  0.5904
14832TIP3    H265912   3.774   6.672  13.499 -1.6322  0.0853  1.1538
14833TIP3   OH265913   3.430   2.687   5.605  0.1633  0.7278  0.0757
14833TIP3    H165914   3.359   2.700   5.668 -0.7640 -1.0424 -0.5345
14833TIP3    H265915   3.387   2.653   5.527  1.8040 -2.2110  0.2978
14834TIP3   OH265916   0.095   4.279  12.692  0.0290 -0.3440  0.4527
14834TIP3    H165917   0.103   4.363  12.648 -1.2958  0.1017  1.0056
14834TIP3    H265918   0.027   4.293  12.759  1.7614 -1.0699  2.4757
14835TIP3   OH265919   4.328   4.696  11.206 -0.3502  0.0829 -0.7068
14835TIP3    H165920   4.289   4.663  11.125  0.3530 -0.5596 -0.8012
14835TIP3    H265921   4.254   4.727  11.258 -0.7129  1.7859 -2.1340
14836TIP3   OH265922   1.495   5.112  15.314 -0.4491 -0.4383  0.0725
14836TIP3    H165923   1.584   5.077  15.311  0.7939  2.1345  2.5178
14836TIP3    H265924   1.477   5.139  15.224  2.0895  0.7829 -0.1449
14837TIP3   OH265925   4.902   0.438  12.513  0.0224  0.4526 -0.3204
14837TIP3    H165926   4.887   0.454  12.606  1.2612  2.0528 -0.3574
14837TIP3    H265927   4.970   0.371  12.510  1.1204  1.5248 -0.0260
14838TIP3   OH265928   4.199   2.086   1.197  0.5182 -0.7243  0.1739
14838TIP3    H165929   4.227   2.143   1.126 -3.9147  1.8095  0.0640
14838TIP3    H265930   4.163   2.008   1.153  2.6100 -1.6884  0.0744
14839TIP3   OH265931   0.224   2.288   6.130 -0.1639 -0.3482 -0.0256
14839TIP3    H165932   0.239   2.203   6.171  0.2067  0.1033  0.8212
14839TIP3    H265933   0.130   2.294   6.118 -0.1076 -1.2952 -1.0399
14840TIP3   OH265934   4.046   2.186   2.061  0.4054  0.0125  0.2867
14840TIP3    H165935   4.123   2.185   2.004 -0.9477  0.3675 -1.6382
14840TIP3    H265936   4.060   2.260   2.119  0.2238  1.9816 -2.0016
14841TIP3   OH265937   0.145   6.695  11.309  0.5497  0.7131  0.5616
14841TIP3    H165938   0.240   6.686  11.303  0.4092 -1.4638  0.6526
14841TIP3    H265939   0.111   6.638  11.241 -0.6906 -0.7576  2.3091
14842TIP3   OH265940   6.245   0.437  11.651  0.2189 -0.4002  0.3378
14842TIP3    H165941   6.219   0.353  11.613  2.9323 -1.7570  1.2009
14842TIP3    H265942   6.221   0.502  11.584 -2.3906 -1.7405 -0.1456
14843TIP3   OH265943   3.674   1.890  15.847  0.2323 -0.0849  0.3330
14843TIP3    H165944   3.682   1.801  15.880  0.0717  0.1196  0.9336
14843TIP3    H265945   3.731   1.892  15.770 -1.8934 -1.5104 -1.3842
14844TIP3   OH265946   4.605   2.150  16.497 -0.3014  0.6753  0.1719
14844TIP3    H165947   4.562   2.090  16.558  0.8841  1.0508  1.4265
14844TIP3    H265948   4.629   2.095  16.423 -1.5267  0.1495  0.1320
14845TIP3   OH265949   3.745   5.075  12.469  0.2275  0.1148  0.1550
14845TIP3    H165950   3.828   5.101  12.510 -0.6817  2.7368  0.5219
14845TIP3    H265951   3.768   5.055  12.378  1.1548  1.8748 -0.0434
14846TIP3   OH265952   3.699   3.357   4.953  0.4197 -0.1144 -0.2967
14846TIP3    H165953   3.608   3.366   4.982  0.2051 -0.8745 -0.7078
14846TIP3    H265954   3.727   3.447   4.933  0.3296  0.3464  1.4554
14847TIP3   OH265955   3.108   3.225  11.888  0.4066  0.4029 -0.3296
14847TIP3    H165956   3.151   3.310  11.884  1.6918 -0.2220 -0.0390
14847TIP3    H265957   3.178   3.162  11.903 -0.5547 -0.6909 -0.2384
14848TIP3   OH265958   2.173   4.513   4.986 -0.2995 -0.7604  0.4057
14848TIP3    H165959   2.108   4.451   5.018 -1.4399 -0.6463 -1.5397
14848TIP3    H265960   2.133   4.553   4.908  2.1104 -0.7231 -0.9217
14849TIP3   OH265961   0.226   2.173   1.861 -0.0488 -0.8172 -0.1788
14849TIP3    H165962   0.152   2.229   1.841 -0.6327 -1.2567  0.6935
14849TIP3    H265963   0.273   2.220   1.930  0.2876 -0.7109 -0.4776
14850TIP3   OH265964   5.667   0.157  16.423  0.1138 -0.0410 -1.1701
14850TIP3    H165965   5.703   0.179  16.509 -2.1267  0.0417 -0.1731
14850TIP3    H265966   5.741   0.165  16.363  1.1719  2.6917  0.2952
14851TIP3   OH265967   1.484   2.266   5.453  0.0183  0.4241  0.0792
14851TIP3    H165968   1.413   2.247   5.514 -1.2332  0.1303 -1.4057
14851TIP3    H265969   1.556   2.210   5.480 -1.2158 -1.2211  0.0670
14852TIP3   OH265970   2.974   3.372   1.682  0.3200  0.4569  0.2918
14852TIP3    H165971   2.954   3.375   1.775  0.8667 -1.0667  0.4829
14852TIP3    H265972   2.906   3.315   1.645  1.3905 -0.7716  0.1488
14853TIP3   OH265973   5.119   1.961   3.966 -0.0720  0.3943  0.6514
14853TIP3    H165974   5.031   1.967   4.004  0.0228 -0.2783  0.9883
14853TIP3    H265975   5.140   1.868   3.969 -1.0319 -0.1321 -3.2541
14854TIP3   OH265976   5.169   1.383   5.697 -0.3988  0.7275  0.3863
14854TIP3    H165977   5.108   1.323   5.655 -0.0039 -0.1104  0.9921
14854TIP3    H265978   5.202   1.335   5.773  2.7765  0.2420 -1.1466
14855TIP3   OH265979   0.460   2.385   5.681 -0.0680 -0.3377  0.2319
14855TIP3    H165980   0.367   2.367   5.669 -0.5992  0.3344  2.8389
14855TIP3    H265981   0.501   2.299   5.689 -0.6718 -0.6052  0.4599
14856TIP3   OH265982   1.535   0.666  12.019  0.5360  0.7753  0.2679
14856TIP3    H165983   1.462   0.704  12.068  0.2725  0.8893 -0.2035
14856TIP3    H265984   1.525   0.572  12.030 -0.1870  0.7551 -0.4934
14857TIP3   OH265985   2.986   2.114  13.989  0.4376 -0.2444  0.3292
14857TIP3    H165986   3.036   2.169  13.928 -0.0836  0.3929  0.4589
14857TIP3    H265987   3.052   2.074  14.045  0.7799  1.1351  0.9584
14858TIP3   OH265988   3.723   5.525   3.035  0.0807 -0.2163 -0.2693
14858TIP3    H165989   3.792   5.469   3.001  0.2855 -0.5763  0.7023
14858TIP3    H265990   3.765   5.609   3.051 -0.2751  0.3119 -1.9276
14859TIP3   OH265991   5.620   0.768   1.662  0.4567 -0.5834 -0.3698
14859TIP3    H165992   5.555   0.702   1.637  0.8587 -1.1181 -0.0172
14859TIP3    H265993   5.635   0.753   1.755  1.5539 -0.8840 -0.5812
14860TIP3   OH265994   5.982   1.580  12.539 -0.1185 -0.3224  0.4199
14860TIP3    H165995   5.941   1.665  12.529 -0.6900 -0.4245  1.6720
14860TIP3    H265996   6.076   1.596  12.528 -0.3719  0.1064 -1.3287
14861TIP3   OH265997   0.758   5.911  14.648 -0.6320 -0.2332  0.4834
14861TIP3    H165998   0.730   5.972  14.579 -0.8212  1.2029  1.7896
14861TIP3    H265999   0.848   5.887  14.624 -1.2270 -1.0181 -1.0953
14862TIP3   OH266000   0.916   5.390   2.400 -0.5747  0.1261  0.5338
14862TIP3    H166001   0.873   5.454   2.456 -0.2510  0.1618  0.7437
14862TIP3    H266002   0.997   5.368   2.446  0.2764  1.0248 -0.4469
14863TIP3   OH266003   5.657   4.041  12.027  0.6146 -0.1293 -0.2737
14863TIP3    H166004   5.746   4.040  11.992  0.6559  1.5788 -0.3422
14863TIP3    H266005   5.661   4.104  12.099 -0.6074  0.2502 -0.5106
14864TIP3   OH266006   4.016   4.006  14.320  0.0669  0.2082 -1.0141
14864TIP3    H166007   4.058   4.037  14.400 -2.3635  0.1768  0.3883
14864TIP3    H266008   3.945   3.949  14.351 -0.3148 -0.6399 -3.2463
14865TIP3   OH266009   5.961   6.082   1.113 -0.2399  0.2991  0.2663
14865TIP3    H166010   5.956   6.165   1.065 -1.2778  0.0305 -0.1199
14865TIP3    H266011   5.898   6.091   1.184  0.8787  0.4720  1.2842
14866TIP3   OH266012   1.156   2.631   1.919  0.2150 -0.3183 -0.2377
14866TIP3    H166013   1.249   2.644   1.901  0.0806 -0.1056 -0.7962
14866TIP3    H266014   1.154   2.578   1.999  0.8267 -1.1648 -0.7705
14867TIP3   OH266015   0.074   1.774   1.022  0.1262  0.4160 -0.2539
14867TIP3    H166016   0.106   1.848   0.971  0.8729  0.8504  0.7950
14867TIP3    H266017   0.153   1.736   1.060 -0.2213 -1.1126 -1.0154
14868TIP3   OH266018   6.166   5.340   0.224 -0.3651  0.7096  0.4276
14868TIP3    H166019   6.157   5.377   0.136  1.3944 -0.5098 -0.3203
14868TIP3    H266020   6.083   5.295   0.239 -1.1260  1.8842 -0.1287
14869TIP3   OH266021   5.406   1.843   0.772 -0.1099  0.1264 -1.1083
14869TIP3    H166022   5.486   1.806   0.735 -0.5763  0.1980 -2.2067
14869TIP3    H266023   5.413   1.937   0.757  0.5511  0.4131  0.6837
14870TIP3   OH266024   3.917   3.356   6.811  0.4507 -0.4288  0.1786
14870TIP3    H166025   3.888   3.414   6.740  0.8406 -1.3167 -0.7196
14870TIP3    H266026   3.890   3.402   6.891  0.9401  1.0956 -0.4952
14871TIP3   OH266027   6.062   4.526   1.673  0.1742  0.1927  0.2471
14871TIP3    H166028   6.011   4.532   1.754 -0.2346 -0.0714  0.0178
14871TIP3    H266029   6.095   4.614   1.658  0.5030  0.1796  0.8571
14872TIP3   OH266030   3.444   3.026  14.044 -0.1180 -0.2119 -0.4473
14872TIP3    H166031   3.525   3.075  14.056  0.1183 -0.5219 -0.7628
14872TIP3    H266032   3.421   3.040  13.952  0.3655 -1.3082 -0.7529
14873TIP3   OH266033   0.360   5.946  12.427 -0.1819  0.0874  0.2282
14873TIP3    H166034   0.315   5.897  12.496  1.6514 -1.1649  0.6325
14873TIP3    H266035   0.367   6.035  12.460 -1.7670  0.1662  0.4044
14874TIP3   OH266036   2.019   6.162  11.402  0.2868  0.0194  0.3463
14874TIP3    H166037   2.097   6.216  11.409 -0.1469  0.5270  1.5238
14874TIP3    H266038   2.022   6.104  11.479  1.4276 -2.6204 -1.5488
14875TIP3   OH266039   0.077   0.098  12.631 -0.1880 -0.6663  0.6990
14875TIP3    H166040   0.114   0.113  12.718  0.9887 -0.0640  0.1131
14875TIP3    H266041  -0.017   0.091  12.646  0.0141 -0.7499  2.0426
14876TIP3   OH266042   1.061   0.653   4.598 -0.7869  0.3154  0.4623
14876TIP3    H166043   1.116   0.719   4.556  0.1622 -0.8576 -0.2187
14876TIP3    H266044   1.068   0.672   4.692  0.0202  0.7708  0.3173
14877TIP3   OH266045   1.563   5.834   5.788  0.7459  0.3082 -0.8282
14877TIP3    H166046   1.597   5.923   5.784  0.6963  0.4207  0.6503
14877TIP3    H266047   1.636   5.779   5.759  1.1958  0.7493 -0.5405
14878TIP3   OH266048   3.527   1.777   2.055 -0.7228  0.4072 -0.5272
14878TIP3    H166049   3.586   1.733   2.116 -1.2141  0.9108  0.3485
14878TIP3    H266050   3.562   1.759   1.968  1.4299  1.6970  0.0042
14879TIP3   OH266051   4.074   3.112   5.232  0.0368  0.2083  0.1203
14879TIP3    H166052   4.008   3.107   5.163  0.0857 -1.2150  0.1463
14879TIP3    H266053   4.024   3.131   5.312 -0.0513  1.5486 -0.2317
14880TIP3   OH266054   1.337   0.736   5.298 -0.1445 -0.1211 -0.2042
14880TIP3    H166055   1.309   0.740   5.390  0.5020 -0.0618 -0.0013
14880TIP3    H266056   1.303   0.816   5.259  1.2265  0.8346  0.4756
14881TIP3   OH266057   6.283   4.880   1.384 -0.4797 -0.7069 -0.4223
14881TIP3    H166058   6.273   4.933   1.305 -2.4911 -1.1876 -0.5336
14881TIP3    H266059   6.341   4.931   1.440 -1.3730  1.0385 -1.0202
14882TIP3   OH266060   5.987   3.997   4.226  0.4090 -0.0414  0.0841
14882TIP3    H166061   5.892   4.000   4.217  0.2493 -0.6290  1.3389
14882TIP3    H266062   6.002   3.986   4.320  1.7205  0.0778 -0.0901
14883TIP3   OH266063   5.457   6.741   1.172 -0.6172 -0.0206 -0.5881
14883TIP3    H166064   5.366   6.717   1.188 -0.3091 -0.1838  1.1513
14883TIP3    H266065   5.475   6.811   1.234 -0.2155  1.7177 -2.5620
14884TIP3   OH266066   2.479   5.085   5.468  0.0962  0.0203 -0.2077
14884TIP3    H166067   2.443   5.013   5.520  0.0120 -0.5711 -1.0656
14884TIP3    H266068   2.494   5.155   5.532 -0.4639 -0.5113  0.5299
14885TIP3   OH266069   4.046   2.537  13.148 -0.3482 -0.8148  0.1431
14885TIP3    H166070   4.041   2.593  13.071 -0.4132  0.6740  1.1785
14885TIP3    H266071   3.958   2.499  13.157 -0.5981 -0.2758 -0.0051
14886TIP3   OH266072   6.393   6.752  16.130 -0.3171  0.1518  0.3025
14886TIP3    H166073   6.338   6.761  16.052  2.0877 -0.3151 -1.5671
14886TIP3    H266074   6.349   6.806  16.196 -2.2426  0.9290 -1.4782
14887TIP3   OH266075   3.785   5.159  13.032  0.6133 -0.4645  0.3768
14887TIP3    H166076   3.698   5.121  13.045  0.9102 -1.4015 -0.2206
14887TIP3    H266077   3.831   5.142  13.114  0.1093  0.4110  0.8515
14888TIP3   OH266078   6.428   0.651  12.204  0.0791 -0.3169  0.4864
14888TIP3    H166079   6.404   0.737  12.239 -1.0580  0.0736 -1.1306
14888TIP3    H266080   6.464   0.670  12.118 -0.6815 -1.4889 -0.1127
14889TIP3   OH266081   5.181   3.490  14.093 -0.4266 -0.1861 -0.1607
14889TIP3    H166082   5.201   3.571  14.140  0.4658  0.7326 -1.9922
14889TIP3    H266083   5.267   3.455  14.069 -0.7983 -1.7517  0.6805
14890TIP3   OH266084   5.900   3.108  16.119  0.3186  0.2432 -0.3474
14890TIP3    H166085   5.868   3.020  16.137  0.5348  0.5218  1.6246
14890TIP3    H266086   5.906   3.112  16.023 -1.1517 -1.3355 -0.5543
14891TIP3   OH266087   0.957   4.682   3.856  0.0826  0.0691  0.0536
14891TIP3    H166088   0.909   4.730   3.789  0.9651 -0.0179 -0.6530
14891TIP3    H266089   0.889   4.635   3.905 -0.6026  0.4351 -0.5301
14892TIP3   OH266090   2.942   1.402  11.361 -0.0156  0.1040  0.4031
14892TIP3    H166091   3.012   1.338  11.352  1.6098  1.8310  0.0516
14892TIP3    H266092   2.925   1.432  11.272 -1.6980 -0.7463  0.4063
14893TIP3   OH266093   4.122   1.479  14.636 -0.2643 -0.3174  0.0248
14893TIP3    H166094   4.213   1.471  14.605 -0.2087  0.3472 -0.0035
14893TIP3    H266095   4.072   1.422  14.578  0.0865 -0.4110 -0.1931
14894TIP3   OH266096   3.596   0.049   1.005 -0.2270 -0.0856 -0.4492
14894TIP3    H166097   3.671   0.060   0.946  1.0277  0.6191  1.2021
14894TIP3    H266098   3.562   0.138   1.017  1.2974  0.2403  2.0415
14895TIP3   OH266099   6.127   6.149  12.643  0.5766  0.7223  1.1276
14895TIP3    H166100   6.044   6.185  12.676 -0.2115 -0.1376  0.1784
14895TIP3    H266101   6.190   6.164  12.713  0.2612  3.7436  0.8606
14896TIP3   OH266102   4.294   1.675  15.562 -0.7186 -0.2207  0.1970
14896TIP3    H166103   4.372   1.725  15.539 -1.9005  1.3346 -0.6059
14896TIP3    H266104   4.289   1.606  15.496  0.8086 -1.3400  1.1881
14897TIP3   OH266105   4.326   4.105  12.197  0.0061 -0.1865  0.0849
14897TIP3    H166106   4.418   4.132  12.193 -0.0570  0.0957  0.4984
14897TIP3    H266107   4.329   4.015  12.230  0.1898 -0.5452 -0.8817
14898TIP3   OH266108   0.594   4.768   5.079  0.0265 -0.3870 -0.9583
14898TIP3    H166109   0.625   4.706   5.146 -0.6940 -0.9711 -1.1497
14898TIP3    H266110   0.517   4.725   5.041 -1.5249  1.3568  0.0399
14899TIP3   OH266111   5.403   3.787   1.751 -0.7953  0.1917  0.2661
14899TIP3    H166112   5.405   3.882   1.751 -1.5715  0.2172 -0.2397
14899TIP3    H266113   5.483   3.761   1.796  0.9342  1.0620 -2.1080
14900TIP3   OH266114   5.203   3.945   3.509  0.2737  0.3486 -0.6141
14900TIP3    H166115   5.178   3.975   3.421 -3.7962  0.1582  0.2557
14900TIP3    H266116   5.186   3.851   3.507  0.5582  0.2740  0.2835
14901TIP3   OH266117   1.983   1.557  10.693  0.0037  0.2970 -0.2822
14901TIP3    H166118   2.023   1.640  10.666 -0.6693  0.7274  0.0051
14901TIP3    H266119   1.898   1.583  10.729  0.7434 -0.2544  2.0261
14902TIP3   OH266120   0.862   4.332  13.832 -0.3374  0.0567 -0.6771
14902TIP3    H166121   0.943   4.282  13.837  0.8709  1.9317 -0.9191
14902TIP3    H266122   0.874   4.392  13.759 -1.8828  0.5027 -0.6121
14903TIP3   OH266123   3.944   2.544  12.852 -0.5822  0.1463 -0.0515
14903TIP3    H166124   3.964   2.561  12.760 -1.5945  2.0998  0.0436
14903TIP3    H266125   3.913   2.453  12.853 -0.8204  0.1801 -1.6814
14904TIP3   OH266126   2.646   4.623   2.646  0.6119  0.0812  0.0423
14904TIP3    H166127   2.732   4.593   2.617  0.8779  1.4407 -0.6745
14904TIP3    H266128   2.661   4.656   2.735  0.4378 -1.2793  0.6043
14905TIP3   OH266129   4.923   2.166   3.452 -0.1476  0.1746  0.9258
14905TIP3    H166130   4.981   2.105   3.499  0.1431  0.3969  0.8608
14905TIP3    H266131   4.972   2.188   3.372 -0.1518  0.6707  1.0589
14906TIP3   OH266132   5.635   0.503   1.387  0.0171  0.2585 -0.0903
14906TIP3    H166133   5.730   0.510   1.399 -0.0144  2.3604 -0.6086
14906TIP3    H266134   5.599   0.511   1.475  0.3004 -0.2622  0.0770
14907TIP3   OH266135   5.282   1.383   5.082  0.5584 -0.1257 -0.2418
14907TIP3    H166136   5.366   1.427   5.086  0.9067 -0.4390 -2.8635
14907TIP3    H266137   5.226   1.433   5.142  2.4858  0.2228  1.3716
14908TIP3   OH266138   1.888   2.705   3.683  0.2864  0.0915 -0.3712
14908TIP3    H166139   1.797   2.734   3.682  0.1922 -0.1913 -0.3583
14908TIP3    H266140   1.901   2.663   3.597  1.0450  2.0108 -1.2600
14909TIP3   OH266141   3.223   2.993  14.343  0.3335 -0.4881  0.1232
14909TIP3    H166142   3.162   2.921  14.363  0.5583 -0.4268  1.0357
14909TIP3    H266143   3.216   3.003  14.248 -2.6185  0.8463  0.3721
14910TIP3   OH266144   0.606   1.123   4.246 -0.1247 -0.4584 -0.1827
14910TIP3    H166145   0.697   1.148   4.254 -0.3214  0.7948 -1.4436
14910TIP3    H266146   0.570   1.132   4.334  0.7061  0.0722  0.1076
14911TIP3   OH266147   2.135   6.339   0.486  0.1132 -0.2767 -0.2714
14911TIP3    H166148   2.220   6.333   0.529 -0.0399 -1.3350 -0.1009
14911TIP3    H266149   2.110   6.249   0.469 -2.1518 -0.1834  1.9792
14912TIP3   OH266150   0.386   2.269   0.450 -0.3470 -0.0892 -0.5270
14912TIP3    H166151   0.441   2.330   0.401  1.3507 -1.7360 -0.7772
14912TIP3    H266152   0.448   2.212   0.495 -1.8634 -1.5256 -0.1649
14913TIP3   OH266153   0.181   0.919   2.589  0.3501 -0.1542  0.1527
14913TIP3    H166154   0.107   0.863   2.565 -1.4112  3.3091 -3.7972
14913TIP3    H266155   0.155   0.960   2.671 -0.5664 -1.3283  0.4827
14914TIP3   OH266156   5.010   5.661  17.150 -0.2090 -0.1862  0.0850
14914TIP3    H166157   5.078   5.681  17.085 -1.0070 -2.9501 -1.8050
14914TIP3    H266158   5.054   5.603  17.213 -0.6015 -1.4378 -0.7672
14915TIP3   OH266159   6.550   0.345  14.915 -0.3977  0.1525  0.1680
14915TIP3    H166160   6.637   0.385  14.921 -0.2085  0.4573 -2.9026
14915TIP3    H266161   6.491   0.412  14.949  0.5707 -0.7269  4.0230
14916TIP3   OH266162   3.346   0.394  14.227 -0.0333  0.6115  0.3363
14916TIP3    H166163   3.296   0.332  14.279  0.3863  1.0960  1.3513
14916TIP3    H266164   3.397   0.339  14.168  0.8321 -0.0833  1.6639
14917TIP3   OH266165   1.026   3.498  11.698  0.4450  0.1881  0.4056
14917TIP3    H166166   1.119   3.495  11.719  0.3452  1.3202  1.0856
14917TIP3    H266167   0.994   3.577  11.741 -1.5808 -1.9969  3.3753
14918TIP3   OH266168   4.830   1.401  14.059 -0.6516 -0.3105  0.1711
14918TIP3    H166169   4.764   1.381  13.993 -0.7532  1.2120 -0.2078
14918TIP3    H266170   4.910   1.360  14.025 -0.8225  0.0095 -0.6386
14919TIP3   OH266171   1.146   2.659  13.238  0.4837 -0.9098 -0.3252
14919TIP3    H166172   1.077   2.643  13.173 -0.3498  2.7379 -0.5254
14919TIP3    H266173   1.227   2.652  13.189 -0.0045 -0.7835 -1.1655
14920TIP3   OH266174   5.437   0.625  14.827 -0.0401 -0.3817  0.5355
14920TIP3    H166175   5.491   0.701  14.848  0.2263 -0.8746  1.6652
14920TIP3    H266176   5.499   0.558  14.801 -0.3559  0.2637 -2.1924
14921TIP3   OH266177   1.226   3.347  10.360 -0.2534  0.2796  0.0418
14921TIP3    H166178   1.164   3.285  10.399 -1.0134  1.0714  0.1074
14921TIP3    H266179   1.213   3.336  10.265 -0.7505  0.6908  0.0584
14922TIP3   OH266180   0.422   1.762   2.755  0.6046  0.0104  0.2754
14922TIP3    H166181   0.398   1.697   2.821  3.1534 -0.1480  1.1609
14922TIP3    H266182   0.517   1.763   2.755  0.7076  0.7711 -2.7340
14923TIP3   OH266183   0.154   2.714   4.964 -0.4665  0.3349  0.1645
14923TIP3    H166184   0.066   2.676   4.959 -0.6001  0.7619 -1.7193
14923TIP3    H266185   0.199   2.675   4.889  1.0335 -0.0167  1.2129
14924TIP3   OH266186   1.298   2.179  12.950 -0.3416  0.7906  0.1065
14924TIP3    H166187   1.288   2.251  13.013  0.7555  0.7711  0.3286
14924TIP3    H266188   1.342   2.111  13.000  0.8704  0.9082 -0.7712
14925TIP3   OH266189   3.261   0.148   3.191  0.2896 -0.1126  0.7714
14925TIP3    H166190   3.342   0.198   3.203  0.9188 -1.2199  1.3377
14925TIP3    H266191   3.268   0.075   3.254 -0.1745 -1.4300 -0.6439
14926TIP3   OH266192   4.025   0.926   4.779  0.4157  0.0815 -0.0034
14926TIP3    H166193   3.931   0.919   4.765  0.1368  1.6950  0.8114
14926TIP3    H266194   4.043   0.871   4.855  0.0881 -0.0258 -0.0034
14927TIP3   OH266195   6.122   1.084   1.212  0.6292 -0.2845 -0.4246
14927TIP3    H166196   6.083   1.135   1.282 -0.0112 -0.3047 -0.7576
14927TIP3    H266197   6.087   1.123   1.132 -0.0340 -1.3600 -0.6789
14928TIP3   OH266198   4.209   2.495  13.385 -0.1701  0.5948  0.0734
14928TIP3    H166199   4.156   2.531  13.313 -1.1277  1.5930  1.2332
14928TIP3    H266200   4.233   2.572  13.437 -1.3154 -0.2694  2.0070
14929TIP3   OH266201   6.513   2.989  16.231  0.2163  0.4984  0.1517
14929TIP3    H166202   6.474   2.955  16.311  0.9944 -0.5615  0.0995
14929TIP3    H266203   6.572   2.920  16.201  1.3062  1.5915 -0.3524
14930TIP3   OH266204   4.775   4.784  15.691 -0.2406  0.4107 -0.2999
14930TIP3    H166205   4.712   4.714  15.706  1.9430 -1.5579  0.3270
14930TIP3    H266206   4.822   4.758  15.611 -0.1417  1.7697 -0.7110
14931TIP3   OH266207   1.606   1.745   6.043 -0.5997 -0.1629  0.2139
14931TIP3    H166208   1.657   1.761   6.122 -0.5101 -0.0187  0.1255
14931TIP3    H266209   1.532   1.692   6.073  0.2372 -1.4300  0.1548
14932TIP3   OH266210   3.300   0.069   1.093  0.3665 -0.5737 -0.3544
14932TIP3    H166211   3.330   0.034   1.176  0.6959 -0.2192 -0.3209
14932TIP3    H266212   3.352   0.148   1.080 -1.5989  0.9754  0.4916
14933TIP3   OH266213   0.304   6.161   5.048 -0.2091  0.0657 -0.1972
14933TIP3    H166214   0.250   6.106   5.104  0.5556 -0.2113  0.2870
14933TIP3    H266215   0.387   6.113   5.040  0.6604  1.3544  0.6551
14934TIP3   OH266216   3.495   4.616   1.069  0.2759  0.1163 -0.3086
14934TIP3    H166217   3.458   4.671   1.139  0.5494 -0.0185 -0.0553
14934TIP3    H266218   3.580   4.588   1.104 -0.0113 -0.7551 -0.2956
14935TIP3   OH266219   0.303   5.700  14.839 -0.0530 -0.4812 -0.1266
14935TIP3    H166220   0.267   5.737  14.759  0.4180  0.7349  0.1931
14935TIP3    H266221   0.394   5.731  14.841  0.4004 -1.7471  0.1324
14936TIP3   OH266222   1.973   3.875   4.730 -0.2641  0.0325 -0.0398
14936TIP3    H166223   1.914   3.899   4.801  1.0226 -3.3279  2.3936
14936TIP3    H266224   2.045   3.938   4.736 -0.5990  0.3229  1.1081
14937TIP3   OH266225   2.845   2.052   5.653 -0.1343 -0.5427 -0.3613
14937TIP3    H166226   2.764   2.080   5.610  1.1642  0.0047 -2.6096
14937TIP3    H266227   2.818   1.982   5.712 -2.2912 -0.0644 -0.6994
14938TIP3   OH266228   3.986   5.694  11.161 -0.6191  0.3086 -0.1558
14938TIP3    H166229   3.896   5.682  11.130  0.0812  1.5521 -3.0092
14938TIP3    H266230   4.033   5.618  11.128 -0.2042  0.7686 -0.6489
14939TIP3   OH266231   4.177   6.217   4.607  0.0478  0.4270  0.1491
14939TIP3    H166232   4.178   6.304   4.568  0.6190  0.5283  0.3893
14939TIP3    H266233   4.164   6.158   4.532  1.2750  0.6129 -0.2262
14940TIP3   OH266234   3.692   2.072  15.490 -0.0107 -0.2325 -0.2756
14940TIP3    H166235   3.654   2.096  15.406 -1.1919 -2.4880 -0.4604
14940TIP3    H266236   3.709   2.156  15.534  1.5915  1.0410 -3.1055
14941TIP3   OH266237   2.129   4.289   4.581  0.2727  0.1341 -0.1806
14941TIP3    H166238   2.063   4.236   4.537  0.9287 -1.4594  0.6929
14941TIP3    H266239   2.089   4.313   4.665  0.5297 -0.2437  0.0532
14942TIP3   OH266240   5.104   4.547   0.250 -0.4609 -0.2795 -0.7589
14942TIP3    H166241   5.124   4.493   0.174 -1.5131 -2.3920  0.3386
14942TIP3    H266242   5.018   4.515   0.279 -0.2153  0.6303  1.1226
14943TIP3   OH266243   0.918   1.620   5.191  0.2987  0.2392  0.5590
14943TIP3    H166244   1.012   1.624   5.171  0.4996  2.4566  1.6499
14943TIP3    H266245   0.915   1.606   5.286 -0.4010  2.1754  0.8633
14944TIP3   OH266246   4.794   0.280  10.460  0.6141 -0.3156 -0.2715
14944TIP3    H166247   4.777   0.232  10.379 -0.7164 -0.1771 -0.1094
14944TIP3    H266248   4.859   0.228  10.506  3.0826  0.7151 -2.3651
14945TIP3   OH266249   0.534   6.558   0.765 -0.1526 -0.0526 -0.6324
14945TIP3    H166250   0.507   6.469   0.787  0.5532 -0.6803 -2.1570
14945TIP3    H266251   0.497   6.574   0.679  3.1753 -0.5261 -2.3317
14946TIP3   OH266252   1.243   1.848  15.998  0.6524  0.1545 -0.1878
14946TIP3    H166253   1.234   1.863  16.092 -0.4023 -5.7040  1.0530
14946TIP3    H266254   1.157   1.814  15.972  1.1416  0.9471 -3.1482
14947TIP3   OH266255   3.716   5.087   5.507  0.7865  0.2276  0.0324
14947TIP3    H166256   3.808   5.082   5.482  0.7367  1.5707 -0.5243
14947TIP3    H266257   3.670   5.102   5.424 -0.0224 -1.1311  0.2072
14948TIP3   OH266258   0.106   2.225  16.931 -0.3866  0.6434 -0.0435
14948TIP3    H166259   0.135   2.295  16.872 -0.0326 -0.2265 -0.9148
14948TIP3    H266260   0.174   2.223  16.999  1.7363 -1.3309 -2.0305
14949TIP3   OH266261   4.970   5.332   5.782 -0.0369  0.3167  0.3728
14949TIP3    H166262   4.930   5.348   5.867 -0.8822 -0.4318  0.1404
14949TIP3    H266263   4.908   5.368   5.718 -0.0541 -0.2972  0.0289
14950TIP3   OH266264   2.554   0.640   1.372 -0.1517 -0.2265  0.3886
14950TIP3    H166265   2.471   0.685   1.388 -1.0383 -1.3847 -0.7514
14950TIP3    H266266   2.588   0.622   1.460  0.7264  3.3482  0.9760
14951TIP3   OH266267   2.675   1.858   2.224 -0.2512  0.1821 -0.0810
14951TIP3    H166268   2.641   1.874   2.312 -0.8861  0.4836 -0.3696
14951TIP3    H266269   2.621   1.787   2.189 -1.3260  1.3641 -0.9271
14952TIP3   OH266270   4.109   0.965  13.041 -0.5270  0.5395  0.4431
14952TIP3    H166271   4.173   1.036  13.028  0.8356 -0.0641  3.1137
14952TIP3    H266272   4.138   0.896  12.981 -0.6176  1.4348 -0.6661
14953TIP3   OH266273   4.256   4.464  13.365 -0.1169 -0.0812 -0.2949
14953TIP3    H166274   4.228   4.532  13.304  0.2935 -0.6072 -1.0986
14953TIP3    H266275   4.333   4.425  13.323 -0.3215 -1.0124  0.1635
14954TIP3   OH266276   2.918   2.791  16.016  0.9403  0.1857 -0.0208
14954TIP3    H166277   2.949   2.871  16.059  2.2062 -0.0953 -0.3815
14954TIP3    H266278   2.830   2.777  16.053  0.7760  1.6196  0.1878
14955TIP3   OH266279   5.363   1.268   0.996 -0.4268  0.6824 -0.5208
14955TIP3    H166280   5.413   1.336   0.952  0.0705  0.4038 -0.3858
14955TIP3    H266281   5.389   1.273   1.088  0.1973 -0.1973 -0.6371
14956TIP3   OH266282   6.476   2.918   4.132  0.3033 -0.2344  0.3125
14956TIP3    H166283   6.457   2.828   4.109  0.0052  0.2892 -1.6727
14956TIP3    H266284   6.404   2.945   4.189  1.0965 -1.6078  2.0496
14957TIP3   OH266285   0.881   4.085  14.125 -0.2441 -0.3747 -0.2353
14957TIP3    H166286   0.917   4.066  14.212 -1.2975 -2.3766 -0.1757
14957TIP3    H266287   0.848   4.174  14.132  0.6881 -0.0983  1.0562
14958TIP3   OH266288   4.055   6.608  16.949 -0.3222 -0.3051 -0.5707
14958TIP3    H166289   4.064   6.649  16.863 -0.9386 -0.8210 -0.8898
14958TIP3    H266290   3.982   6.655  16.990  1.5654  1.6970  0.7308
14959TIP3   OH266291   3.577   2.763   6.007  0.5370 -0.7999 -0.1958
14959TIP3    H166292   3.574   2.677   5.965  1.4489 -0.7113 -0.4600
14959TIP3    H266293   3.485   2.784   6.025  0.2646 -1.5798 -0.6358
14960TIP3   OH266294   2.604   3.086   3.473 -0.2348 -0.3141 -0.1487
14960TIP3    H166295   2.664   3.156   3.498  1.5631 -0.8857 -2.5001
14960TIP3    H266296   2.611   3.022   3.544  2.1261 -0.4263 -0.3999
14961TIP3   OH266297   1.117   4.593  13.947 -0.2628  0.3402 -0.7725
14961TIP3    H166298   1.107   4.682  13.913  0.5933  0.8177  0.1370
14961TIP3    H266299   1.033   4.573  13.989 -0.1738  1.0862 -0.2091
14962TIP3   OH266300   3.583   5.896   2.503  0.6231 -0.0225  0.6073
14962TIP3    H166301   3.500   5.945   2.496  1.0797  0.5971 -0.7891
14962TIP3    H266302   3.641   5.956   2.550  0.5088 -0.1676  0.9409
14963TIP3   OH266303   0.180   5.431   2.354  0.3181 -0.5488 -0.4398
14963TIP3    H166304   0.267   5.393   2.355  0.2399 -0.7228 -0.1419
14963TIP3    H266305   0.192   5.521   2.384  0.2229 -0.9612  0.9300
14964TIP3   OH266306   5.473   0.554  14.190  0.1318 -0.3999 -0.1399
14964TIP3    H166307   5.474   0.463  14.160 -1.4564 -1.3843  2.4834
14964TIP3    H266308   5.551   0.561  14.246  0.6757  0.1210 -0.9403
14965TIP3   OH266309   0.513   4.551  10.757  0.0913  0.1224 -0.1218
14965TIP3    H166310   0.528   4.543  10.663 -0.6856 -0.4980 -0.1998
14965TIP3    H266311   0.528   4.644  10.776  0.7709  0.1508 -0.7576
14966TIP3   OH266312   5.561   3.643   5.588  0.4197  0.4293 -0.6776
14966TIP3    H166313   5.480   3.683   5.622  1.5321  0.7136  1.8654
14966TIP3    H266314   5.566   3.673   5.497 -1.8193  1.1819 -0.6273
14967TIP3   OH266315   3.322   1.630   6.300  0.2440 -0.1818 -0.4126
14967TIP3    H166316   3.393   1.581   6.342  0.0233  0.3168  0.5727
14967TIP3    H266317   3.257   1.563   6.277  0.4540 -0.4889 -0.1289
14968TIP3   OH266318   2.481   4.184   2.195  0.5225 -0.0185 -0.1647
14968TIP3    H166319   2.567   4.172   2.154  0.2960 -0.2660 -0.5711
14968TIP3    H266320   2.419   4.145   2.133  0.2643 -1.3626  0.8799
14969TIP3   OH266321   1.479   3.831  15.954  0.5201 -0.4726 -0.0867
14969TIP3    H166322   1.442   3.896  15.894 -0.3129 -0.0812  0.8186
14969TIP3    H266323   1.427   3.752  15.939  1.0044 -0.7020 -0.6113
14970TIP3   OH266324   5.979   3.129   3.846  0.3555 -0.1064  0.0025
14970TIP3    H166325   5.904   3.180   3.878 -0.0538 -0.4171 -0.4411
14970TIP3    H266326   5.944   3.040   3.836 -0.3285  0.4269 -3.7855
14971TIP3   OH266327   6.772   1.560  15.384  0.4813  0.1164 -0.1837
14971TIP3    H166328   6.780   1.654  15.394 -0.5742  0.3057 -0.8552
14971TIP3    H266329   6.808   1.523  15.464  1.5860  1.0499 -0.2392
14972TIP3   OH266330   1.397   1.623  14.732 -0.4445 -0.4989  0.2775
14972TIP3    H166331   1.428   1.540  14.695 -0.5077 -0.8482  1.0037
14972TIP3    H266332   1.373   1.602  14.822  0.9010  0.6222  0.9322
14973TIP3   OH266333   0.333   5.843   1.920  0.1613  0.2108 -0.2735
14973TIP3    H166334   0.400   5.905   1.948 -0.2828  1.3687 -1.6634
14973TIP3    H266335   0.250   5.886   1.941 -0.1543 -0.0366 -0.9776
14974TIP3   OH266336   1.752   1.276  12.759 -0.5262  0.1416  0.6252
14974TIP3    H166337   1.810   1.227  12.818 -0.0634  0.9104  0.8178
14974TIP3    H266338   1.741   1.361  12.801 -0.0184  0.7854 -0.4891
14975TIP3   OH266339   6.660   0.503  13.958 -0.0481  0.1509 -0.9051
14975TIP3    H166340   6.580   0.538  13.918  0.4269  3.0960  0.4619
14975TIP3    H266341   6.630   0.424  14.004 -1.3951 -0.8689 -3.3018
14976TIP3   OH266342   4.453   0.711  12.448 -0.2563  0.4285 -0.7060
14976TIP3    H166343   4.542   0.693  12.477 -0.7760  0.8940  1.3337
14976TIP3    H266344   4.405   0.631  12.466 -0.2195  0.0670 -2.1021
14977TIP3   OH266345   3.900   3.689  15.561 -0.2791  0.0540  0.2188
14977TIP3    H166346   3.967   3.752  15.534 -2.1565  1.7523 -0.7763
14977TIP3    H266347   3.941   3.604  15.547  2.1306  0.9942  0.9976
14978TIP3   OH266348   4.447   3.269   2.458 -0.2133 -0.0878 -0.0426
14978TIP3    H166349   4.405   3.217   2.527 -0.7195 -1.6590 -1.4944
14978TIP3    H266350   4.512   3.211   2.419 -0.6039  0.4329 -1.5243
14979TIP3   OH266351   2.896   3.376  15.911 -0.1177 -0.0652  0.0930
14979TIP3    H166352   2.839   3.376  15.834  1.6975 -2.5682 -1.4294
14979TIP3    H266353   2.915   3.283  15.927  2.4849  0.5578  1.2715
14980TIP3   OH266354   2.178   6.659  11.296  0.3946 -0.2443 -0.6173
14980TIP3    H166355   2.238   6.606  11.242  1.8851  1.3188 -0.5942
14980TIP3    H266356   2.125   6.707  11.233  1.9915  1.4206 -0.7869
14981TIP3   OH266357   0.263   5.936  16.452  0.1723  0.1790 -0.2612
14981TIP3    H166358   0.192   5.912  16.512  0.8931  1.0882  1.0184
14981TIP3    H266359   0.279   6.029  16.470  0.6752  0.3678 -1.6014
14982TIP3   OH266360   1.982   1.385   5.413  0.2671 -0.4115  0.1106
14982TIP3    H166361   2.059   1.440   5.422  1.1374 -1.8834  2.8071
14982TIP3    H266362   1.933   1.423   5.339  1.3970  3.1400  1.0137
14983TIP3   OH266363   5.616   4.666   4.533 -0.3105 -0.4951 -0.4608
14983TIP3    H166364   5.549   4.623   4.478 -0.2630 -0.9057 -0.2005
14983TIP3    H266365   5.586   4.757   4.540 -0.9312 -0.7151 -0.2112
14984TIP3   OH266366   6.421   1.154   0.633 -0.0582  0.5842  0.2344
14984TIP3    H166367   6.509   1.181   0.659  0.3624 -0.9889  0.5415
14984TIP3    H266368   6.421   1.059   0.644 -1.1770  0.3257 -1.6614
14985TIP3   OH266369   2.384   3.786  14.281  0.3979 -0.1979  0.3517
14985TIP3    H166370   2.343   3.775  14.195  0.9195  1.0456 -0.0790
14985TIP3    H266371   2.478   3.784  14.263  0.5615 -2.0005  1.1944
14986TIP3   OH266372   6.521   2.689  14.539 -0.1962  0.6096 -0.3453
14986TIP3    H166373   6.617   2.684  14.542 -0.1745  1.4002  1.0392
14986TIP3    H266374   6.499   2.764  14.594 -1.5106  2.0198 -2.5989
14987TIP3   OH266375   5.219   1.629  15.661 -0.0459 -0.1547 -0.0075
14987TIP3    H166376   5.282   1.680  15.611 -1.6743  1.5570 -0.4377
14987TIP3    H266377   5.193   1.686  15.733 -1.8267 -0.3804 -0.4137
14988TIP3   OH266378   1.886   4.303  12.197  0.0078  0.6048 -0.4917
14988TIP3    H166379   1.858   4.394  12.213 -1.3169  1.0036 -4.1307
14988TIP3    H266380   1.834   4.251  12.258  0.2837  2.2093  1.1886
14989TIP3   OH266381   3.006   1.037  12.731 -0.1778 -0.0709  0.0613
14989TIP3    H166382   2.957   1.118  12.721  0.7139  0.5392  0.5390
14989TIP3    H266383   3.076   1.042  12.666  0.1772 -0.2307  0.4245
14990TIP3   OH266384   3.109   0.588   4.015 -0.0358  0.0533 -0.2053
14990TIP3    H166385   3.184   0.563   3.960  0.3246 -1.5953  0.9327
14990TIP3    H266386   3.038   0.603   3.953  0.6269 -0.7106 -1.1926
14991TIP3   OH266387   5.653   0.806  14.907 -0.4014  0.1603 -0.0695
14991TIP3    H166388   5.690   0.739  14.963 -1.6348  0.0166  0.6052
14991TIP3    H266389   5.692   0.790  14.821 -0.9212 -1.6332  0.0048
14992TIP3   OH266390   6.476   1.029  12.467 -0.8220  0.3250 -0.2090
14992TIP3    H166391   6.457   0.980  12.547  0.8060 -1.0270 -0.5766
14992TIP3    H266392   6.420   0.989  12.400 -1.5454  0.8732  0.0586
14993TIP3   OH266393   2.159   6.288   4.714  0.2710 -0.4643  0.7131
14993TIP3    H166394   2.143   6.344   4.639 -1.0149  0.1222  1.4004
14993TIP3    H266395   2.220   6.338   4.769  1.2443 -0.9112  0.0796
14994TIP3   OH266396   0.307   1.470  16.109  0.5317  0.3401 -0.8797
14994TIP3    H166397   0.247   1.483  16.182  0.6637  2.0544 -1.0342
14994TIP3    H266398   0.375   1.413  16.144  0.1999  0.5273  0.1047
14995TIP3   OH266399   3.223   5.050   2.556  0.3680  0.5059 -0.0869
14995TIP3    H166400   3.286   4.979   2.546  2.1585  2.0531 -0.4896
14995TIP3    H266401   3.277   5.127   2.574 -1.3397  2.1314 -1.4954
14996TIP3   OH266402   0.879   5.906   3.772  0.1360 -0.4477  0.3355
14996TIP3    H166403   0.827   5.842   3.724 -1.8792  1.6421 -0.3985
14996TIP3    H266404   0.829   5.922   3.852  0.1740  0.7841  0.1335
14997TIP3   OH266405   5.316   4.519   5.556  0.0379  0.2461 -0.3900
14997TIP3    H166406   5.290   4.443   5.504  0.8116 -0.8909  0.8010
14997TIP3    H266407   5.240   4.537   5.611 -0.3588  0.7089 -1.0868
14998TIP3   OH266408   3.072   2.798  14.451  0.6774  0.4890 -0.5367
14998TIP3    H166409   3.150   2.774  14.502 -0.7247  0.5698  1.8128
14998TIP3    H266410   3.005   2.737  14.480 -0.4120  1.0423 -1.7916
14999TIP3   OH266411   0.604   1.884   1.165  0.0734  0.1400  1.0506
14999TIP3    H166412   0.674   1.926   1.117 -0.3924  1.2347  1.2958
14999TIP3    H266413   0.524   1.907   1.117 -0.3797  1.0950  2.2119
15000TIP3   OH266414   4.469   2.207  14.662  0.3065  0.6444 -0.2916
15000TIP3    H166415   4.447   2.289  14.617 -1.7225  0.3248  0.0038
15000TIP3    H266416   4.439   2.222  14.752 -0.1114 -0.4174 -0.2451
15001TIP3   OH266417   1.184   0.200  12.855 -0.3858  0.4705 -0.4183
15001TIP3    H166418   1.267   0.195  12.903 -0.3210  0.2375 -0.5558
15001TIP3    H266419   1.125   0.246  12.915 -0.0751  0.9035 -0.4373
15002TIP3   OH266420   5.613   1.756  13.913 -0.2580  0.2222 -0.1421
15002TIP3    H166421   5.645   1.725  13.998 -3.0174 -1.9757  0.2665
15002TIP3    H266422   5.518   1.754  13.921 -0.6414 -0.3584 -3.3529
15003TIP3   OH266423   4.448   3.729   0.866  0.3704 -0.7601 -0.1887
15003TIP3    H166424   4.362   3.769   0.854  0.5129 -0.5256 -0.4310
15003TIP3    H266425   4.449   3.656   0.803  0.7550 -0.1077 -0.9574
15004TIP3   OH266426   4.469   4.035   5.983 -0.3364 -0.0617  0.1437
15004TIP3    H166427   4.446   4.055   5.892  1.6941  0.3747 -0.3157
15004TIP3    H266428   4.561   4.012   5.981 -0.4295 -0.8111  2.0054
15005TIP3   OH266429   3.776   4.041  13.319  0.8219 -0.7789  0.2421
15005TIP3    H166430   3.798   4.134  13.330  2.2298 -1.3092  2.5359
15005TIP3    H266431   3.747   4.013  13.406 -1.2082 -2.1525 -0.7806
15006TIP3   OH266432   2.995   3.408   4.743 -0.1988 -0.2963 -0.5567
15006TIP3    H166433   2.992   3.495   4.783  1.1511  0.3626 -1.7736
15006TIP3    H266434   2.994   3.347   4.817 -1.6616  0.7080  0.3081
15007TIP3   OH266435   1.453   2.855  11.753 -0.1283  0.4287 -0.1055
15007TIP3    H166436   1.412   2.890  11.832 -0.3926  0.6759 -0.3527
15007TIP3    H266437   1.448   2.926  11.689 -0.5155 -0.0004 -0.5579
15008TIP3   OH266438   5.415   0.693   2.135  0.5317  0.0377  0.0337
15008TIP3    H166439   5.370   0.714   2.053 -1.3606 -0.8450  0.7865
15008TIP3    H266440   5.443   0.602   2.125  0.3838 -0.0397  0.3250
15009TIP3   OH266441   1.497   0.966  11.623  0.3707  0.3867 -0.8389
15009TIP3    H166442   1.569   1.029  11.629 -0.3502  1.0844  1.1905
15009TIP3    H266443   1.440   1.000  11.554  1.0419  0.8178 -1.1856
15010TIP3   OH266444   4.792   5.485  13.682  0.3045 -0.8066  0.2399
15010TIP3    H166445   4.846   5.406  13.673  1.2533 -0.3933  1.8776
15010TIP3    H266446   4.839   5.552  13.633 -0.7207 -1.3085 -1.5134
15011TIP3   OH266447   2.816   6.061  11.577  0.1274 -0.2955  0.0311
15011TIP3    H166448   2.725   6.090  11.570  0.3417  0.3973  0.0526
15011TIP3    H266449   2.867   6.140  11.562  0.7590 -0.9361 -1.4150
15012TIP3   OH266450   0.226   6.621  12.905  0.7287 -0.0524  0.1445
15012TIP3    H166451   0.300   6.681  12.920  0.2979  0.6493 -0.4709
15012TIP3    H266452   0.178   6.621  12.988  0.9836  0.0997  0.2930
15013TIP3   OH266453   0.287   3.378  11.681  0.4235  0.2198 -0.0845
15013TIP3    H166454   0.254   3.463  11.709 -1.3261 -0.7288  0.8508
15013TIP3    H266455   0.311   3.333  11.762 -2.5381 -1.6691 -0.0814
15014TIP3   OH266456   5.823   0.593  11.411  0.0317 -0.0633  0.2065
15014TIP3    H166457   5.747   0.630  11.366  1.2397 -0.4691 -2.3084
15014TIP3    H266458   5.827   0.641  11.494 -1.6493  1.5064 -0.5509
15015TIP3   OH266459   0.145   3.827   2.166  0.1007  0.1689 -0.4754
15015TIP3    H166460   0.142   3.735   2.139  0.2199  0.3009 -0.9469
15015TIP3    H266461   0.158   3.875   2.084 -1.0143  0.6751 -0.3711
15016TIP3   OH266462   3.074   2.913   3.240 -0.0043 -0.4669 -0.0669
15016TIP3    H166463   2.992   2.960   3.226 -0.2440 -0.7180  0.4386
15016TIP3    H266464   3.137   2.980   3.265  0.1986 -0.1424 -1.4009
15017TIP3   OH266465   0.246   2.253  14.759 -0.2206  0.2520 -0.1954
15017TIP3    H166466   0.338   2.231  14.771  0.0700  1.3849 -0.2051
15017TIP3    H266467   0.222   2.213  14.675 -0.5244 -2.3412  1.0256
15018TIP3   OH266468   6.320   2.614   0.370 -0.0791 -0.2879  0.0888
15018TIP3    H166469   6.246   2.673   0.386  1.1070  0.7266  2.1994
15018TIP3    H266470   6.292   2.562   0.294 -2.4433  0.8581  0.0611
15019TIP3   OH266471   4.343   2.041   2.959 -0.1496  0.1063  0.1870
15019TIP3    H166472   4.365   2.019   2.869 -0.8299  1.8512 -0.4416
15019TIP3    H266473   4.409   1.996   3.012  2.2158  1.5719 -1.3623
15020TIP3   OH266474   4.994   1.398   0.076  0.1352  0.3636  0.5201
15020TIP3    H166475   5.070   1.427   0.127  1.0660  0.6886 -0.9955
15020TIP3    H266476   4.928   1.465   0.091  1.3758  1.9932 -0.8857
15021TIP3   OH266477   4.207   1.922  10.812  0.2566 -0.0367 -0.5364
15021TIP3    H166478   4.156   1.965  10.744 -0.3534  1.6160  0.8937
15021TIP3    H266479   4.292   1.966  10.809  0.5283 -0.5583 -0.7648
15022TIP3   OH266480   6.727   5.243  15.294 -0.0538 -0.1979 -0.2340
15022TIP3    H166481   6.649   5.298  15.295  0.2189  0.1993 -0.0239
15022TIP3    H266482   6.748   5.230  15.387 -2.4468 -4.0924 -0.0231
15023TIP3   OH266483   1.627   4.112  13.375 -0.3882  0.2018  0.7739
15023TIP3    H166484   1.691   4.174  13.339  0.6277 -0.2798  1.7076
15023TIP3    H266485   1.639   4.032  13.322  0.9205 -0.4175  1.9492
15024TIP3   OH266486   6.577   0.130   2.005  0.2174  1.1616  0.1587
15024TIP3    H166487   6.560   0.147   2.098 -0.3909 -0.4954  0.3871
15024TIP3    H266488   6.666   0.162   1.991  0.4937  1.0100  1.4356
15025TIP3   OH266489   3.775   3.235   3.859 -0.7711 -0.4017 -0.3003
15025TIP3    H166490   3.814   3.320   3.880 -2.4771 -0.1455  2.3417
15025TIP3    H266491   3.817   3.208   3.778  0.6320  2.4482 -0.6303
15026TIP3   OH266492   3.523   0.887   2.982  0.2884  0.5881 -0.3891
15026TIP3    H166493   3.491   0.965   2.937  1.3642  2.2102  1.4982
15026TIP3    H266494   3.613   0.875   2.951  0.9234  1.5236  0.9793
15027TIP3   OH266495   0.544   1.918  15.591  0.1296 -0.0520  0.1140
15027TIP3    H166496   0.473   1.936  15.530  0.8011  0.1140 -0.6309
15027TIP3    H266497   0.593   2.000  15.596 -0.4569  0.2468  1.6305
15028TIP3   OH266498   6.292   5.804  11.253 -0.2602 -0.3402  0.4225
15028TIP3    H166499   6.326   5.827  11.166 -0.8684 -0.8120  0.0541
15028TIP3    H266500   6.253   5.885  11.286  1.1632  0.2054  0.8372
15029TIP3   OH266501   3.469   6.542  15.459 -0.2637  0.3095 -0.1014
15029TIP3    H166502   3.392   6.595  15.480 -0.8761 -0.9333  0.9069
15029TIP3    H266503   3.525   6.550  15.537  0.0561  0.2096 -0.3212
15030TIP3   OH266504   4.305   2.930  11.356 -0.3794 -0.0022 -0.5624
15030TIP3    H166505   4.351   2.938  11.272 -0.1128 -0.1128 -0.4302
15030TIP3    H266506   4.364   2.973  11.419  0.4796 -1.8225 -0.0611
15031TIP3   OH266507   1.717   1.881  14.971  0.2124 -0.9537  0.0397
15031TIP3    H166508   1.803   1.912  14.999 -0.3406  0.3155  0.4184
15031TIP3    H266509   1.718   1.892  14.876 -0.6783  2.3649  0.2916
15032TIP3   OH266510   0.499   5.363   2.447 -0.3150 -0.0176 -0.1723
15032TIP3    H166511   0.588   5.391   2.463 -0.3814  0.4797 -0.6188
15032TIP3    H266512   0.469   5.418   2.374 -2.0854  2.1644  2.0236
15033TIP3   OH266513   4.620   1.941   1.753  0.0869  0.2577  0.3349
15033TIP3    H166514   4.652   1.980   1.671 -1.2412  0.7013  0.0009
15033TIP3    H266515   4.526   1.961   1.754  0.2414  1.0910  2.4365
15034TIP3   OH266516   4.102   3.257   1.143  0.1360 -0.4400  0.8072
15034TIP3    H166517   4.170   3.317   1.114 -0.6793  0.7494  1.2548
15034TIP3    H266518   4.021   3.293   1.105 -0.4829 -0.7549  1.7832
15035TIP3   OH266519   2.082   1.205   0.481  0.3512  0.0833  0.2134
15035TIP3    H166520   2.015   1.226   0.546 -0.5794 -1.1594 -0.3019
15035TIP3    H266521   2.076   1.110   0.470  1.8630  0.0238 -0.2217
15036TIP3   OH266522   1.077   4.469   2.058  0.1930  0.2491 -0.4843
15036TIP3    H166523   1.062   4.431   1.971 -0.9481 -0.0101 -0.1832
15036TIP3    H266524   1.015   4.541   2.064 -0.8258 -0.6925  0.7054
15037TIP3   OH266525   0.372   4.463  12.105  0.1810  0.0343  0.0296
15037TIP3    H166526   0.402   4.537  12.053 -0.3518 -0.3293 -0.8249
15037TIP3    H266527   0.308   4.419  12.048 -0.2088 -0.5312  0.8916
15038TIP3   OH266528   1.580   0.123  15.270  0.0931  0.9038  0.1987
15038TIP3    H166529   1.586   0.127  15.365  1.1864 -1.7346  0.3274
15038TIP3    H266530   1.669   0.138  15.239 -0.0671  0.7474 -0.3532
15039TIP3   OH266531   3.015   2.040  11.399 -0.4073 -0.0054 -0.5083
15039TIP3    H166532   2.966   2.091  11.335 -0.9550 -1.5342 -1.3668
15039TIP3    H266533   2.954   2.027  11.471 -0.9341 -0.9980 -1.1098
15040TIP3   OH266534   0.228   0.491   3.588  0.1262 -0.0392 -0.4501
15040TIP3    H166535   0.257   0.475   3.498 -0.6928  3.2772 -1.4330
15040TIP3    H266536   0.136   0.518   3.579  0.3384  1.4075  1.2198
15041TIP3   OH266537   1.801   6.599   2.893  0.6452 -0.2851  0.5054
15041TIP3    H166538   1.849   6.647   2.961 -1.0664  1.4744  0.5574
15041TIP3    H266539   1.715   6.582   2.931 -0.5263  1.1500 -1.3130
15042TIP3   OH266540   0.977   1.110   2.410  0.2830 -0.3157  0.0913
15042TIP3    H166541   0.905   1.172   2.399  0.4248 -0.2009 -0.1865
15042TIP3    H266542   1.034   1.151   2.475  1.3031  0.6941 -1.3944
15043TIP3   OH266543   2.536   5.253  16.762  0.1900  0.2030  0.3079
15043TIP3    H166544   2.588   5.328  16.790  0.3156 -0.2142  1.2428
15043TIP3    H266545   2.581   5.221  16.684  3.4790 -2.1570  2.8654
15044TIP3   OH266546   0.586   5.151  15.879 -0.4151 -0.4617 -0.0477
15044TIP3    H166547   0.603   5.121  15.968 -0.4582  0.7792  0.4077
15044TIP3    H266548   0.497   5.122  15.860 -1.5702  1.7457  1.4799
15045TIP3   OH266549   1.217   4.604   0.297 -0.3006  0.3147 -0.1408
15045TIP3    H166550   1.126   4.585   0.276 -0.5411  1.2905 -0.0519
15045TIP3    H266551   1.261   4.612   0.213 -0.2158 -0.4996 -0.1788
15046TIP3   OH266552   3.050   5.812   1.365 -0.2211  0.0713 -0.2532
15046TIP3    H166553   3.043   5.886   1.305  0.5976 -0.8618 -1.5402
15046TIP3    H266554   3.136   5.775   1.348  0.1469 -0.0794  1.7053
15047TIP3   OH266555   3.774   3.689   5.906 -0.2351  0.5358 -0.2392
15047TIP3    H166556   3.741   3.681   5.816 -0.7819  0.1402 -0.0126
15047TIP3    H266557   3.843   3.755   5.901  0.1385  0.0931 -1.0575
15048TIP3   OH266558   1.770   1.118  13.550  0.5585 -0.1841 -0.5411
15048TIP3    H166559   1.836   1.164  13.499  1.3477 -0.0360  0.5760
15048TIP3    H266560   1.687   1.143  13.510  1.1553 -0.2029 -1.8344
15049TIP3   OH266561   6.469   0.863  11.269  0.1961  0.3096 -0.1942
15049TIP3    H166562   6.394   0.918  11.245 -1.1009 -1.4115 -0.2500
15049TIP3    H266563   6.512   0.843  11.186 -0.7934 -0.7426 -0.4838
15050TIP3   OH266564   2.291   5.263   3.496 -0.1866 -0.3290 -0.0682
15050TIP3    H166565   2.214   5.315   3.475  1.0168  0.7834 -2.0917
15050TIP3    H266566   2.266   5.213   3.573 -2.6501  0.5424 -0.2110
15051TIP3   OH266567   3.686   6.493   5.316  0.1495  0.7856  0.4480
15051TIP3    H166568   3.710   6.573   5.270 -0.3107  1.0829  0.7232
15051TIP3    H266569   3.704   6.423   5.253  0.1940  1.1296  0.0734
15052TIP3   OH266570   3.518   1.126   1.126 -0.4722 -0.7676 -0.3067
15052TIP3    H166571   3.580   1.076   1.072  0.1095 -0.4394  0.0520
15052TIP3    H266572   3.506   1.209   1.079  0.9078 -0.0120  0.6013
15053TIP3   OH266573   0.350   1.439   5.015 -0.7014  0.1556 -0.5713
15053TIP3    H166574   0.398   1.420   5.096 -0.7832 -1.5477 -0.8769
15053TIP3    H266575   0.258   1.443   5.042 -0.6528  0.4789 -0.4480
15054TIP3   OH266576   0.873   4.204  12.480 -0.3606 -0.0711 -0.0188
15054TIP3    H166577   0.891   4.173  12.392 -0.0483 -0.5537  0.2093
15054TIP3    H266578   0.780   4.189  12.493 -0.0168 -2.1015  0.5201
15055TIP3   OH266579   4.259   4.703  12.748  0.0035  0.1932  0.1983
15055TIP3    H166580   4.271   4.608  12.757  0.6962  0.2915  0.4098
15055TIP3    H266581   4.320   4.740  12.812  0.9978  0.8212 -1.0713
15056TIP3   OH266582   0.253   3.315   4.578  0.7345  0.0931  0.0350
15056TIP3    H166583   0.246   3.373   4.654  0.4398 -0.7251  0.6404
15056TIP3    H266584   0.162   3.296   4.554  0.8042 -1.1078  0.6227
15057TIP3   OH266585   2.808   5.090  13.494  0.0302 -0.1015  0.0083
15057TIP3    H166586   2.738   5.138  13.450  0.1760  1.4834  1.3879
15057TIP3    H266587   2.889   5.130  13.462  0.1830  0.0973  0.6279
15058TIP3   OH266588   6.039   5.143  13.423  0.3201 -0.5206  0.7120
15058TIP3    H166589   6.039   5.200  13.500  0.5174  0.3634  0.0739
15058TIP3    H266590   6.090   5.066  13.449 -0.0948 -0.4892  1.6425
15059TIP3   OH266591   2.291   1.924   3.176  0.1082 -0.0052 -0.4353
15059TIP3    H166592   2.239   1.990   3.129 -1.6560 -1.5387 -0.7342
15059TIP3    H266593   2.369   1.972   3.205 -0.8887  2.0987 -1.0065
15060TIP3   OH266594   6.107   2.267   4.676 -0.3222 -0.3050  0.2198
15060TIP3    H166595   6.076   2.301   4.592  1.6859 -0.7267 -0.7432
15060TIP3    H266596   6.027   2.237   4.720 -1.4531  0.1872 -1.3968
15061TIP3   OH266597   4.427   0.283  11.054  0.1515  0.5180  0.0576
15061TIP3    H166598   4.494   0.219  11.081 -0.2392  0.4134  0.8323
15061TIP3    H266599   4.468   0.332  10.983  1.2631  0.8234  0.8675
15062TIP3   OH266600   4.134   0.072   3.311  0.6546  0.5562 -0.0204
15062TIP3    H166601   4.167   0.009   3.375 -1.7548  0.1150  0.8774
15062TIP3    H266602   4.174   0.044   3.228  1.1325 -0.9914  0.6875
15063TIP3   OH266603   0.836   3.820  16.938 -0.4470  0.1303 -0.0328
15063TIP3    H166604   0.758   3.822  16.994 -1.7351 -1.6941 -1.6160
15063TIP3    H266605   0.873   3.733  16.952 -1.0429 -0.5359 -2.2278
15064TIP3   OH266606   0.461   4.203  12.230 -0.3047 -0.4836  0.0031
15064TIP3    H166607   0.458   4.171  12.320 -1.2534 -0.9813 -0.1819
15064TIP3    H266608   0.529   4.151  12.188 -0.4626 -0.8664  0.2153
15065TIP3   OH266609   2.131   5.896   2.626  0.0151 -0.5899 -0.6011
15065TIP3    H166610   2.106   5.984   2.654  0.6919 -0.6435  0.1904
15065TIP3    H266611   2.227   5.896   2.629  0.0077 -1.4812 -0.1719
15066TIP3   OH266612   1.594   5.641  15.127 -0.2990  0.0955  0.2482
15066TIP3    H166613   1.502   5.650  15.104 -0.1514 -1.2876 -1.0211
15066TIP3    H266614   1.597   5.655  15.222 -1.8814 -0.4052  0.3884
15067TIP3   OH266615   4.843   0.232   0.240 -0.2140  0.1355  0.4136
15067TIP3    H166616   4.759   0.208   0.278 -0.0219  1.3609  1.7292
15067TIP3    H266617   4.862   0.164   0.176 -1.0019 -1.5496  1.8958
15068TIP3   OH266618   2.318   6.371  15.158 -0.1386  0.1331 -0.0757
15068TIP3    H166619   2.235   6.331  15.130  0.6073 -0.2797 -1.8087
15068TIP3    H266620   2.324   6.451  15.106  0.8980 -0.2182 -0.5124
15069TIP3   OH266621   4.956   4.239   1.288  0.7421 -0.2233  0.3593
15069TIP3    H166622   5.043   4.245   1.327  0.4581  0.1206  0.9554
15069TIP3    H266623   4.944   4.145   1.271  1.4981 -0.1997 -0.3735
15070TIP3   OH266624   1.982   3.820   1.443 -0.2093 -0.6654  0.1841
15070TIP3    H166625   1.992   3.734   1.402  1.9640 -0.3150 -0.1521
15070TIP3    H266626   2.066   3.864   1.427 -0.5660  0.8093  2.0067
15071TIP3   OH266627   6.569   6.496  11.354  0.6893  0.4177 -0.3600
15071TIP3    H166628   6.524   6.540  11.282 -0.6706  2.2760  1.4907
15071TIP3    H266629   6.502   6.488  11.422  2.1068 -0.6221  0.9823
15072TIP3   OH266630   6.564   0.096  12.942  0.2761  0.0571  0.1884
15072TIP3    H166631   6.548   0.006  12.913 -0.3258 -0.2394  1.3916
15072TIP3    H266632   6.640   0.090  12.999  0.1573  0.2957  0.3710
15073TIP3   OH266633   2.849   5.330  13.231  0.2356  0.1728  0.2370
15073TIP3    H166634   2.760   5.305  13.259  0.2968 -0.9227 -0.4895
15073TIP3    H266635   2.898   5.248  13.232  0.8334  0.5057 -0.8465
15074TIP3   OH266636   0.063   4.444  14.231 -0.3932  0.1554  0.3522
15074TIP3    H166637   0.055   4.362  14.182  0.5862  0.8286 -0.9889
15074TIP3    H266638   0.157   4.458  14.240 -0.4921  1.8871 -0.8174
15075TIP3   OH266639   0.947   6.049   5.711  0.8444 -0.4842 -0.5786
15075TIP3    H166640   0.985   6.111   5.649  0.7965  0.0657 -0.0584
15075TIP3    H266641   0.945   6.095   5.794 -0.9055 -0.5063 -0.5676
15076TIP3   OH266642   5.081   1.818  11.914 -0.3838 -0.3802  0.1078
15076TIP3    H166643   5.102   1.893  11.970 -2.5328 -1.1094  2.0323
15076TIP3    H266644   5.074   1.855  11.826  0.1727  1.3655  0.7542
15077TIP3   OH266645   3.259   0.757   1.107  0.4364 -0.2584 -0.0442
15077TIP3    H166646   3.272   0.830   1.168  0.9029 -1.6786  1.6412
15077TIP3    H266647   3.176   0.719   1.134  1.3435 -1.7881  0.7326
15078TIP3   OH266648   0.990   5.579   5.431 -0.1153 -0.2332 -0.6728
15078TIP3    H166649   0.970   5.662   5.474 -1.6105  0.4706 -2.6031
15078TIP3    H266650   0.941   5.513   5.480  0.5112  0.0948  0.4267
15079TIP3   OH266651   3.299   2.501   5.986  0.0958  0.0964 -0.0596
15079TIP3    H166652   3.392   2.480   5.989 -0.1179 -1.3839 -1.9149
15079TIP3    H266653   3.295   2.596   5.999  1.7240  0.0188  1.3642
15080TIP3   OH266654   5.939   0.603  14.527  0.0525 -0.1970 -0.2287
15080TIP3    H166655   6.020   0.632  14.570  0.2036 -0.7420 -0.1265
15080TIP3    H266656   5.936   0.651  14.445  0.5544 -0.2708 -0.2928
15081TIP3   OH266657   4.450   2.524  12.907  0.4951  0.4607  0.2554
15081TIP3    H166658   4.376   2.584  12.920 -0.2729 -0.8527  2.4768
15081TIP3    H266659   4.413   2.453  12.854  0.9335  1.0478 -0.8794
15082TIP3   OH266660   1.710   3.920   3.010  0.6958  0.3631 -0.0182
15082TIP3    H166661   1.736   3.865   3.084 -2.6042  1.3176  2.0772
15082TIP3    H266662   1.788   3.973   2.991  1.8313 -0.2564  2.4877
15083TIP3   OH266663   6.531   3.336  10.448  0.2595 -0.2001 -0.0343
15083TIP3    H166664   6.549   3.317  10.540  0.3691 -4.3485 -0.7442
15083TIP3    H266665   6.597   3.287  10.399  1.4994  3.4317 -2.4805
15084TIP3   OH266666   6.430   6.703  12.337 -0.8275  0.0691 -0.2374
15084TIP3    H166667   6.460   6.635  12.276 -0.6650 -0.0793  0.0063
15084TIP3    H266668   6.511   6.745  12.368 -0.9126  0.1647 -0.1451
15085TIP3   OH266669   6.787   1.224   2.645  0.0176 -0.4047 -0.1800
15085TIP3    H166670   6.723   1.277   2.598  0.4952  0.5038  0.1784
15085TIP3    H266671   6.865   1.227   2.591  0.4551  0.3412  0.4845
15086TIP3   OH266672   6.154   6.625  12.384  0.1789 -0.0318  0.0805
15086TIP3    H166673   6.238   6.669  12.378  0.3799 -0.1082  1.7618
15086TIP3    H266674   6.134   6.624  12.478 -0.9092 -1.4805 -0.1268
15087TIP3   OH266675   2.329   0.477  13.384  0.0883  0.5565  0.1797
15087TIP3    H166676   2.419   0.453  13.407  0.2187  0.4426 -0.4437
15087TIP3    H266677   2.338   0.556  13.331 -0.2571  1.2056  1.0647
15088TIP3   OH266678   1.067   2.926   0.914 -0.0785 -0.7188  0.0681
15088TIP3    H166679   1.013   2.978   0.855  0.6228 -1.0919 -0.9269
15088TIP3    H266680   1.156   2.961   0.903 -0.3428  1.6872  3.5951
15089TIP3   OH266681   4.754   2.854  14.113  0.1276 -0.3697  0.1381
15089TIP3    H166682   4.822   2.792  14.139  1.2774  0.8395  0.1690
15089TIP3    H266683   4.799   2.914  14.053 -0.7034  0.9051  0.7402
15090TIP3   OH266684   4.275   2.905  17.130  0.2300  0.2165  0.3900
15090TIP3    H166685   4.352   2.851  17.107 -0.8719 -0.9188 -0.7784
15090TIP3    H266686   4.281   2.981  17.073 -0.8122 -1.0897 -1.5847
15091TIP3   OH266687   5.204   4.845  15.162 -0.3288  0.6119 -0.0792
15091TIP3    H166688   5.228   4.801  15.244 -1.9442 -0.1217  0.0338
15091TIP3    H266689   5.137   4.909  15.188 -0.2373  0.9729 -0.7092
15092TIP3   OH266690   1.785   2.224   4.257  0.2866  0.1533 -0.2875
15092TIP3    H166691   1.728   2.254   4.186 -0.5814 -0.6174  0.0636
15092TIP3    H266692   1.819   2.140   4.226  0.7722  0.3355 -0.2501
15093TIP3   OH266693   6.081   4.870  14.802  0.3592  0.3124 -0.5233
15093TIP3    H166694   6.021   4.920  14.747 -0.2225 -0.1834 -0.3494
15093TIP3    H266695   6.167   4.883  14.762 -0.1975 -1.0424 -2.3196
15094TIP3   OH266696   5.328   2.309  11.587  0.4028 -0.0343  0.1438
15094TIP3    H166697   5.369   2.316  11.674 -1.6092  1.4115  1.0560
15094TIP3    H266698   5.245   2.263  11.603 -0.3142  0.8514 -0.8771
15095TIP3   OH266699   4.240   1.822  11.191  0.0137  0.2729  0.1542
15095TIP3    H166700   4.328   1.786  11.195 -0.2028 -0.2064  0.9543
15095TIP3    H266701   4.249   1.911  11.226 -0.0542 -0.2884  1.6698
15096TIP3   OH266702   1.235   2.367  17.223 -0.4949 -0.5268  0.7229
15096TIP3    H166703   1.168   2.303  17.246 -1.0554 -0.8398 -1.5625
15096TIP3    H266704   1.314   2.315  17.208 -0.7116 -0.5951 -0.2199
15097TIP3   OH266705   3.148   3.863  16.523 -0.0338  0.3777 -0.5770
15097TIP3    H166706   3.218   3.861  16.457  0.6665  0.6485  0.1318
15097TIP3    H266707   3.074   3.903  16.478  0.4891  0.7265 -1.1513
15098TIP3   OH266708   2.284   0.109   2.701  0.2498 -0.2389 -0.1351
15098TIP3    H166709   2.260   0.066   2.619  0.1101  2.3092 -1.5410
15098TIP3    H266710   2.219   0.178   2.711  2.2055  1.6492  0.2701
15099TIP3   OH266711   2.343   1.120   2.896 -0.5915 -0.4604 -0.1990
15099TIP3    H166712   2.375   1.207   2.873 -0.8147 -0.6686 -1.3600
15099TIP3    H266713   2.409   1.060   2.862 -1.0017 -0.7849 -0.4401
15100TIP3   OH266714   3.614   4.862  13.987  0.3073 -0.9170  0.0676
15100TIP3    H166715   3.634   4.917  14.063 -0.3418 -0.4973 -0.0524
15100TIP3    H266716   3.674   4.894  13.919 -0.3886 -0.0133 -0.1433
15101TIP3   OH266717   6.223   5.635  15.533 -0.3305 -0.0770 -0.7551
15101TIP3    H166718   6.193   5.648  15.623 -0.4938 -1.6041 -0.5498
15101TIP3    H266719   6.298   5.576  15.541  1.1535  1.6049 -1.4776
15102TIP3   OH266720   2.291   3.683  12.378 -0.0879  0.2351  0.2508
15102TIP3    H166721   2.357   3.737  12.334  0.8288 -0.7277  0.4079
15102TIP3    H266722   2.260   3.623  12.311  1.3448 -1.2636  0.8577
15103TIP3   OH266723   2.555   1.620   4.081 -0.1559 -0.9740 -0.0587
15103TIP3    H166724   2.545   1.713   4.059 -1.9761 -0.6790  1.7021
15103TIP3    H266725   2.519   1.573   4.006 -0.3392 -0.2219 -0.4486
15104TIP3   OH266726   6.436   0.777  11.537  0.1551 -0.4486  0.6784
15104TIP3    H166727   6.452   0.792  11.444  2.8001 -1.6591  0.8399
15104TIP3    H266728   6.346   0.744  11.541 -0.4429  0.7883 -1.2646
15105TIP3   OH266729   4.860   2.542   4.333  0.0993  0.7065 -0.2084
15105TIP3    H166730   4.955   2.549   4.324  0.5257 -1.0410  2.0410
15105TIP3    H266731   4.845   2.454   4.366 -2.3217  1.0083 -0.3007
15106TIP3   OH266732   6.581   2.806  13.414 -0.5486 -0.3036  0.2283
15106TIP3    H166733   6.621   2.808  13.501 -0.8855  0.9526  0.3821
15106TIP3    H266734   6.628   2.738  13.367  0.0345 -0.6004  1.2100
15107TIP3   OH266735   3.963   5.528  11.389  0.4733 -0.2084  0.0244
15107TIP3    H166736   3.990   5.571  11.309 -0.4475 -0.2399 -0.3127
15107TIP3    H266737   3.938   5.599  11.448 -0.2663 -0.2425 -0.2440
15108TIP3   OH266738   2.296   2.758   2.151 -0.0484 -0.6827 -0.2111
15108TIP3    H166739   2.321   2.781   2.062 -1.6838 -1.2656 -0.8621
15108TIP3    H266740   2.201   2.746   2.147 -0.3511  0.4992  1.8936
15109TIP3   OH266741   0.585   6.587  16.685  0.0969 -0.1937 -0.3064
15109TIP3    H166742   0.656   6.642  16.653  1.1856 -0.9263  0.7645
15109TIP3    H266743   0.621   6.543  16.762 -2.4913  1.7512  2.2396
15110TIP3   OH266744   0.234   2.620  14.120 -0.0259 -0.0225 -0.0193
15110TIP3    H166745   0.315   2.569  14.119  0.5771  0.9465 -0.6591
15110TIP3    H266746   0.252   2.693  14.179 -0.9261 -0.5690  0.9767
15111TIP3   OH266747   5.246   6.044   1.551 -0.0111  0.0750 -0.3109
15111TIP3    H166748   5.269   6.014   1.463 -1.4029  2.4894 -1.5801
15111TIP3    H266749   5.315   6.106   1.574 -0.3614  0.4471 -0.2609
15112TIP3   OH266750   3.657   5.405   5.192  0.6295  0.1683 -0.0666
15112TIP3    H166751   3.712   5.473   5.155  0.9620  0.0433  0.1898
15112TIP3    H266752   3.613   5.365   5.117 -2.4786  3.0984 -0.0207
15113TIP3   OH266753   2.523   3.542  12.113 -0.2297  0.2072  0.1927
15113TIP3    H166754   2.552   3.621  12.067  2.1823 -1.1152 -0.7174
15113TIP3    H266755   2.579   3.538  12.190  0.3782 -1.1068 -0.2951
15114TIP3   OH266756   0.078   5.010  11.139 -0.3329 -0.0713 -0.0354
15114TIP3    H166757   0.061   5.052  11.223  1.3196  0.8548 -0.1319
15114TIP3    H266758   0.170   5.028  11.121 -0.6512 -0.2251 -2.0646
15115TIP3   OH266759   0.936   3.588   6.086  0.4475  0.0399  0.1486
15115TIP3    H166760   0.983   3.531   6.147 -0.8921  0.9433  2.1369
15115TIP3    H266761   0.875   3.530   6.040  0.8154 -0.5095  0.3508
15116TIP3   OH266762   6.444   6.185  11.175  0.1160  0.3419 -0.6904
15116TIP3    H166763   6.521   6.153  11.222 -0.5651 -2.2887 -1.1794
15116TIP3    H266764   6.480   6.224  11.094  0.9942  0.6190 -0.1840
15117TIP3   OH266765   2.939   5.179   3.884  0.2938 -0.7686  0.4601
15117TIP3    H166766   3.020   5.210   3.844 -1.6319  2.4742 -1.4230
15117TIP3    H266767   2.886   5.148   3.810 -0.9655 -0.7287  1.3138
15118TIP3   OH266768   4.900   3.856   4.966  0.2982  0.6616 -0.5875
15118TIP3    H166769   4.933   3.891   4.883  0.4926  1.6254 -0.1211
15118TIP3    H266770   4.818   3.902   4.981 -1.2118 -1.5413 -1.6070
15119TIP3   OH266771   5.252   2.147   2.518 -0.0377 -0.7216 -0.2234
15119TIP3    H166772   5.187   2.142   2.447 -0.1998  1.7084 -0.3094
15119TIP3    H266773   5.204   2.183   2.592  0.8721 -0.3340  0.1842
15120TIP3   OH266774   0.640   3.148  10.707  0.0245  0.0684  0.2767
15120TIP3    H166775   0.612   3.086  10.640 -0.3533 -0.4125  0.8688
15120TIP3    H266776   0.735   3.140  10.709 -0.0079 -0.3535  0.2112
15121TIP3   OH266777   4.338   1.536  12.128 -0.5528  0.0185  0.2786
15121TIP3    H166778   4.338   1.593  12.204 -1.3656 -1.4193  1.4098
15121TIP3    H266779   4.419   1.486  12.134 -0.9232 -0.5594  0.5864
15122TIP3   OH266780   2.437   1.697   5.110 -0.0544  0.3229 -0.3554
15122TIP3    H166781   2.531   1.698   5.091  0.0623  1.4570  0.2161
15122TIP3    H266782   2.411   1.789   5.112 -1.4595  0.0015 -1.7495
15123TIP3   OH266783   1.340   4.183  10.913 -0.1176 -0.0151 -0.4490
15123TIP3    H166784   1.391   4.240  10.971  0.9426 -1.8749  0.5562
15123TIP3    H266785   1.399   4.110  10.894 -1.3074 -0.6506 -1.9553
15124TIP3   OH266786   3.265   4.611   4.098 -0.3252  0.1301  0.0748
15124TIP3    H166787   3.181   4.586   4.137 -1.1326  0.9994 -1.0364
15124TIP3    H266788   3.305   4.670   4.162 -1.5074  1.3284 -0.2502
15125TIP3   OH266789   5.872   4.337  16.096  0.1641 -0.0728 -0.2881
15125TIP3    H166790   5.866   4.332  16.001  1.0839 -0.6826 -0.3301
15125TIP3    H266791   5.957   4.378  16.113  0.5082 -0.9638  0.2559
15126TIP3   OH266792   1.031   3.534   2.662  0.7127 -0.2611  0.1265
15126TIP3    H166793   0.941   3.502   2.659  0.7591 -0.3779 -0.0752
15126TIP3    H266794   1.053   3.537   2.755  0.9170 -1.4228  0.1272
15127TIP3   OH266795   0.118   5.175  16.966  0.4356 -0.2460 -0.0977
15127TIP3    H166796   0.203   5.210  16.940  0.9347  0.3270  2.0497
15127TIP3    H266797   0.115   5.087  16.929  2.3659 -0.6017  0.4788
15128TIP3   OH266798   1.701   6.727   0.506  0.1631  0.1900 -0.1168
15128TIP3    H166799   1.764   6.732   0.578 -0.0379  1.1441 -0.0008
15128TIP3    H266800   1.733   6.654   0.452 -0.2331 -1.2010  1.4346
15129TIP3   OH266801   1.757   0.411  16.333  0.8374  0.0759 -0.2700
15129TIP3    H166802   1.743   0.445  16.421 -0.5726  0.7116 -0.7052
15129TIP3    H266803   1.836   0.456  16.302  2.0764 -1.0735  1.0755
15130TIP3   OH266804   5.298   1.429  10.523 -0.2376  0.1245 -0.1973
15130TIP3    H166805   5.380   1.386  10.544 -0.6360 -0.7604 -0.4117
15130TIP3    H266806   5.322   1.497  10.460  0.3407 -0.0270 -0.1450
15131TIP3   OH266807   4.037   0.457   0.725 -0.2845  0.4067 -0.3528
15131TIP3    H166808   4.076   0.545   0.725 -1.5348  0.9844 -0.1018
15131TIP3    H266809   3.955   0.468   0.678 -1.5635 -0.1064  1.6705
15132TIP3   OH266810   1.217   2.257  14.896  0.0216  0.1045 -0.4309
15132TIP3    H166811   1.288   2.316  14.871  0.8227 -1.1502 -1.2479
15132TIP3    H266812   1.153   2.313  14.940  1.5465  1.2714  0.3971
15133TIP3   OH266813   4.951   6.304  10.818 -0.0316  0.9811  0.2222
15133TIP3    H166814   5.029   6.249  10.808 -2.1008 -2.3716  0.8128
15133TIP3    H266815   4.937   6.342  10.731  1.3357  0.2644 -0.3449
15134TIP3   OH266816   2.906   0.704  13.645  0.6188  0.1088 -0.1740
15134TIP3    H166817   2.899   0.633  13.581  0.1372 -0.0579  0.0588
15134TIP3    H266818   2.996   0.701  13.675  0.1410 -1.6553  1.2598
15135TIP3   OH266819   1.010   0.568  14.445 -0.0271  0.0405 -0.0572
15135TIP3    H166820   0.984   0.584  14.535  0.5343 -1.1002  0.3308
15135TIP3    H266821   0.973   0.482  14.425 -1.4035  0.8969 -1.4236
15136TIP3   OH266822   5.636   1.426  17.187  0.1224 -0.0347 -0.3157
15136TIP3    H166823   5.694   1.392  17.256  0.3576 -1.3117 -1.1158
15136TIP3    H266824   5.590   1.349  17.154 -2.4843  1.0010  0.6370
15137TIP3   OH266825   1.884   4.346   3.110 -0.2613  0.5591 -0.3324
15137TIP3    H166826   1.927   4.287   3.049 -1.5636 -2.4325  1.3819
15137TIP3    H266827   1.955   4.387   3.159  0.6977  0.6074 -1.7078
15138TIP3   OH266828   3.153   3.477  16.038  0.1041 -1.0095  0.0559
15138TIP3    H166829   3.159   3.571  16.023  1.0707 -0.8209  1.4703
15138TIP3    H266830   3.064   3.454  16.011  0.0719  0.1704 -0.9283
15139TIP3   OH266831   5.437   6.209   1.667 -0.3517  0.2066  0.4401
15139TIP3    H166832   5.499   6.254   1.610  2.0134 -1.6861  1.2949
15139TIP3    H266833   5.405   6.277   1.726  5.5332  0.7157  3.8721
15140TIP3   OH266834   1.325   2.769   5.496  0.1150 -0.1965 -0.1016
15140TIP3    H166835   1.383   2.834   5.536  1.5298 -1.9243  0.8043
15140TIP3    H266836   1.356   2.761   5.406  0.6799 -0.4090  0.1067
15141TIP3   OH266837   2.035   3.983   2.734  0.1902  0.1088  0.3949
15141TIP3    H166838   2.000   3.956   2.819  0.2616 -0.9678  0.0894
15141TIP3    H266839   2.120   4.021   2.754  0.7596 -1.2734  0.6908
15142TIP3   OH266840   6.256   3.888  14.867  0.4664  1.0409  0.4981
15142TIP3    H166841   6.349   3.888  14.890  1.3031  0.9045 -2.4162
15142TIP3    H266842   6.242   3.802  14.828 -1.7750 -0.1913  3.5965
15143TIP3   OH266843   4.592   2.475   5.250 -0.1821  0.1153 -0.1269
15143TIP3    H166844   4.645   2.528   5.191 -0.4352 -0.7332 -1.1484
15143TIP3    H266845   4.608   2.385   5.222 -3.1372 -0.1279 -1.3458
15144TIP3   OH266846   4.867   5.804   2.412 -0.4926  0.1874  0.5198
15144TIP3    H166847   4.908   5.734   2.361 -0.1337  2.1815 -2.1881
15144TIP3    H266848   4.937   5.868   2.424 -1.5816  1.4942  0.0706
15145TIP3   OH266849   4.541   3.008   0.427 -0.1674  0.4899  0.1814
15145TIP3    H166850   4.540   2.974   0.337 -0.4022 -1.9391  1.0110
15145TIP3    H266851   4.574   3.097   0.419  0.0204  0.2674 -2.2853
15146TIP3   OH266852   5.578   3.321  14.544  0.0021 -0.0098  0.5386
15146TIP3    H166853   5.614   3.310  14.456  1.0088 -0.4214  0.9839
15146TIP3    H266854   5.581   3.233  14.582  1.9979  0.5611  1.8661
15147TIP3   OH266855   1.513   5.028  11.961 -0.4505  0.2316 -0.4808
15147TIP3    H166856   1.520   4.957  12.025 -0.4636  1.1613  0.5809
15147TIP3    H266857   1.421   5.026  11.933 -0.8435  0.7633  0.6897
15148TIP3   OH266858   5.022   4.966  11.716 -0.1968 -0.2775 -0.2534
15148TIP3    H166859   5.036   4.879  11.677 -0.2670 -0.2882 -0.2537
15148TIP3    H266860   4.952   5.005  11.664  1.0100  0.4738 -1.3819
15149TIP3   OH266861   1.322   0.031  11.587 -0.3239 -0.1777 -0.9144
15149TIP3    H166862   1.351   0.115  11.623  0.0739  0.2594 -2.1938
15149TIP3    H266863   1.379  -0.034  11.628 -1.0530  0.0734  0.5731
15150TIP3   OH266864   5.714   5.918  13.082 -0.3924 -0.5465 -0.8992
15150TIP3    H166865   5.754   5.854  13.141 -1.5723  0.2670  0.8638
15150TIP3    H266866   5.789   5.959  13.038  0.8744  1.0600  2.4319
15151TIP3   OH266867   3.775   2.179   6.120 -0.0480  0.4371 -0.1908
15151TIP3    H166868   3.756   2.117   6.191  0.7104 -1.3793 -1.4837
15151TIP3    H266869   3.866   2.204   6.133  0.3651 -0.5681 -0.9333
15152TIP3   OH266870   1.873   0.182   2.896 -0.2035  0.1295 -0.8271
15152TIP3    H166871   1.960   0.216   2.876  0.0381 -0.3658 -0.6140
15152TIP3    H266872   1.859   0.203   2.988  0.2948 -1.0901 -0.4601
15153TIP3   OH266873   2.039   1.511   4.508  0.0722  0.8924  0.1458
15153TIP3    H166874   1.958   1.559   4.520 -0.8808 -0.8160  0.7861
15153TIP3    H266875   2.052   1.462   4.589  2.0145  1.4681  0.2560
15154TIP3   OH266876   1.133   3.192   0.449 -0.2292 -0.1125  0.3319
15154TIP3    H166877   1.118   3.281   0.416 -1.2029 -0.4758 -0.2549
15154TIP3    H266878   1.070   3.138   0.401  0.6825 -1.2000  0.3293
15155TIP3   OH266879   5.681   6.446   2.489  0.8953  0.0276  0.0917
15155TIP3    H166880   5.737   6.372   2.509  0.5553 -0.4012 -0.5116
15155TIP3    H266881   5.739   6.522   2.490  1.7733 -0.5553 -1.7759
15156TIP3   OH266882   5.105   6.446   2.027 -0.2125 -0.0389  0.4145
15156TIP3    H166883   5.030   6.398   1.992  1.0536 -1.7960 -0.0213
15156TIP3    H266884   5.158   6.380   2.071  1.6539  0.9292 -0.2534
15157TIP3   OH266885   4.393   6.274  16.714 -0.1633  0.0420  0.0230
15157TIP3    H166886   4.341   6.317  16.782 -2.3237 -0.4183 -1.2203
15157TIP3    H266887   4.402   6.184  16.745  0.0109  0.1587  0.3133
15158TIP3   OH266888   1.347   5.400  13.638 -0.4954 -0.4065 -0.3642
15158TIP3    H166889   1.435   5.366  13.626  0.0027 -0.9354  3.4649
15158TIP3    H266890   1.354   5.493  13.615  1.1983 -0.3444  0.2811
15159TIP3   OH266891   6.456   4.698   3.467  0.6262 -0.1121 -0.4022
15159TIP3    H166892   6.362   4.690   3.477  0.6152 -0.8570 -0.9794
15159TIP3    H266893   6.468   4.732   3.378  0.9109 -0.4998 -0.5158
15160TIP3   OH266894   2.954   3.057   0.564  0.5585  0.2711  0.0645
15160TIP3    H166895   3.001   3.096   0.490  1.6771  1.2671  1.2526
15160TIP3    H266896   2.874   3.109   0.573  0.8778  0.7466  0.1389
15161TIP3   OH266897   3.906   2.241   2.402  0.5268 -0.1846 -0.3356
15161TIP3    H166898   3.902   2.312   2.467  0.3169 -1.5060  1.1655
15161TIP3    H266899   3.884   2.162   2.452  0.4571 -1.2755 -2.0198
15162TIP3   OH266900   3.676   3.393   3.475  1.0733  0.0377 -0.0731
15162TIP3    H166901   3.581   3.395   3.486  0.7290 -0.4333 -2.4481
15162TIP3    H266902   3.708   3.458   3.537 -0.8680  0.8858  0.1243
15163TIP3   OH266903   6.330   6.339  13.256 -0.6262  0.0046  0.1514
15163TIP3    H166904   6.406   6.323  13.313 -0.6495 -1.1500 -0.1291
15163TIP3    H266905   6.255   6.315  13.309 -0.6069 -1.7669 -0.5867
15164TIP3   OH266906   4.724   1.577  16.246  0.3750  0.0573  0.0346
15164TIP3    H166907   4.686   1.621  16.170 -1.9770 -0.8212  0.6184
15164TIP3    H266908   4.750   1.491  16.212  0.7467  0.2220 -0.1032
15165TIP3   OH266909   5.564   2.574  15.674 -0.2327 -0.1927 -0.1605
15165TIP3    H166910   5.604   2.647  15.627  0.1095 -0.1421  0.2022
15165TIP3    H266911   5.638   2.520  15.702 -0.3987  0.0224  0.7173
15166TIP3   OH266912   1.600   4.678   5.602  0.0781  0.2185  0.0172
15166TIP3    H166913   1.651   4.611   5.648 -0.1045  0.1793  0.1650
15166TIP3    H266914   1.569   4.633   5.524  0.4406  0.3039 -0.1778
15167TIP3   OH266915   4.566   5.854   3.243 -0.0809  0.3471 -0.5283
15167TIP3    H166916   4.578   5.807   3.325 -1.9901  0.2856 -0.2379
15167TIP3    H266917   4.649   5.900   3.229 -0.1825  1.5747  2.2372
15168TIP3   OH266918   1.548   3.025   0.764 -0.3692  1.0391 -0.1007
15168TIP3    H166919   1.543   2.985   0.678  0.5943 -0.9177  0.6750
15168TIP3    H266920   1.597   3.106   0.751  1.1982 -0.0271 -1.1720
15169TIP3   OH266921   6.506   6.168  14.876 -0.4182 -0.3165  0.1716
15169TIP3    H166922   6.601   6.180  14.883 -0.5143  0.4271  0.2427
15169TIP3    H266923   6.470   6.213  14.952 -0.9569  1.1549 -0.8964
15170TIP3   OH266924   1.249   1.800   3.308 -0.6493 -0.0397  0.0804
15170TIP3    H166925   1.314   1.838   3.250 -0.9947 -1.3826 -1.2486
15170TIP3    H266926   1.171   1.791   3.254 -1.4197 -0.0448  1.1561
15171TIP3   OH266927   4.909   3.136  15.001  0.9225  0.4705  0.1763
15171TIP3    H166928   4.909   3.230  15.020 -0.5045  0.5051  0.0961
15171TIP3    H266929   4.985   3.102  15.049 -0.4976  1.1270  3.1288
15172TIP3   OH266930   6.176   4.001  11.890  0.0777  0.3966 -0.2379
15172TIP3    H166931   6.114   3.933  11.863  0.3660 -0.4111  1.0223
15172TIP3    H266932   6.261   3.969  11.859 -0.0509  1.3340 -1.6574
15173TIP3   OH266933   4.397   1.482  16.514 -0.0572  0.0151 -0.3452
15173TIP3    H166934   4.352   1.468  16.598  0.6921  0.3762  0.1241
15173TIP3    H266935   4.408   1.393  16.479  2.3253 -0.4876  1.3931
15174TIP3   OH266936   3.431   3.313   0.042 -0.0530  0.5306  0.2321
15174TIP3    H166937   3.510   3.336  -0.007  1.3170 -2.1023  1.0259
15174TIP3    H266938   3.392   3.397   0.066  1.7105  1.9052 -1.4043
15175TIP3   OH266939   3.139   6.326   5.458  0.6839  0.5229  0.2552
15175TIP3    H166940   3.150   6.398   5.519  0.0136  1.9168 -1.1994
15175TIP3    H266941   3.072   6.355   5.397  0.0542 -1.5321 -0.1265
15176TIP3   OH266942   1.912   4.078  16.987  0.0880  0.1478 -0.4363
15176TIP3    H166943   1.898   4.155  16.932 -0.1040  1.6292  1.5817
15176TIP3    H266944   2.004   4.055  16.974  0.1770  0.7891 -0.9902
15177TIP3   OH266945   0.371   6.605   3.011  0.5292  0.3055  0.5436
15177TIP3    H166946   0.316   6.532   3.038 -0.0616  0.8316  0.7956
15177TIP3    H266947   0.434   6.567   2.950 -1.9259  0.1537 -2.1195
15178TIP3   OH266948   5.834   5.784  13.279  0.0433 -0.3815 -0.3564
15178TIP3    H166949   5.916   5.768  13.232 -0.8991 -0.3692 -2.0759
15178TIP3    H266950   5.861   5.828  13.359  1.7760 -1.0632 -0.5238
15179TIP3   OH266951   5.777   0.747  15.485  0.1178 -0.3330  0.5129
15179TIP3    H166952   5.789   0.787  15.399 -1.5036 -0.1488  0.3348
15179TIP3    H266953   5.735   0.816  15.537  1.5674 -0.2462  1.6546
15180TIP3   OH266954   0.491   2.593   4.351 -0.3681 -0.0306  0.0683
15180TIP3    H166955   0.566   2.643   4.321 -0.8864 -0.4382 -2.0389
15180TIP3    H266956   0.517   2.502   4.344 -0.1331 -0.1593  1.9920
15181TIP3   OH266957   4.664   2.811  13.662  0.1931 -0.3011 -0.2024
15181TIP3    H166958   4.745   2.813  13.610  1.2185 -1.3183  1.2500
15181TIP3    H266959   4.683   2.865  13.739 -0.7480 -0.0224 -0.1557
15182TIP3   OH266960   2.067   0.423  14.522 -0.4681  0.1294 -0.5097
15182TIP3    H166961   2.135   0.488  14.506  0.0255 -0.8988 -2.9595
15182TIP3    H266962   2.107   0.360  14.582  0.6750 -0.3231 -1.7251
15183TIP3   OH266963   5.389   5.035  12.957 -0.2992 -0.5393 -0.1463
15183TIP3    H166964   5.369   5.100  13.024 -1.5446 -1.9579  0.9457
15183TIP3    H266965   5.474   5.060  12.922 -0.5154  1.3383  0.6044
15184TIP3   OH266966   1.332   6.708   5.867 -0.2685 -0.5708  0.5897
15184TIP3    H166967   1.267   6.719   5.798 -1.0354 -2.4224  0.9476
15184TIP3    H266968   1.416   6.707   5.821 -0.5774  0.6138 -0.0185
15185TIP3   OH266969   6.461   3.778  11.577 -0.3018  0.1401  0.0183
15185TIP3    H166970   6.514   3.801  11.500 -1.6771 -1.2897 -1.4387
15185TIP3    H266971   6.484   3.687  11.595 -1.8589 -0.3550 -0.3472
15186TIP3   OH266972   6.503   3.773   2.645  0.0670  0.1478  0.2085
15186TIP3    H166973   6.422   3.725   2.663 -0.0072  0.0738 -0.3164
15186TIP3    H266974   6.549   3.720   2.580  1.4363 -0.7771  1.8671
15187TIP3   OH266975   4.435   4.923   0.022 -0.5386 -0.0549  0.2106
15187TIP3    H166976   4.381   4.998   0.044  1.2674  1.0582  1.0957
15187TIP3    H266977   4.461   4.938  -0.069 -1.6446 -0.5958 -0.2189
15188TIP3   OH266978   1.170   1.441  11.236 -0.7221  0.4560 -0.3683
15188TIP3    H166979   1.232   1.397  11.179 -1.9007  0.0843 -1.4090
15188TIP3    H266980   1.126   1.505  11.180  0.2990  2.3669  0.8928
15189TIP3   OH266981   1.955   1.766   4.818 -0.3076  0.0510  0.0480
15189TIP3    H166982   1.914   1.697   4.766 -0.2008 -1.4804  1.8759
15189TIP3    H266983   1.882   1.810   4.861 -0.2518 -0.4846  0.7047
15190TIP3   OH266984   5.591   5.988  14.887  0.1782  0.1201 -0.1156
15190TIP3    H166985   5.579   5.909  14.835  0.9585 -0.4822  0.5956
15190TIP3    H266986   5.679   6.018  14.867 -0.1180  0.8341 -0.3952
15191TIP3   OH266987   0.298   6.208   4.635  0.6182 -0.7636  0.0144
15191TIP3    H166988   0.323   6.218   4.726  0.7355  1.6370 -0.2143
15191TIP3    H266989   0.224   6.269   4.623  0.1379 -1.5589 -1.3097
15192TIP3   OH266990   0.379   1.633  16.982 -0.3726  0.2312 -0.2179
15192TIP3    H166991   0.372   1.559  16.922  0.3023 -0.0328  0.0155
15192TIP3    H266992   0.461   1.618  17.029 -0.6759  0.6590  0.4680
15193TIP3   OH266993   4.339   3.970   6.724  0.1879 -0.2838  0.0521
15193TIP3    H166994   4.425   3.930   6.734 -1.2732 -3.3211  2.2265
15193TIP3    H266995   4.317   3.955   6.632  1.3151 -0.9704 -0.1272
15194TIP3   OH266996   3.844   4.418   0.447  0.2847  0.5441 -0.0051
15194TIP3    H166997   3.831   4.467   0.366  1.9879  0.1873 -0.5489
15194TIP3    H266998   3.788   4.461   0.511 -0.3318  1.4656 -1.1328
15195TIP3   OH266999   4.562   4.417   1.496 -0.0729  0.6132 -0.1430
15195TIP3    H167000   4.652   4.443   1.477 -0.4907  2.3695  0.1433
15195TIP3    H267001   4.510   4.496   1.482 -1.5990 -0.3917 -0.3949
15196TIP3   OH267002   1.855   3.182   2.853 -0.2027  0.4818 -0.1109
15196TIP3    H167003   1.814   3.116   2.798  0.3850  1.4608 -1.7849
15196TIP3    H267004   1.925   3.135   2.899 -0.7074 -0.3587 -0.1925
15197TIP3   OH267005   4.628   2.067   5.459 -0.0882  0.3126 -0.1106
15197TIP3    H167006   4.712   2.106   5.437 -0.2423  1.2602  0.9009
15197TIP3    H267007   4.633   2.049   5.553 -0.4067 -1.2000 -0.3529
15198TIP3   OH267008   4.258   2.411  15.550 -0.5521  0.1753 -0.3277
15198TIP3    H167009   4.227   2.469  15.620 -0.1686 -0.0053  0.0030
15198TIP3    H267010   4.341   2.377  15.584  0.0856  0.7627 -1.2393
15199TIP3   OH267011   5.757   2.115  16.917  0.2487  0.5017 -0.2047
15199TIP3    H167012   5.760   2.031  16.964 -0.2339  0.0952 -0.8808
15199TIP3    H267013   5.686   2.163  16.961 -0.7021 -0.1662 -0.9561
15200TIP3   OH267014   4.528   2.698  14.091  0.7008  0.7740  0.7205
15200TIP3    H167015   4.593   2.769  14.089  2.5665 -0.8329 -0.8624
15200TIP3    H267016   4.581   2.619  14.097 -1.1393 -0.6193 -0.5963
15201TIP3   OH267017   3.458   4.777  16.618  0.6441  0.1199 -0.2714
15201TIP3    H167018   3.382   4.721  16.606 -0.3286  0.9811  1.4343
15201TIP3    H267019   3.523   4.721  16.662 -0.2945  0.2390  1.3636
15202TIP3   OH267020   4.782   3.839  15.624 -0.5433  0.3267 -0.2066
15202TIP3    H167021   4.749   3.752  15.645  0.6830 -0.3042 -0.8242
15202TIP3    H267022   4.867   3.844  15.668 -1.1912  1.7558  0.9979
15203TIP3   OH267023   6.427   4.817   1.109  0.3461 -0.1287 -0.1414
15203TIP3    H167024   6.386   4.846   1.028  1.2053  1.0000 -0.2132
15203TIP3    H267025   6.520   4.810   1.087  0.3228 -1.8306  0.2188
15204TIP3   OH267026   3.581   2.042   5.140 -0.1325 -0.1382 -0.3245
15204TIP3    H167027   3.526   2.049   5.218  0.3289 -2.8665  0.3535
15204TIP3    H267028   3.612   1.952   5.141  1.7321  0.3955 -2.4676
15205TIP3   OH267029   2.394   2.199   1.565  0.3572  0.1962 -0.0182
15205TIP3    H167030   2.300   2.211   1.579  0.6194  0.7865  1.4642
15205TIP3    H267031   2.433   2.219   1.650  1.7258 -1.2382 -0.2706
15206TIP3   OH267032   0.796   4.265  16.146 -0.6647  0.0479 -0.4554
15206TIP3    H167033   0.883   4.249  16.182 -0.3899 -1.8334 -1.8610
15206TIP3    H267034   0.811   4.307  16.062 -1.1606  0.3146 -0.4204
15207TIP3   OH267035   1.389   4.519  15.730  0.1677 -0.3616 -0.1458
15207TIP3    H167036   1.388   4.591  15.667  1.5672  0.7878  1.0699
15207TIP3    H267037   1.397   4.562  15.815 -1.4865 -1.8743  0.8417
15208TIP3   OH267038   1.313   5.635   6.122  0.5011 -0.1099 -0.5448
15208TIP3    H167039   1.367   5.703   6.162  0.4007  0.3057 -1.0995
15208TIP3    H267040   1.289   5.671   6.037  0.4857 -0.8634 -0.8668
15209TIP3   OH267041   5.555   2.255  17.075  0.3261  0.4405 -1.0364
15209TIP3    H167042   5.591   2.334  17.033 -0.6550 -0.0828 -3.0203
15209TIP3    H267043   5.513   2.287  17.155  1.3849  1.6727 -0.9404
15210TIP3   OH267044   1.443   3.166  12.161 -0.0552  0.2287  0.0732
15210TIP3    H167045   1.348   3.177  12.154 -0.2998  0.2309  2.5021
15210TIP3    H267046   1.462   3.176  12.254  2.0798 -1.7418 -0.0371
15211TIP3   OH267047   6.512   2.473   6.046  0.6495 -0.7707  0.1699
15211TIP3    H167048   6.454   2.547   6.029  1.0536 -0.4659  0.0753
15211TIP3    H267049   6.457   2.396   6.035  0.9001 -0.6447 -2.8820
15212TIP3   OH267050   3.880   5.370  15.666 -0.3115  0.4990 -0.2235
15212TIP3    H167051   3.963   5.349  15.708 -1.3352 -0.2712  1.5064
15212TIP3    H267052   3.891   5.459  15.633  1.1725  0.4116 -0.0175
15213TIP3   OH267053   1.730   3.223   0.750  0.3080  0.3006 -0.3746
15213TIP3    H167054   1.792   3.295   0.747  1.0130 -0.2822 -0.1146
15213TIP3    H267055   1.781   3.148   0.781 -0.8411  0.1454  1.2488
15214TIP3   OH267056   6.464   0.190   1.664  0.1890  0.1440 -0.0863
15214TIP3    H167057   6.403   0.263   1.660 -1.9866 -1.4828  1.1935
15214TIP3    H267058   6.551   0.231   1.674 -0.8838  2.5092  0.1925
15215TIP3   OH267059   4.227   3.257   1.568 -0.3576  0.8032  0.3242
15215TIP3    H167060   4.213   3.169   1.603  1.6460  0.5423  0.6119
15215TIP3    H267061   4.235   3.313   1.645 -0.3356  1.0122  0.1711
15216TIP3   OH267062   6.420   3.939   3.390  0.2392 -0.8370 -0.3834
15216TIP3    H167063   6.485   3.932   3.460 -0.1695 -2.1091 -0.1032
15216TIP3    H267064   6.348   3.884   3.419 -1.1461  0.8428 -0.5209
15217TIP3   OH267065   5.939   0.794   4.297 -0.2228  0.1314  0.0223
15217TIP3    H167066   5.912   0.869   4.350 -0.0643  1.9845 -2.3189
15217TIP3    H267067   5.863   0.736   4.297  0.6549 -1.4174  4.3709
15218TIP3   OH267068   3.787   0.545  10.692 -0.0633  0.5786 -0.5464
15218TIP3    H167069   3.809   0.636  10.674  1.1175  0.3908 -0.1480
15218TIP3    H267070   3.815   0.531  10.782 -0.5770 -0.0853 -0.4763
15219TIP3   OH267071   2.073   1.468  12.248 -1.1132 -0.4226  0.1192
15219TIP3    H167072   2.123   1.534  12.201 -0.1641 -1.8776 -1.0216
15219TIP3    H267073   1.993   1.512  12.274 -0.4006  1.2370 -0.3589
15220TIP3   OH267074   6.017   5.582   4.866  0.1536  0.2012  0.2776
15220TIP3    H167075   6.016   5.487   4.878  0.5546  0.2280  0.5462
15220TIP3    H267076   6.025   5.594   4.772 -0.1975 -0.0270  0.2139
15221TIP3   OH267077   1.410   3.393  13.335 -0.0532  0.1912 -0.6392
15221TIP3    H167078   1.405   3.474  13.385  0.0446 -0.5077  0.5353
15221TIP3    H267079   1.432   3.326  13.399 -0.5766 -0.8502 -1.5088
15222TIP3   OH267080   5.322   1.528   1.962  0.1697  0.1700 -0.7635
15222TIP3    H167081   5.375   1.585   2.017  2.1892 -1.5612 -0.7880
15222TIP3    H267082   5.385   1.481   1.908 -1.4085 -1.8163 -1.0187
15223TIP3   OH267083   3.392   1.400   4.255 -0.1238  0.6218 -0.5715
15223TIP3    H167084   3.367   1.360   4.338  0.0438  0.9864 -0.3446
15223TIP3    H267085   3.449   1.335   4.213  0.5133  0.8050 -0.0034
15224TIP3   OH267086   1.083   4.926   0.597 -0.3353 -0.0681 -0.1632
15224TIP3    H167087   1.120   4.840   0.574  0.1317  0.0149  0.2529
15224TIP3    H267088   1.066   4.920   0.691 -1.3824 -0.0952 -0.3468
15225TIP3   OH267089   6.658   3.075  12.504  0.3223  0.4616  0.4180
15225TIP3    H167090   6.652   3.106  12.413  1.7981 -1.3946 -0.3880
15225TIP3    H267091   6.582   3.018  12.514 -0.2757  1.2833  0.6252
15226TIP3   OH267092   0.286   6.745   3.667 -0.5653  0.5894 -0.0180
15226TIP3    H167093   0.256   6.809   3.731 -0.7145  1.2667 -0.7499
15226TIP3    H267094   0.225   6.754   3.593  1.4110  2.0684 -1.5784
15227TIP3   OH267095   2.950   2.942  10.953  0.1768  0.1807  0.1339
15227TIP3    H167096   3.043   2.935  10.931 -0.3730  0.4819 -2.5970
15227TIP3    H267097   2.922   3.025  10.915 -1.3345 -0.1364  0.4885
15228TIP3   OH267098   6.309   4.332  12.224  0.4121 -0.0813  0.1671
15228TIP3    H167099   6.383   4.302  12.277  0.3897 -0.2866  0.0838
15228TIP3    H267100   6.339   4.414  12.185  0.4075  0.1012  0.5439
15229TIP3   OH267101   0.277   3.022   0.513 -0.0142  0.0285  0.1166
15229TIP3    H167102   0.252   3.114   0.524  1.0186  0.1923  1.3407
15229TIP3    H267103   0.372   3.022   0.522 -0.0385 -1.2072  0.5142
15230TIP3   OH267104   0.861   6.599   0.448 -0.2043  0.9224 -0.5110
15230TIP3    H167105   0.823   6.648   0.374 -0.5740  0.4203 -0.6562
15230TIP3    H267106   0.848   6.507   0.425 -2.5889  0.7147  1.3091
15231TIP3   OH267107   6.332   4.711   6.487 -0.2204 -0.0242  0.5859
15231TIP3    H167108   6.385   4.660   6.425  0.7039  1.5922 -0.0452
15231TIP3    H267109   6.325   4.798   6.445 -1.1509  0.5618  1.9076
15232TIP3   OH267110   0.482   6.592  13.494  0.8235 -0.3919  0.5527
15232TIP3    H167111   0.430   6.590  13.574  1.3105  0.2678  0.8942
15232TIP3    H267112   0.427   6.639  13.431  0.6616 -0.4318  0.6630
15233TIP3   OH267113   3.482   3.855  17.075 -0.4818  0.0030 -0.0828
15233TIP3    H167114   3.408   3.889  17.125  0.1604  0.3003  0.6674
15233TIP3    H267115   3.542   3.929  17.066 -0.3377 -0.1893 -0.8335
15234TIP3   OH267116   1.179   5.705  11.765 -0.2399 -0.4243  0.3694
15234TIP3    H167117   1.215   5.701  11.854  0.6307  1.7320  0.1931
15234TIP3    H267118   1.249   5.745  11.713 -1.7053  0.8636 -0.6899
15235TIP3   OH267119   3.858   2.401  15.299 -0.4587  0.1101 -0.2544
15235TIP3    H167120   3.770   2.414  15.335  0.6908  2.9642  1.8985
15235TIP3    H267121   3.910   2.372  15.373  0.4998 -1.5684 -1.5097
15236TIP3   OH267122   3.316   4.246  14.849  0.2407  0.8809  0.2950
15236TIP3    H167123   3.343   4.331  14.884 -0.0756  1.3876 -0.6836
15236TIP3    H267124   3.331   4.185  14.922  0.0286  1.8380  1.1642
15237TIP3   OH267125   2.653   3.975   5.300 -0.3728  0.2810 -0.3193
15237TIP3    H167126   2.742   3.994   5.330 -0.3382  2.2958 -1.5243
15237TIP3    H267127   2.665   3.932   5.215 -0.5526  0.5290 -0.4700
15238TIP3   OH267128   2.744   2.288   3.428 -0.6404  0.2571 -0.1711
15238TIP3    H167129   2.813   2.256   3.486 -0.1704  1.5036 -0.0129
15238TIP3    H267130   2.663   2.259   3.469 -0.2367 -1.1547 -0.3114
15239TIP3   OH267131   6.455   4.916  16.552  0.1141  0.6297 -0.1903
15239TIP3    H167132   6.390   4.846  16.543  0.1231  0.4111  1.1517
15239TIP3    H267133   6.536   4.870  16.575  0.3146  1.0199 -0.1172
15240TIP3   OH267134   2.789   6.642   5.076 -0.2901 -0.4024  0.3236
15240TIP3    H167135   2.861   6.640   5.138  0.4431  1.2745 -0.4271
15240TIP3    H267136   2.736   6.717   5.102 -1.6879 -1.4662  0.7198
15241TIP3   OH267137   5.784   2.994  13.477 -0.2648 -0.2390  0.0433
15241TIP3    H167138   5.794   3.042  13.395  1.2324  1.8938  1.3927
15241TIP3    H267139   5.715   3.042  13.524 -1.7415 -1.9602 -0.2435
15242TIP3   OH267140   3.953   5.615  15.357 -0.6568 -0.6658 -0.2789
15242TIP3    H167141   4.024   5.669  15.392  0.2421 -1.1637 -1.2844
15242TIP3    H267142   3.874   5.667  15.372  0.2150  1.1378 -1.5405
15243TIP3   OH267143   2.786   5.591  13.387 -0.3320 -0.2881 -0.4165
15243TIP3    H167144   2.757   5.502  13.366 -0.7212 -0.2811  0.0816
15243TIP3    H267145   2.839   5.617  13.311  1.5550 -1.7201  0.3145
15244TIP3   OH267146   5.347   5.262  13.142 -0.3997  0.0052  0.4931
15244TIP3    H167147   5.417   5.325  13.161  1.6544 -2.0658  0.2730
15244TIP3    H267148   5.293   5.306  13.077 -2.1789  3.5558  3.8765
15245TIP3   OH267149   3.979   6.464  15.132 -0.0801 -0.1445 -0.3774
15245TIP3    H167150   4.017   6.534  15.078 -1.1401  0.8192  0.1067
15245TIP3    H267151   3.961   6.394  15.069  1.8006 -0.3652 -0.7387
15246TIP3   OH267152   4.485   2.258  15.674  0.3821 -0.2459 -0.1458
15246TIP3    H167153   4.425   2.187  15.653  0.2179 -0.0342 -0.3893
15246TIP3    H267154   4.459   2.285  15.763 -0.4063  0.3711 -0.5510
15247TIP3   OH267155   3.857   4.691   5.020  0.4472 -0.0641  0.3774
15247TIP3    H167156   3.888   4.758   4.959  0.4931  0.3437  0.8442
15247TIP3    H267157   3.909   4.704   5.099 -0.0809 -0.1417  0.7490
15248TIP3   OH267158   2.909   2.417   0.473 -0.1932 -0.3089 -0.1720
15248TIP3    H167159   2.971   2.397   0.403  1.9054  2.4532  0.7280
15248TIP3    H267160   2.895   2.512   0.467 -1.9164 -0.3694  1.6413
15249TIP3   OH267161   6.604   6.638   3.870 -0.4899 -0.4339  0.3338
15249TIP3    H167162   6.685   6.672   3.909 -1.1419  0.4315  0.9719
15249TIP3    H267163   6.618   6.544   3.865 -0.1557 -0.5377  2.2265
15250TIP3   OH267164   4.753   1.328  16.133  0.4569  0.1499 -0.5161
15250TIP3    H167165   4.802   1.246  16.139  2.2697  1.1751 -0.3991
15250TIP3    H267166   4.681   1.309  16.074  1.3143 -1.3127 -1.1477
15251TIP3   OH267167   0.890   4.775   1.349  0.2574 -0.1176 -0.5407
15251TIP3    H167168   0.914   4.707   1.286  0.7518  0.9640 -1.5754
15251TIP3    H267169   0.856   4.846   1.295  1.1472  1.0360  0.3605
15252TIP3   OH267170   2.070   2.262  16.041  0.0370  0.2806 -0.3378
15252TIP3    H167171   1.977   2.243  16.027 -0.2280  1.4634 -0.3315
15252TIP3    H267172   2.079   2.269  16.136 -0.5183  2.9815 -0.4092
15253TIP3   OH267173   1.181   6.251   5.629 -0.2040  0.2511 -0.0976
15253TIP3    H167174   1.153   6.301   5.552  1.7196  1.3302 -0.1558
15253TIP3    H267175   1.176   6.159   5.601  0.7465  0.6365 -1.6353
15254TIP3   OH267176   3.690   5.710   4.068  0.1627  0.2396  0.4640
15254TIP3    H167177   3.666   5.802   4.060  1.4605  0.6418  0.9860
15254TIP3    H267178   3.627   5.675   4.132  0.0631  0.9151  0.7519
15255TIP3   OH267179   5.769   1.011  11.750 -0.0305 -0.1501  0.7339
15255TIP3    H167180   5.731   1.094  11.778  0.4298 -0.0989  1.2278
15255TIP3    H267181   5.721   0.945  11.800 -0.1547 -0.1589  0.6041
15256TIP3   OH267182   0.525   1.928   2.428  0.0986  0.3099  0.0237
15256TIP3    H167183   0.432   1.938   2.408 -0.5411 -0.0202  2.5051
15256TIP3    H267184   0.565   1.908   2.344 -1.8992  1.4627 -1.2989
15257TIP3   OH267185   4.526   4.930  16.976 -0.2363  0.0433 -0.0553
15257TIP3    H167186   4.581   4.895  16.906  1.2510  0.5082  0.8314
15257TIP3    H267187   4.481   5.005  16.937 -0.5262 -0.5497 -0.8939
15258TIP3   OH267188   5.243   1.578  14.829  0.7536  0.1385 -0.2181
15258TIP3    H167189   5.155   1.544  14.844  0.7598  0.6115  0.9761
15258TIP3    H267190   5.301   1.505  14.852  0.7516  0.7324  1.9436
15259TIP3   OH267191   1.250   5.401   4.514 -0.0105 -0.3777  0.5017
15259TIP3    H167192   1.342   5.384   4.536  0.2251 -0.8597 -0.7603
15259TIP3    H267193   1.252   5.481   4.461 -0.2152 -0.7961 -0.1539
15260TIP3   OH267194   4.142   0.350  14.320  0.3951 -0.2075 -0.8002
15260TIP3    H167195   4.122   0.431  14.368  1.2098  0.1657 -1.0725
15260TIP3    H267196   4.117   0.280  14.380  0.9621  0.2488 -0.0167
15261TIP3   OH267197   2.438   3.573  16.943  0.0236 -0.3495 -0.1369
15261TIP3    H167198   2.423   3.664  16.972  0.6077 -0.1092 -0.5706
15261TIP3    H267199   2.383   3.521  17.001 -1.0476  0.3468 -0.4883
15262TIP3   OH267200   0.304   4.507   5.322  0.4468  0.1695 -0.8014
15262TIP3    H167201   0.396   4.498   5.348  0.2760  0.9375  0.1257
15262TIP3    H267202   0.305   4.573   5.253  0.4527  1.2477  0.2002
15263TIP3   OH267203   0.007   1.128   0.490 -0.1377 -0.1607 -0.6102
15263TIP3    H167204  -0.022   1.037   0.494  0.7040 -0.4266 -0.4012
15263TIP3    H267205  -0.010   1.155   0.400 -3.0422  0.3957 -0.0210
15264TIP3   OH267206   5.013   0.694  10.658  0.0344 -0.2567  0.6395
15264TIP3    H167207   5.107   0.699  10.640 -0.2282 -1.5286 -1.3849
15264TIP3    H267208   4.990   0.783  10.684  1.7074  0.1986  0.7188
15265TIP3   OH267209   3.667   4.271  16.565  0.1251 -0.2480  0.5889
15265TIP3    H167210   3.714   4.219  16.500 -0.1170  0.6100 -0.2951
15265TIP3    H267211   3.716   4.353  16.570  0.1878 -0.3382  1.5547
15266TIP3   OH267212   4.533   0.320  16.033 -0.2513 -0.0264 -0.1871
15266TIP3    H167213   4.459   0.381  16.035 -0.4340 -0.1707 -1.4662
15266TIP3    H267214   4.608   0.373  16.059 -0.8002  0.1035  1.2134
15267TIP3   OH267215   1.860   2.191  13.101 -0.2253  0.1041 -0.9085
15267TIP3    H167216   1.872   2.104  13.061  0.7543 -0.0827 -0.2481
15267TIP3    H267217   1.910   2.187  13.182 -1.2237  0.8745 -0.2314
15268TIP3   OH267218   2.094   5.415   3.392 -0.6968 -0.5102 -0.0937
15268TIP3    H167219   2.076   5.486   3.454  1.2711  0.0874 -0.1215
15268TIP3    H267220   2.119   5.461   3.312 -0.6856 -1.2622 -0.5220
15269TIP3   OH267221   5.724   6.688   5.656 -0.1604 -0.0274 -0.0223
15269TIP3    H167222   5.784   6.613   5.663 -0.4948 -0.1705  1.9242
15269TIP3    H267223   5.782   6.764   5.659  0.2236 -0.1492 -2.5156
15270TIP3   OH267224   0.349   4.474   1.418 -0.1358  0.0314  0.4202
15270TIP3    H167225   0.372   4.404   1.479 -0.5190 -0.0099  0.5170
15270TIP3    H267226   0.352   4.554   1.471 -1.7246 -0.1429  0.8154
15271TIP3   OH267227   2.262   0.254   1.496 -0.1400  0.2005 -0.0347
15271TIP3    H167228   2.319   0.202   1.553  1.4210  1.4354 -0.4132
15271TIP3    H267229   2.286   0.345   1.514 -0.4777  0.6592 -1.7727
15272TIP3   OH267230   6.007   0.107   5.063  0.1509 -0.6115 -0.5901
15272TIP3    H167231   5.939   0.139   5.004  0.7920  0.7266 -0.6547
15272TIP3    H267232   6.053   0.039   5.012 -4.0193 -5.2327  1.0936
15273TIP3   OH267233   1.924   1.944  13.304  0.3711 -0.0954 -0.2111
15273TIP3    H167234   1.990   1.934  13.235  1.2699 -1.2893  0.7741
15273TIP3    H267235   1.972   1.928  13.386 -0.7335  0.9791  0.6791
15274TIP3   OH267236   5.849   3.751   5.908  0.1363  0.3213  0.7539
15274TIP3    H167237   5.866   3.841   5.937 -1.0084  1.1473 -0.9340
15274TIP3    H267238   5.762   3.731   5.943 -1.4274  1.4673 -2.1178
15275TIP3   OH267239   3.549   5.246  12.617  0.4288  0.7749 -0.2429
15275TIP3    H167240   3.601   5.189  12.561 -0.7441  0.7867 -1.3864
15275TIP3    H267241   3.609   5.272  12.687  1.2113 -1.2595 -0.0723
15276TIP3   OH267242   0.452   1.193   0.464  0.3643  0.2765 -0.2941
15276TIP3    H167243   0.496   1.112   0.440  0.5780  0.0984  0.6628
15276TIP3    H267244   0.496   1.261   0.412  1.4294  0.0302  0.2587
15277TIP3   OH267245   1.586   6.411   2.821 -0.2848 -0.2902 -0.4383
15277TIP3    H167246   1.677   6.440   2.810  0.5841 -1.6714  2.1863
15277TIP3    H267247   1.576   6.340   2.758  1.4254 -1.9042  0.9641
15278TIP3   OH267248   3.263   0.432   4.657  0.3867  0.0094 -0.0789
15278TIP3    H167249   3.265   0.336   4.658 -0.5495 -0.0306 -0.4433
15278TIP3    H267250   3.176   0.455   4.691  0.0801  0.6696 -1.2216
15279TIP3   OH267251   2.568   0.408   2.668  0.4155 -0.9001  0.1603
15279TIP3    H167252   2.522   0.403   2.751  1.6852 -2.4291  0.8243
15279TIP3    H267253   2.595   0.500   2.661 -0.2327 -0.6198  1.1296
15280TIP3   OH267254   6.445   1.851  17.175 -0.2910 -0.6165  0.1860
15280TIP3    H167255   6.451   1.932  17.125  0.7506 -0.7245  0.1098
15280TIP3    H267256   6.463   1.878  17.266 -0.5998 -0.6635  0.2620
15281TIP3   OH267257   1.303   6.178  11.171  0.0492  0.2167 -0.1769
15281TIP3    H167258   1.309   6.126  11.091  3.6311  2.0823 -1.3176
15281TIP3    H267259   1.225   6.233  11.157 -0.3244 -0.6135 -1.6145
15282TIP3   OH267260   3.240   1.531   4.652  0.4614 -0.0848  0.2745
15282TIP3    H167261   3.328   1.510   4.621  0.2411  0.0025 -0.4350
15282TIP3    H267262   3.216   1.458   4.709  1.1425  0.0812  0.7854
15283TIP3   OH267263   5.569   3.917   2.762  0.3436 -0.0836 -0.1800
15283TIP3    H167264   5.582   3.900   2.669  0.7352 -1.3533  0.0838
15283TIP3    H267265   5.614   3.845   2.806 -2.8902 -1.6351  0.9015
15284TIP3   OH267266   6.333   2.907  12.015 -0.1748  0.8959  0.2747
15284TIP3    H167267   6.242   2.924  11.992 -0.3495 -0.1131  0.1822
15284TIP3    H267268   6.351   2.819  11.981  0.1115  0.0798  2.3547
15285TIP3   OH267269   6.100   5.252   3.577  0.1564 -0.1888  0.1164
15285TIP3    H167270   6.014   5.235   3.614  0.3473 -2.9848 -0.5132
15285TIP3    H267271   6.150   5.290   3.649 -1.3146  0.6809  0.7289
15286TIP3   OH267272   3.626   2.620   2.138  0.7278  0.1659  0.0927
15286TIP3    H167273   3.571   2.696   2.119 -0.0065 -0.2171  0.6498
15286TIP3    H267274   3.676   2.645   2.216  0.8810  0.2768 -0.0408
15287TIP3   OH267275   0.923   5.532  11.886 -0.7790 -0.4582  0.3823
15287TIP3    H167276   0.868   5.549  11.962  0.0441 -2.1828  1.4233
15287TIP3    H267277   1.008   5.508  11.923 -0.1518 -0.6613 -1.1069
15288TIP3   OH267278   2.837   4.818  16.664  0.0105  0.0465  0.5697
15288TIP3    H167279   2.897   4.851  16.598 -0.5675  1.2996  0.6413
15288TIP3    H267280   2.753   4.811  16.619 -0.5523  1.5735  1.2989
15289TIP3   OH267281   2.170   3.625  15.760 -0.0662  0.1127 -0.0459
15289TIP3    H167282   2.152   3.537  15.727  0.7554  0.3974 -1.3365
15289TIP3    H267283   2.092   3.676  15.737 -1.1902 -0.5704  2.0222
15290TIP3   OH267284   2.100   3.624   5.005  0.5639  0.5224  0.3626
15290TIP3    H167285   2.195   3.621   4.994  0.5731 -0.8869  0.6328
15290TIP3    H267286   2.066   3.588   4.923  0.2590  0.8796  0.3284
15291TIP3   OH267287   0.869   2.558   2.321 -0.2783 -0.4099  0.2955
15291TIP3    H167288   0.797   2.496   2.334  0.6146 -1.5989 -0.3086
15291TIP3    H267289   0.897   2.581   2.410 -0.8155 -0.6388  0.5262
15292TIP3   OH267290   4.493   0.516  13.618 -0.0998  0.5988 -0.1904
15292TIP3    H167291   4.467   0.605  13.644 -0.7256  0.0576  1.1181
15292TIP3    H267292   4.440   0.459  13.673  1.2452 -0.5923 -0.0952
15293TIP3   OH267293   0.635   0.471   0.955  0.2423  0.0540  0.4204
15293TIP3    H167294   0.629   0.384   0.993  1.2460  0.0033  0.4934
15293TIP3    H267295   0.688   0.459   0.875  0.3381  0.5761  0.3976
15294TIP3   OH267296   3.924   3.545   4.826  0.5772 -0.3328 -0.0464
15294TIP3    H167297   3.987   3.513   4.890  1.8739  1.8418 -0.1403
15294TIP3    H267298   3.962   3.626   4.793 -1.2750 -0.0585 -1.7032
15295TIP3   OH267299   0.553   3.030   0.532  0.0978 -0.0785  0.7440
15295TIP3    H167300   0.601   2.963   0.581  0.7170  1.6539  2.5975
15295TIP3    H267301   0.620   3.091   0.502 -0.5985  0.4282  0.1796
15296TIP3   OH267302   2.553   0.679   3.911 -0.0026 -0.3169  0.8732
15296TIP3    H167303   2.535   0.623   3.986  1.4968 -0.0416  1.4807
15296TIP3    H267304   2.491   0.751   3.920 -0.0701 -0.4594  1.6684
15297TIP3   OH267305   1.562   1.078   1.953 -0.7934  0.0102 -0.5482
15297TIP3    H167306   1.586   0.992   1.989 -0.9331  0.6505  1.1885
15297TIP3    H267307   1.466   1.078   1.955 -0.7939  0.2062 -0.5499
15298TIP3   OH267308   3.631   4.302   3.486  0.0563  0.2359  0.0684
15298TIP3    H167309   3.570   4.331   3.554 -0.7294  1.8459 -1.2480
15298TIP3    H267310   3.702   4.366   3.488 -0.0936  0.4359 -0.7855
15299TIP3   OH267311   6.403   0.678   0.418 -0.7572  0.2824  0.2391
15299TIP3    H167312   6.465   0.677   0.345 -0.6463  0.7231  0.3237
15299TIP3    H267313   6.335   0.615   0.392 -1.3274  1.2707 -0.7807
15300TIP3   OH267314   4.065   1.045   0.479  0.7171 -0.2039  0.5117
15300TIP3    H167315   4.018   1.095   0.546 -0.4111 -1.5563  0.7897
15300TIP3    H267316   4.150   1.027   0.518 -0.0840 -1.3553  1.8314
15301TIP3   OH267317   5.343   2.692  14.754  0.5040  0.6403  0.3067
15301TIP3    H167318   5.277   2.761  14.751  0.1468  0.4768  2.4450
15301TIP3    H267319   5.296   2.612  14.732  1.0549  1.0735 -2.8257
15302TIP3   OH267320   6.125   4.134  13.523 -0.1818 -0.2079 -0.1822
15302TIP3    H167321   6.210   4.177  13.521  0.2183 -0.9987 -1.4814
15302TIP3    H267322   6.106   4.115  13.431 -1.5963 -0.3671  0.1250
15303TIP3   OH267323   5.441   1.383  14.917 -0.3129  0.3042 -0.4456
15303TIP3    H167324   5.444   1.322  14.843 -1.3137  0.9626 -1.0534
15303TIP3    H267325   5.522   1.433  14.909  1.4216 -2.0320  1.0825
15304TIP3   OH267326   0.725   6.506  15.992  0.2229  0.5670  0.7749
15304TIP3    H167327   0.801   6.555  16.024  0.7513 -0.1679  0.6818
15304TIP3    H267328   0.669   6.496  16.069 -0.4245  2.2379  0.5572
15305TIP3   OH267329   3.636   1.127  15.945 -0.0970  0.3715  0.2348
15305TIP3    H167330   3.610   1.043  15.983  0.1466  0.3918  0.4470
15305TIP3    H267331   3.732   1.125  15.947 -0.0717  0.3109 -0.5049
15306TIP3   OH267332   5.750   0.233  15.660 -0.4127  0.2332 -0.1950
15306TIP3    H167333   5.770   0.300  15.595 -0.9295 -1.2209 -1.9764
15306TIP3    H267334   5.835   0.200  15.689 -0.1630  1.4902  0.5603
15307TIP3   OH267335   4.034   1.179  16.689  0.3951  0.5719 -0.8142
15307TIP3    H167336   4.075   1.252  16.736 -0.1114  1.8373 -2.2577
15307TIP3    H267337   4.010   1.117  16.757 -0.0335  2.1878  0.5781
15308TIP3   OH267338   4.477   1.234  11.532 -0.1027 -0.5235  0.1007
15308TIP3    H167339   4.406   1.184  11.491  0.6532 -1.3649 -0.2065
15308TIP3    H267340   4.434   1.282  11.603 -1.0915 -0.5095 -0.4829
15309TIP3   OH267341   1.275   4.067  16.283  0.0323  0.0485 -0.5112
15309TIP3    H167342   1.329   4.137  16.320 -0.3358  0.6661 -1.1197
15309TIP3    H267343   1.338   3.998  16.262  0.4271  0.2755 -0.1034
15310TIP3   OH267344   2.633   5.658   5.161  0.7809  0.2149 -0.0769
15310TIP3    H167345   2.585   5.609   5.228 -0.4941  1.3677 -0.1053
15310TIP3    H267346   2.722   5.622   5.163  0.3470 -0.8278  1.1466
15311TIP3   OH267347   2.943   5.420   5.041 -0.4908 -0.7036 -0.2907
15311TIP3    H167348   2.897   5.452   4.963 -0.4288  1.8022  0.6101
15311TIP3    H267349   3.027   5.389   5.007  0.2172  1.8436 -1.1563
15312TIP3   OH267350   4.168   1.674  13.915 -0.0735  0.5563  0.3725
15312TIP3    H167351   4.162   1.673  13.819 -0.1874  0.9439  0.3730
15312TIP3    H267352   4.108   1.744  13.942  0.9997  1.4093  0.6400
15313TIP3   OH267353   1.561   1.425  11.993  0.2431 -0.1352  0.3232
15313TIP3    H167354   1.593   1.348  11.945 -1.2279 -0.0724 -0.8410
15313TIP3    H267355   1.466   1.421  11.983  0.1171  1.6403  0.5550
15314TIP3   OH267356   5.878   6.148   5.214  0.4021 -0.2828 -0.0034
15314TIP3    H167357   5.806   6.122   5.155  2.1431 -2.0987 -1.4822
15314TIP3    H267358   5.916   6.065   5.243  0.6359  0.5988  2.4803
15315TIP3   OH267359   1.359   4.604  13.214 -0.1155 -0.4858  1.0683
15315TIP3    H167360   1.360   4.669  13.285  1.2333 -0.4418  1.0355
15315TIP3    H267361   1.276   4.619  13.169 -0.0086  0.9567  1.3007
15316TIP3   OH267362   2.651   0.656  14.497  0.0333  0.4223 -0.5518
15316TIP3    H167363   2.592   0.683  14.568 -0.7470 -1.6095 -0.3553
15316TIP3    H267364   2.676   0.737  14.455 -1.0858  1.5388  0.8135
15317TIP3   OH267365   4.463   4.620  13.137  0.2948 -0.0000 -0.3452
15317TIP3    H167366   4.508   4.580  13.211 -2.0073 -0.1250  1.0979
15317TIP3    H267367   4.533   4.650  13.079  2.1606 -0.8716  1.3516
15318TIP3   OH267368   2.474   4.526  13.105  0.2150 -0.3720 -0.1012
15318TIP3    H167369   2.399   4.528  13.046 -0.1174  0.9542  0.3365
15318TIP3    H267370   2.476   4.437  13.139 -0.1349 -0.8997 -1.4053
15319TIP3   OH267371   0.531   2.443  15.876 -0.2055  0.3474  0.5335
15319TIP3    H167372   0.508   2.377  15.810  1.2323  0.8168 -0.4867
15319TIP3    H267373   0.519   2.526  15.831  2.4092  0.6462  0.2278
15320TIP3   OH267374   6.409   6.212   5.000  0.7461  0.2726  0.3283
15320TIP3    H167375   6.408   6.129   5.048 -0.4911 -1.0098 -1.7760
15320TIP3    H267376   6.331   6.257   5.031  0.8116  0.1653  0.6602
15321TIP3   OH267377   1.234   2.010   1.992 -0.5730 -0.0370 -0.3006
15321TIP3    H167378   1.156   2.021   1.938 -1.1366  2.0077  0.8435
15321TIP3    H267379   1.300   2.065   1.950  0.0766 -1.2093 -0.8601
15322TIP3   OH267380   5.729   4.255  13.270  0.5910  0.3244 -0.1326
15322TIP3    H167381   5.799   4.268  13.334  0.5200  2.2938 -0.3869
15322TIP3    H267382   5.649   4.256  13.323  0.5939  1.0229 -0.1245
15323TIP3   OH267383   0.590   3.943   5.084 -0.4791 -0.0121  0.6247
15323TIP3    H167384   0.589   4.008   5.014 -0.2275  0.8986  1.4547
15323TIP3    H267385   0.531   3.874   5.053 -0.1927  0.2618 -0.5777
15324TIP3   OH267386   0.110   3.962  10.983 -0.2993  0.0030  0.0510
15324TIP3    H167387   0.184   3.904  10.969  0.1711  0.1464  1.6988
15324TIP3    H267388   0.037   3.919  10.939 -0.0652 -2.0954  1.5365
15325TIP3   OH267389   0.019   4.497   6.123 -0.3070 -0.6712  0.0136
15325TIP3    H167390  -0.058   4.513   6.070 -0.7070  0.7004  0.9669
15325TIP3    H267391   0.004   4.545   6.204  1.0471 -1.3008  0.6835
15326TIP3   OH267392   3.240   1.684  11.958  0.0095 -0.2795  0.1240
15326TIP3    H167393   3.149   1.654  11.953  0.7429 -2.6367 -0.0417
15326TIP3    H267394   3.233   1.777  11.981 -2.4974  0.2397 -2.2222
15327TIP3   OH267395   2.750   3.555  17.214 -0.5005  0.2398  0.0462
15327TIP3    H167396   2.815   3.492  17.246 -0.9964 -1.5043 -2.1647
15327TIP3    H267397   2.669   3.531  17.259 -0.2010  0.8561  0.9578
15328TIP3   OH267398   5.912   1.852  12.452  0.3053  0.4579 -0.7247
15328TIP3    H167399   5.882   1.899  12.374  1.1401  0.4502 -1.0567
15328TIP3    H267400   5.992   1.898  12.479 -0.8337  1.5035  1.1097
15329TIP3   OH267401   3.041   0.993   2.450  0.1297  0.2704 -0.7649
15329TIP3    H167402   3.030   1.084   2.476  1.5428 -0.1760  1.7106
15329TIP3    H267403   3.117   0.994   2.391 -0.9502  0.8559 -2.2105
15330TIP3   OH267404   4.535   5.712   0.572 -0.5020  0.0344 -0.1065
15330TIP3    H167405   4.505   5.762   0.648  0.8702  0.8698 -0.0753
15330TIP3    H267406   4.523   5.620   0.597 -0.1379  0.2961  1.1070
15331TIP3   OH267407   6.570   4.574  15.722  0.1240  0.5027  0.1978
15331TIP3    H167408   6.478   4.594  15.704  0.0617  0.2013  0.1760
15331TIP3    H267409   6.570   4.483  15.750  0.4912  0.3254 -0.3732
15332TIP3   OH267410   0.159   6.297   2.175 -0.3334 -0.0928 -0.2195
15332TIP3    H167411   0.148   6.367   2.110 -1.4569 -0.0181  0.0219
15332TIP3    H267412   0.140   6.216   2.128 -1.0010 -0.0521 -0.0276
15333TIP3   OH267413   5.603   4.877  14.922 -0.3455  0.7683  0.1104
15333TIP3    H167414   5.648   4.839  14.846 -2.0334  1.1006 -1.1120
15333TIP3    H267415   5.674   4.902  14.981  1.0691  0.8789 -1.5433
15334TIP3   OH267416   3.654   2.825  16.536 -0.3606 -0.3723 -0.5718
15334TIP3    H167417   3.727   2.787  16.584  0.2201  0.1638 -1.0028
15334TIP3    H267418   3.585   2.759  16.539 -0.2338 -0.4604  0.7425
15335TIP3   OH267419   4.555   5.552   1.003  0.2349 -0.1191  0.3934
15335TIP3    H167420   4.560   5.590   1.091  1.4134 -1.1023  0.7815
15335TIP3    H267421   4.484   5.487   1.009 -0.4146  0.5653  0.2939
15336TIP3   OH267422   4.379   3.891   4.330 -0.0490  0.1434  0.3228
15336TIP3    H167423   4.382   3.842   4.412  0.7830 -0.0946  0.1572
15336TIP3    H267424   4.318   3.963   4.347 -0.6463 -0.4686  0.8284
15337TIP3   OH267425   5.384   4.232  10.978  0.1640  0.1082 -0.3780
15337TIP3    H167426   5.360   4.234  11.071 -0.7236 -2.5666 -0.4721
15337TIP3    H267427   5.455   4.297  10.971 -1.1244  1.9140  1.6870
15338TIP3   OH267428   1.195   1.031   0.004 -0.2894  0.5267  0.5708
15338TIP3    H167429   1.264   1.091   0.032 -0.7614  1.1201  0.4758
15338TIP3    H267430   1.228   0.944   0.027  0.0615  0.8775  1.4305
15339TIP3   OH267431   5.787   4.099   2.185  0.1123 -0.0773  0.6625
15339TIP3    H167432   5.841   4.043   2.129  0.2608  1.0454 -0.3697
15339TIP3    H267433   5.829   4.094   2.271  0.3628 -1.2011  0.4939
15340TIP3   OH267434   5.455   2.353   0.087  0.6004 -0.2750  0.2018
15340TIP3    H167435   5.371   2.313   0.107  0.2971  0.9312  1.4832
15340TIP3    H267436   5.434   2.444   0.066  1.5175 -0.1138 -0.0716
15341TIP3   OH267437   5.046   4.895   2.016 -0.2166  0.1981  0.3806
15341TIP3    H167438   5.085   4.982   2.012 -0.3132  0.2190 -0.4076
15341TIP3    H267439   4.970   4.905   2.074  0.7336  0.2299  1.6642
15342TIP3   OH267440   1.665   1.937   1.004 -0.1601  0.6212 -0.0995
15342TIP3    H167441   1.620   1.913   1.085  0.2885  1.3548  0.3813
15342TIP3    H267442   1.597   1.975   0.949 -0.4500  0.2050 -0.0281
15343TIP3   OH267443   2.773   1.606  16.299  0.3728  0.0229 -0.0066
15343TIP3    H167444   2.725   1.563  16.228 -0.3813 -0.6630  0.8917
15343TIP3    H267445   2.783   1.538  16.366  1.6008  0.4820  0.3123
15344TIP3   OH267446   5.693   4.207  12.866  0.0339 -0.4037 -0.2844
15344TIP3    H167447   5.766   4.248  12.820  0.2034 -0.6653 -0.2466
15344TIP3    H267448   5.617   4.261  12.842  0.3252  0.1960  0.1174
15345TIP3   OH267449   5.441   6.271   2.805 -0.6554 -0.1194  0.3902
15345TIP3    H167450   5.519   6.306   2.848 -0.7060 -0.5167  0.8079
15345TIP3    H267451   5.474   6.205   2.744 -0.6305  0.0355  0.2350
15346TIP3   OH267452   1.509   6.438   1.136  0.2262 -0.3593  0.1103
15346TIP3    H167453   1.414   6.432   1.148 -0.3940  1.8595 -2.5666
15346TIP3    H267454   1.543   6.355   1.168 -2.4817 -0.8331  2.0975
15347TIP3   OH267455   5.113   2.065   1.264  0.0728  0.5282  0.5321
15347TIP3    H167456   5.081   1.975   1.266  3.4656 -0.8591 -0.3476
15347TIP3    H267457   5.184   2.064   1.200  1.3041  3.4792  1.6494
15348TIP3   OH267458   0.711   4.532   1.549  0.0694 -0.5357  0.2157
15348TIP3    H167459   0.646   4.568   1.488 -0.9767 -0.4844  1.3163
15348TIP3    H267460   0.792   4.529   1.499 -0.6200  0.0749 -0.9818
15349TIP3   OH267461   2.881   4.981  16.102 -0.5943 -0.3982 -0.2764
15349TIP3    H167462   2.904   5.073  16.108 -2.4473  0.0086  1.4273
15349TIP3    H267463   2.965   4.936  16.089  0.3791  1.4519 -0.7248
15350TIP3   OH267464   1.745   1.845   3.225 -0.7393  0.1564 -0.0719
15350TIP3    H167465   1.731   1.770   3.283 -1.0775  0.4966  0.2917
15350TIP3    H267466   1.752   1.807   3.138 -0.6886 -0.3186  0.1384
15351TIP3   OH267467   5.782   0.460  13.609  0.5149  0.2093  0.0180
15351TIP3    H167468   5.709   0.407  13.639 -0.7413  2.1299  0.5052
15351TIP3    H267469   5.856   0.431  13.662 -0.0800 -1.1270  0.1662
15352TIP3   OH267470   3.317   3.185  15.834  0.0235  0.7101  0.0237
15352TIP3    H167471   3.249   3.154  15.894  1.4618 -2.0505  0.3791
15352TIP3    H267472   3.383   3.224  15.891  0.5427 -0.2495  0.0984
15353TIP3   OH267473   1.159   6.708  12.742  0.1002  0.0981  0.1150
15353TIP3    H167474   1.156   6.798  12.774 -2.3324 -0.0738  0.4986
15353TIP3    H267475   1.085   6.664  12.784  0.1917 -1.6289 -1.3930
15354TIP3   OH267476   3.119   2.780  14.120  0.1436 -0.4438  0.2144
15354TIP3    H167477   3.068   2.733  14.186 -1.4712  2.1990  0.9955
15354TIP3    H267478   3.132   2.715  14.051 -1.0190 -2.3427  1.6573
15355TIP3   OH267479   4.159   0.333  11.610  0.5514  0.5038  0.1007
15355TIP3    H167480   4.216   0.409  11.623  1.1766 -0.0647  0.7972
15355TIP3    H267481   4.147   0.297  11.698  1.6269 -1.1667 -0.3823
15356TIP3   OH267482   0.050   0.521   3.017 -0.2416 -0.5412 -0.4382
15356TIP3    H167483  -0.007   0.467   3.073 -2.3842  1.2471 -0.7317
15356TIP3    H267484   0.033   0.611   3.046  3.0956  0.0853 -0.0588
15357TIP3   OH267485   3.011   6.388   2.858  0.3088  0.4362 -0.3524
15357TIP3    H167486   3.089   6.435   2.886  1.2602 -0.9840 -0.5074
15357TIP3    H267487   3.021   6.300   2.895 -0.9966  0.0938 -0.7517
15358TIP3   OH267488   0.202   3.297   0.517  0.5001 -0.3000 -0.5499
15358TIP3    H167489   0.107   3.303   0.521  0.4242 -0.8392 -1.2842
15358TIP3    H267490   0.228   3.367   0.458  0.7776  1.3499  1.4324
15359TIP3   OH267491   1.373   4.613   2.631 -0.0270 -0.4079  0.6866
15359TIP3    H167492   1.399   4.637   2.542  4.7115  0.1106  1.9146
15359TIP3    H267493   1.337   4.694   2.668  1.8569  0.6537  0.3535
15360TIP3   OH267494   2.045   3.842  12.104  0.6097  0.4773 -0.8022
15360TIP3    H167495   1.951   3.826  12.099  0.6248  0.5937 -1.5437
15360TIP3    H267496   2.061   3.861  12.196  0.3761 -2.4431 -0.0570
15361TIP3   OH267497   5.119   4.562  15.721  0.4943  0.2664  0.1159
15361TIP3    H167498   5.101   4.468  15.722  0.0518  0.3403 -0.3645
15361TIP3    H267499   5.203   4.570  15.675  0.4899  0.1108  0.0805
15362TIP3   OH267500   2.384   0.578   5.880  0.3081  0.0342 -0.3689
15362TIP3    H167501   2.313   0.603   5.822  0.4261 -1.1484 -1.0467
15362TIP3    H267502   2.411   0.491   5.850  0.4102 -0.6027  1.4140
15363TIP3   OH267503   0.827   3.549   3.644 -0.0671 -0.3877 -0.2871
15363TIP3    H167504   0.792   3.619   3.698 -0.1981  0.2573 -1.1853
15363TIP3    H267505   0.846   3.478   3.706 -0.6865  0.1377  0.5251
15364TIP3   OH267506   6.004   0.440  13.758  0.7351  0.2455  0.0950
15364TIP3    H167507   6.057   0.443  13.837  0.5607  2.7047  0.1786
15364TIP3    H267508   6.040   0.507  13.701 -1.4621  1.1581 -0.3485
15365TIP3   OH267509   0.854   5.157  15.268 -0.1582 -0.0687 -0.1685
15365TIP3    H167510   0.780   5.118  15.316 -0.5654  0.3981 -0.4161
15365TIP3    H267511   0.821   5.170  15.180  0.1810  0.2769 -0.2434
15366TIP3   OH267512   1.835   5.251  17.226 -0.4402  0.0566  0.1540
15366TIP3    H167513   1.848   5.315  17.156 -0.2441  0.9461  0.9793
15366TIP3    H267514   1.801   5.173  17.182  2.1949 -0.3689 -1.3276
15367TIP3   OH267515   6.560   5.751  12.253  0.5376 -0.0127  0.2535
15367TIP3    H167516   6.568   5.743  12.348 -0.0414 -2.1023  0.1714
15367TIP3    H267517   6.466   5.751  12.236  0.6321 -1.8979 -0.4362
15368TIP3   OH267518   1.890   3.837   0.086 -0.5510  0.0316  0.3247
15368TIP3    H167519   1.861   3.767   0.027  0.0349  1.3428 -1.5827
15368TIP3    H267520   1.822   3.840   0.153 -1.6299 -1.0185 -0.6662
15369TIP3   OH267521   0.429   4.407  15.451  0.2282  0.4454  0.4047
15369TIP3    H167522   0.509   4.370  15.486  0.1969  0.3868  0.4140
15369TIP3    H267523   0.371   4.332  15.436 -0.1515  0.5628  1.2179
15370TIP3   OH267524   1.107   0.865   2.545 -0.0137  0.1664 -0.2871
15370TIP3    H167525   1.054   0.876   2.624  0.6183 -0.2359  0.2094
15370TIP3    H267526   1.046   0.878   2.473 -0.9061 -0.7727  0.2643
15371TIP3   OH267527   1.158   4.700  16.293  0.3011  0.4050  0.3742
15371TIP3    H167528   1.067   4.678  16.272 -0.5199  2.2062  1.7400
15371TIP3    H267529   1.188   4.753  16.220  0.6283 -1.0368 -0.5660
15372TIP3   OH267530   5.912   1.464   0.811  0.3254  0.2174 -0.2756
15372TIP3    H167531   6.006   1.480   0.815  0.1494  2.0933 -1.8206
15372TIP3    H267532   5.873   1.552   0.815 -1.4389 -0.5669  1.3927
15373TIP3   OH267533   0.785   2.085  15.494 -0.2559  0.2402 -0.1494
15373TIP3    H167534   0.740   2.089  15.409 -0.9893  0.0310  0.2189
15373TIP3    H267535   0.838   2.164  15.497 -2.1750  1.5720  0.2577
15374TIP3   OH267536   0.652   1.381   2.069 -0.3146 -0.0014 -0.5070
15374TIP3    H167537   0.634   1.453   2.130  0.6085 -0.4865  0.3708
15374TIP3    H267538   0.681   1.424   1.989 -0.3022  0.6202 -0.1750
15375TIP3   OH267539   1.387   3.498   5.886  0.3858  0.1923 -0.3194
15375TIP3    H167540   1.418   3.588   5.883 -0.6839  0.5729 -0.3013
15375TIP3    H267541   1.457   3.450   5.931  0.0075  1.4069  1.6667
15376TIP3   OH267542   3.600   6.451  12.421 -0.1666  0.1579 -0.0321
15376TIP3    H167543   3.627   6.365  12.454 -0.8730  0.4994  1.4911
15376TIP3    H267544   3.682   6.496  12.404  0.2350 -1.0705 -1.6206
15377TIP3   OH267545   0.245   4.314  13.602  0.3469  0.4145 -0.6448
15377TIP3    H167546   0.281   4.227  13.585  0.8777  0.4156  0.3918
15377TIP3    H267547   0.158   4.312  13.562  0.4469 -0.5155 -0.8398
15378TIP3   OH267548   6.450   0.411   5.566  0.1482 -0.8747  0.0123
15378TIP3    H167549   6.542   0.399   5.544  0.0296 -0.3474 -0.8289
15378TIP3    H267550   6.446   0.403   5.662  1.1884 -0.1185  0.1326
15379TIP3   OH267551   4.550   1.404  12.206  0.4623  0.3850 -0.5727
15379TIP3    H167552   4.513   1.342  12.268 -0.7211  2.0228  0.4668
15379TIP3    H267553   4.642   1.379  12.197 -0.0817 -1.7715 -0.5963
15380TIP3   OH267554   2.992   5.567  16.139  0.3482  0.4588  0.1255
15380TIP3    H167555   2.919   5.521  16.099 -0.5786  1.1003  1.0221
15380TIP3    H267556   3.021   5.509  16.210 -0.0585  0.7117  0.5060
15381TIP3   OH267557   2.016   0.063   0.033 -0.0418 -0.8688 -0.1803
15381TIP3    H167558   2.106   0.060   0.064  0.1889  1.0338 -0.5623
15381TIP3    H267559   1.965   0.093   0.108  0.1487  1.2406 -0.8448
15382TIP3   OH267560   4.329   2.574   3.206 -0.5246  0.4611 -0.0331
15382TIP3    H167561   4.244   2.536   3.183 -0.8892  1.5937 -0.6121
15382TIP3    H267562   4.393   2.512   3.170 -1.0587 -1.1622  1.6516
15383TIP3   OH267563   5.435   0.311  16.450  0.1214 -0.5257  0.0714
15383TIP3    H167564   5.510   0.261  16.417  1.2362  1.0947  0.0332
15383TIP3    H267565   5.436   0.297  16.544  1.3606  0.6072  0.2459
15384TIP3   OH267566   3.395   2.026   3.888  0.2602 -0.2245  1.0469
15384TIP3    H167567   3.472   2.082   3.894 -0.5984  1.0507  0.4860
15384TIP3    H267568   3.329   2.079   3.843 -1.1177 -1.0874  1.9540
15385TIP3   OH267569   5.394   3.143  13.069  0.0925  0.0084  0.1367
15385TIP3    H167570   5.302   3.157  13.091 -0.1779 -0.8250 -0.4523
15385TIP3    H267571   5.441   3.170  13.148 -0.7158 -0.5844  0.8471
15386TIP3   OH267572   0.651   2.991   6.053 -0.2467  0.3135  0.5082
15386TIP3    H167573   0.604   3.061   6.006  1.3044  1.2918  0.3242
15386TIP3    H267574   0.681   2.932   5.983  0.1961  0.5877  0.4630
15387TIP3   OH267575   6.568   3.315   4.445 -0.4513 -0.0578  0.1291
15387TIP3    H167576   6.601   3.319   4.535 -1.0330  1.9519  0.3117
15387TIP3    H267577   6.568   3.222   4.423  2.8863 -0.3788  0.9994
15388TIP3   OH267578   5.436   2.645   3.194 -0.0311  0.1587  0.0677
15388TIP3    H167579   5.511   2.587   3.204 -1.1059 -0.9110  2.6121
15388TIP3    H267580   5.376   2.597   3.137 -1.3726 -1.8961  2.9748
15389TIP3   OH267581   2.742   0.297   4.117 -0.5012 -0.0115 -0.0519
15389TIP3    H167582   2.691   0.346   4.182 -0.0768  0.0233  0.2554
15389TIP3    H267583   2.680   0.282   4.045 -0.4095  1.7564 -0.5493
15390TIP3   OH267584   0.585   0.551  13.439  0.2819  0.3272 -0.4801
15390TIP3    H167585   0.538   0.529  13.359  1.4396  1.9689 -1.6714
15390TIP3    H267586   0.526   0.523  13.509 -0.8268 -1.0184 -1.8764
15391TIP3   OH267587   4.140   4.618   1.300 -0.0888 -0.1309  0.0708
15391TIP3    H167588   4.159   4.578   1.215  1.6137  0.7722 -0.0307
15391TIP3    H267589   4.194   4.568   1.362 -0.5597 -0.1487  0.4689
15392TIP3   OH267590   4.920   3.532  13.289 -0.1671  0.4097  0.2654
15392TIP3    H167591   4.924   3.608  13.348  0.0096  2.4667 -2.2070
15392TIP3    H267592   4.997   3.541  13.233 -0.8921 -0.8143 -1.0013
15393TIP3   OH267593   1.272   6.589   2.327 -0.2588 -0.2816 -0.5373
15393TIP3    H167594   1.277   6.538   2.246  0.7751 -2.3783  0.7367
15393TIP3    H267595   1.192   6.559   2.370  0.2271 -0.6799  0.1125
15394TIP3   OH267596   2.639   1.638  11.946  0.5382 -0.0644 -0.3414
15394TIP3    H167597   2.554   1.625  11.903  1.3423 -0.2609 -1.9560
15394TIP3    H267598   2.702   1.638  11.874  1.8254  0.9825  0.7403
15395TIP3   OH267599   0.989   4.969  12.219  0.0178 -0.6740 -0.1213
15395TIP3    H167600   0.973   5.044  12.161  0.8093  0.7946  1.4422
15395TIP3    H267601   0.913   4.966  12.276  0.7036  0.0377  0.8820
15396TIP3   OH267602   6.279   3.277   0.752  0.7392 -0.0075 -0.4570
15396TIP3    H167603   6.196   3.315   0.780  1.6092 -0.3182  2.9920
15396TIP3    H267604   6.256   3.188   0.724 -0.4154  0.8780 -2.6290
15397TIP3   OH267605   2.807   3.004  11.338 -0.0084  0.2433 -0.0800
15397TIP3    H167606   2.812   2.966  11.250 -0.0699 -0.8047  0.3505
15397TIP3    H267607   2.897   3.026  11.360 -0.0448  0.9279 -0.5699
15398TIP3   OH267608   2.077   0.079   4.104 -0.0885 -0.3696 -0.0487
15398TIP3    H167609   2.005   0.125   4.062  1.0021 -1.3135 -3.2649
15398TIP3    H267610   2.036   0.013   4.160 -1.6291  1.1906  0.7444
15399TIP3   OH267611   3.631   1.014   0.911  0.3154 -0.7270 -0.0949
15399TIP3    H167612   3.547   0.972   0.891 -1.0112  1.7098 -0.1225
15399TIP3    H267613   3.628   1.097   0.862  2.2667 -0.0698  0.8043
15400TIP3   OH267614   3.794   0.800   6.093 -0.0679  0.2319 -0.0663
15400TIP3    H167615   3.788   0.791   5.998  1.3327  1.2844 -0.2877
15400TIP3    H267616   3.772   0.713   6.127 -0.4945 -0.1850 -1.3416
15401TIP3   OH267617   1.427   2.861  15.648 -0.2200 -0.0909  0.3478
15401TIP3    H167618   1.402   2.923  15.717 -1.4784 -0.8454  0.5892
15401TIP3    H267619   1.446   2.780  15.695 -2.6952 -1.1038 -0.2749
15402TIP3   OH267620   4.654   1.549  10.465 -0.3816  0.5290  0.0671
15402TIP3    H167621   4.592   1.545  10.539 -0.2431  1.0306  0.2154
15402TIP3    H267622   4.624   1.481  10.405  0.7256 -1.3588  1.5275
15403TIP3   OH267623   1.310   1.508   3.652  0.3488  0.0330 -0.2007
15403TIP3    H167624   1.298   1.458   3.571 -0.8065  1.5796 -1.0350
15403TIP3    H267625   1.352   1.589   3.624  1.1117  0.0592  0.9598
15404TIP3   OH267626   3.922   1.032  11.554 -0.5103  0.5852 -0.0704
15404TIP3    H167627   3.904   1.113  11.507 -2.5046 -0.4936 -1.2831
15404TIP3    H267628   3.885   1.046  11.641  2.0477  2.1013  0.9031
15405TIP3   OH267629   4.001   3.237  12.571 -0.2638 -0.0831  0.4833
15405TIP3    H167630   3.929   3.187  12.532 -1.0767  0.6887  0.9741
15405TIP3    H267631   4.079   3.204  12.526 -0.8689 -1.2081  0.2221
15406TIP3   OH267632   6.745   6.277  11.354 -0.3202  0.4728  0.5870
15406TIP3    H167633   6.697   6.197  11.337 -0.1001  0.2315  1.0606
15406TIP3    H267634   6.681   6.336  11.395  0.2750 -0.6398  3.3239
15407TIP3   OH267635   4.224   1.674   0.927 -0.1604  0.1058 -0.3538
15407TIP3    H167636   4.282   1.607   0.893 -0.8121 -0.9850  0.6127
15407TIP3    H267637   4.276   1.755   0.924  0.9509 -0.6008 -0.6719
15408TIP3   OH267638   2.766   5.120   3.646 -0.0571 -0.7619  0.0783
15408TIP3    H167639   2.814   5.106   3.564 -1.0886  0.4543 -0.7815
15408TIP3    H267640   2.686   5.165   3.619  0.6288  1.8210  1.9800
15409TIP3   OH267641   3.070   1.633   2.035 -0.1956 -0.4339 -0.0483
15409TIP3    H167642   3.110   1.720   2.036 -0.0179 -0.5191  0.5570
15409TIP3    H267643   3.073   1.604   2.126  0.5440 -1.4276 -0.3675
15410TIP3   OH267644   5.156   2.067  12.031  0.3093  1.0048  0.9501
15410TIP3    H167645   5.160   2.113  12.115 -0.4475  0.6289  1.2059
15410TIP3    H267646   5.070   2.089  11.995 -1.6034 -2.7598  2.6470
15411TIP3   OH267647   3.048   0.210  15.424  0.1054 -0.7379 -0.8334
15411TIP3    H167648   3.025   0.187  15.514 -2.0119  0.1611 -1.0914
15411TIP3    H267649   3.107   0.140  15.396 -0.3651 -1.8377  0.7791
15412TIP3   OH267650   3.434   0.520   2.845 -0.1851  0.1927 -0.0595
15412TIP3    H167651   3.420   0.425   2.844  0.6718  0.0588 -0.7087
15412TIP3    H267652   3.432   0.546   2.753  2.1439  0.3701 -0.1286
15413TIP3   OH267653   3.910   4.669   3.765  0.5665  0.7090 -0.2508
15413TIP3    H167654   3.831   4.723   3.758 -1.6898 -2.2293  0.6831
15413TIP3    H267655   3.948   4.694   3.850 -1.2614 -0.0549  0.8643
15414TIP3   OH267656   1.836   3.856   4.386 -0.1824 -0.6350 -0.3205
15414TIP3    H167657   1.916   3.825   4.343  0.5652  0.0978  0.5135
15414TIP3    H267658   1.826   3.800   4.463  0.8750  0.7781  0.8921
15415TIP3   OH267659   0.602   2.282  11.515  0.3505  0.4791  0.0287
15415TIP3    H167660   0.544   2.205  11.515 -0.3048  0.9650 -0.0377
15415TIP3    H267661   0.669   2.261  11.450  0.8686 -0.5347  0.8603
15416TIP3   OH267662   5.977   3.467  15.533  0.0804  0.0495 -0.2907
15416TIP3    H167663   5.922   3.542  15.509 -1.5368 -0.6429  1.0583
15416TIP3    H267664   6.009   3.489  15.621  1.8596  0.3398 -0.9635
15417TIP3   OH267665   2.175   1.392   2.283 -0.7193  0.0211 -0.2078
15417TIP3    H167666   2.253   1.340   2.305 -1.1028 -0.6554 -0.4161
15417TIP3    H267667   2.208   1.481   2.272 -0.2974  0.1387  1.7189
15418TIP3   OH267668   5.419   3.202   1.973  0.0458 -0.2496  0.4365
15418TIP3    H167669   5.399   3.294   1.959  2.5528  0.4022  0.7462
15418TIP3    H267670   5.362   3.176   2.045 -1.1974  0.8269 -0.1156
15419TIP3   OH267671   1.230   2.989  13.422  0.4086  0.1529  0.2686
15419TIP3    H167672   1.283   3.012  13.345  0.2116 -1.3598 -0.3479
15419TIP3    H267673   1.161   2.933  13.388 -1.5902  1.9955  1.0835
15420TIP3   OH267674   4.516   0.476   5.722 -0.3416 -0.1683  0.6464
15420TIP3    H167675   4.469   0.396   5.696 -1.5321  0.1961  1.6156
15420TIP3    H267676   4.598   0.444   5.760 -1.0754 -0.9825  1.5958
15421TIP3   OH267677   6.100   5.363   5.247  0.2543  0.2970 -0.6647
15421TIP3    H167678   6.083   5.444   5.296 -0.4859  0.7145 -1.5948
15421TIP3    H267679   6.094   5.294   5.314 -1.9993  0.7324 -0.3369
15422TIP3   OH267680   1.081   3.203   5.109  0.0612 -0.3499 -0.4236
15422TIP3    H167681   1.075   3.290   5.147 -1.5008 -0.2362 -0.8572
15422TIP3    H267682   1.120   3.217   5.023 -0.4537 -0.0252 -0.6092
15423TIP3   OH267683   2.288   1.746  16.387  0.0216 -0.3561 -0.1683
15423TIP3    H167684   2.229   1.791  16.448 -1.0306 -1.2083 -0.5435
15423TIP3    H267685   2.279   1.793  16.305 -0.1886 -0.5300 -0.2448
15424TIP3   OH267686   1.718   2.669   0.222  0.1473 -0.3552 -0.6516
15424TIP3    H167687   1.644   2.622   0.183 -1.1142  0.2546  0.9225
15424TIP3    H267688   1.739   2.620   0.301 -0.9051  1.3862  0.7833
15425TIP3   OH267689   3.145   1.168  15.527  0.2604  0.2762  0.2088
15425TIP3    H167690   3.149   1.171  15.622 -0.7151  2.1896  0.2284
15425TIP3    H267691   3.167   1.256  15.498  0.2675 -0.1863 -1.3289
15426TIP3   OH267692   2.412   2.443   0.171  0.2161 -0.0960 -0.1329
15426TIP3    H167693   2.371   2.360   0.145 -0.6770 -0.0870  1.1735
15426TIP3    H267694   2.478   2.418   0.234 -0.9482  0.2612  1.2795
15427TIP3   OH267695   3.450   4.627   0.815 -0.0749 -0.2354  0.7731
15427TIP3    H167696   3.484   4.645   0.903  0.2121  0.3684  0.5416
15427TIP3    H267697   3.523   4.647   0.757 -0.6661  0.5689  0.2991
15428TIP3   OH267698   3.118   3.304  13.126  0.1625 -0.7501  0.3230
15428TIP3    H167699   3.081   3.313  13.038  0.4911 -0.6006  0.1948
15428TIP3    H267700   3.213   3.313  13.112  0.1757 -0.1351  0.7630
15429TIP3   OH267701   5.363   5.264  12.530 -0.4448  0.8270 -0.0245
15429TIP3    H167702   5.444   5.245  12.579 -1.2547  0.5502  1.2584
15429TIP3    H267703   5.393   5.287  12.443  1.1027  1.7338  0.6967
15430TIP3   OH267704   3.690   5.930  14.761  0.3865 -0.3342  0.7458
15430TIP3    H167705   3.701   5.845  14.803 -0.5553 -1.1091 -0.4711
15430TIP3    H267706   3.773   5.947  14.717  0.4398 -0.8482  0.6412
15431TIP3   OH267707   1.163   2.339   4.341 -0.4301 -0.1839  0.1310
15431TIP3    H167708   1.160   2.270   4.407 -0.8575 -0.5307 -0.2414
15431TIP3    H267709   1.071   2.363   4.327 -0.3218  0.1006 -0.1158
15432TIP3   OH267710   3.825   0.238   4.426  0.4399 -0.3951  0.3817
15432TIP3    H167711   3.850   0.171   4.362 -1.1793 -1.2967  0.6268
15432TIP3    H267712   3.858   0.204   4.509 -0.6883 -1.1172  0.5620
15433TIP3   OH267713   3.325   4.379  15.715  0.4043 -0.7451 -0.2285
15433TIP3    H167714   3.300   4.441  15.783 -0.0689  0.2850 -1.3218
15433TIP3    H267715   3.397   4.328  15.755  1.1233  0.7931  0.5245
15434TIP3   OH267716   6.057   1.092  14.072 -0.3618 -0.3933  0.2711
15434TIP3    H167717   5.979   1.147  14.077 -0.0863  0.1043 -0.6234
15434TIP3    H267718   6.074   1.083  13.978 -0.6732 -2.4093  0.3717
15435TIP3   OH267719   2.617   1.205   2.526 -0.3968 -0.4644 -0.2980
15435TIP3    H167720   2.534   1.219   2.480  0.3355 -1.2986 -1.9635
15435TIP3    H267721   2.595   1.148   2.599 -1.5651  0.7160  0.3135
15436TIP3   OH267722   5.226   6.291   0.530 -0.1423 -0.6992  0.2375
15436TIP3    H167723   5.173   6.226   0.577  1.8107 -1.7567  1.0901
15436TIP3    H267724   5.275   6.335   0.599  1.5791 -1.1503 -0.6539
15437TIP3   OH267725   2.600   4.767  16.567  0.0542  0.6564 -0.1736
15437TIP3    H167726   2.525   4.814  16.532  0.7466  2.5803  0.7880
15437TIP3    H267727   2.564   4.712  16.637 -0.3545  2.3364  0.9747
15438TIP3   OH267728   2.669   0.215   2.471 -0.0154  0.1564 -0.5190
15438TIP3    H167729   2.765   0.222   2.475 -0.0967  1.3717 -0.3154
15438TIP3    H267730   2.637   0.293   2.515 -1.0953  0.5171 -1.8622
15439TIP3   OH267731   0.646   4.078  13.202  0.2032 -0.1464 -0.1852
15439TIP3    H167732   0.639   4.114  13.291  2.9505 -2.3994  1.1246
15439TIP3    H267733   0.709   4.135  13.158 -1.5780  1.3068 -0.9893
15440TIP3   OH267734   0.331   6.429  13.225 -0.3931  0.3115 -0.2184
15440TIP3    H167735   0.400   6.376  13.267 -0.3157 -0.3156 -1.1092
15440TIP3    H267736   0.352   6.519  13.249 -0.2926 -0.0174  0.9962
15441TIP3   OH267737   3.307   5.108   2.033  0.2153  0.2474 -0.0696
15441TIP3    H167738   3.227   5.077   1.990 -0.1456  1.0725 -0.0144
15441TIP3    H267739   3.329   5.188   1.987  1.1047 -0.0460 -0.1711
15442TIP3   OH267740   6.282   4.977   1.938  0.6260 -0.2164 -0.4433
15442TIP3    H167741   6.187   4.964   1.935  0.4128  1.2843 -1.8574
15442TIP3    H267742   6.314   4.941   1.855  1.6586 -2.7744  0.9591
15443TIP3   OH267743   5.709   2.226   2.391  0.6133  0.1230  0.2419
15443TIP3    H167744   5.742   2.308   2.352 -0.6175  1.2199  1.3966
15443TIP3    H267745   5.635   2.254   2.446  0.7643 -1.6531  1.4242
15444TIP3   OH267746   3.658   4.900   4.279 -0.0906  0.3396 -0.0138
15444TIP3    H167747   3.685   4.883   4.369  0.6773 -0.0164 -0.3026
15444TIP3    H267748   3.650   4.996   4.273 -1.8390  0.2898  0.8884
15445TIP3   OH267749   1.090   2.679   6.119 -0.1965  0.3776  0.0162
15445TIP3    H167750   1.127   2.653   6.203 -1.3248 -1.4070  0.0286
15445TIP3    H267751   1.048   2.764   6.136 -0.8604 -0.2007  1.4181
15446TIP3   OH267752   4.173   5.189  14.434  0.5955 -0.1450 -0.0667
15446TIP3    H167753   4.184   5.153  14.347 -0.3361 -0.2705 -0.1331
15446TIP3    H267754   4.079   5.189  14.450  0.6977  0.5643  0.6455
15447TIP3   OH267755   2.088   1.970   5.086  0.0306 -0.3362  0.0992
15447TIP3    H167756   2.071   2.055   5.127  0.6948 -0.4149  0.5510
15447TIP3    H267757   2.014   1.915   5.113 -0.9016  0.3533 -0.9686
15448TIP3   OH267758   0.293   0.771   1.770  0.0287  0.1064  0.0523
15448TIP3    H167759   0.352   0.827   1.822 -0.4915 -0.6518  1.5182
15448TIP3    H267760   0.244   0.832   1.716  1.8141  0.7928 -0.8525
15449TIP3   OH267761   5.784   3.188   5.178 -0.4803  0.2998  0.1717
15449TIP3    H167762   5.816   3.248   5.246 -2.2737  0.4277  0.9409
15449TIP3    H267763   5.763   3.108   5.225 -2.2676  0.5692 -0.0894
15450TIP3   OH267764   2.108   3.462  11.906  0.1296  0.0811 -1.0603
15450TIP3    H167765   2.045   3.401  11.945  1.3910  0.0812  1.1141
15450TIP3    H267766   2.081   3.469  11.814 -2.4051 -0.6832 -0.4478
15451TIP3   OH267767   5.184   5.267  15.408 -0.0256 -0.0933 -0.0814
15451TIP3    H167768   5.202   5.347  15.358  0.2696  1.0714  1.7996
15451TIP3    H267769   5.262   5.213  15.394 -0.5296 -0.4117 -1.9450
15452TIP3   OH267770   3.118   5.204  13.713 -0.5137 -0.3994 -0.3773
15452TIP3    H167771   3.186   5.270  13.705 -0.3618 -0.3834  0.8125
15452TIP3    H267772   3.163   5.125  13.742 -0.8532 -0.6986 -0.6463
15453TIP3   OH267773   2.272   3.769   1.682  0.2734 -0.1558  0.6499
15453TIP3    H167774   2.304   3.857   1.699 -0.2685  0.1324  0.2047
15453TIP3    H267775   2.256   3.767   1.588 -0.2283 -0.5552  0.7409
15454TIP3   OH267776   6.598   3.498  16.930 -0.7198  0.3040  0.0657
15454TIP3    H167777   6.537   3.438  16.972 -2.2093  1.5621 -0.1994
15454TIP3    H267778   6.683   3.475  16.965 -1.5672 -0.4203  1.7378
15455TIP3   OH267779   0.810   4.482  13.027 -0.1079  0.2094  1.0303
15455TIP3    H167780   0.827   4.399  13.072 -0.8024  1.1649  3.1874
15455TIP3    H267781   0.888   4.497  12.974 -1.6042 -3.8655 -2.9157
15456TIP3   OH267782   5.927   6.499   5.665  0.3962  0.3139 -0.4312
15456TIP3    H167783   5.924   6.443   5.742  1.4775  0.5996 -0.1678
15456TIP3    H267784   5.935   6.437   5.592 -0.4585  0.0512 -0.3124
15457TIP3   OH267785   4.615   4.890  13.021 -0.1472  0.1152  0.2348
15457TIP3    H167786   4.564   4.892  13.101 -0.2558 -0.9844  0.2173
15457TIP3    H267787   4.556   4.924  12.954 -0.9210 -1.2055  0.1996
15458TIP3   OH267788   5.719   2.737   5.446 -0.2947 -0.7681  0.0468
15458TIP3    H167789   5.755   2.678   5.381 -0.9567 -2.1343  0.8748
15458TIP3    H267790   5.784   2.738   5.516  0.8174  1.3541 -0.9211
15459TIP3   OH267791   4.292   6.146  15.617  0.0265 -0.6859 -0.2909
15459TIP3    H167792   4.339   6.226  15.595 -0.2839 -0.0525  1.2504
15459TIP3    H267793   4.302   6.137  15.712 -1.3782 -1.5319 -0.1895
15460TIP3   OH267794   2.239   2.713   1.189  0.1699 -0.4057  0.2742
15460TIP3    H167795   2.312   2.767   1.217  0.8233 -0.5093 -1.1418
15460TIP3    H267796   2.168   2.735   1.250  1.0753  0.4173  1.0638
15461TIP3   OH267797   5.467   5.771  14.501 -0.0761  0.2619 -0.3575
15461TIP3    H167798   5.374   5.793  14.489 -0.4957 -0.3191  1.4858
15461TIP3    H267799   5.475   5.751  14.594  2.2099  1.6941 -0.1544
15462TIP3   OH267800   2.478   5.781  15.118 -0.2314 -0.6000 -0.1924
15462TIP3    H167801   2.452   5.777  15.026 -0.8270 -1.0691 -0.0041
15462TIP3    H267802   2.517   5.868  15.128 -2.4546  0.4652 -0.2770
15463TIP3   OH267803   5.974   5.137  14.563 -0.7475 -0.3956  0.3806
15463TIP3    H167804   5.916   5.101  14.630 -0.3554 -0.9569  0.4252
15463TIP3    H267805   5.927   5.122  14.481 -1.2680  0.3734  0.5246
15464TIP3   OH267806   4.532   4.727   3.510  0.0977 -0.2311 -0.3525
15464TIP3    H167807   4.530   4.654   3.572  2.0002  0.4998  0.6431
15464TIP3    H267808   4.623   4.754   3.507 -0.4595  1.7596 -1.1363
15465TIP3   OH267809   2.438   2.058  13.037 -0.4838  0.1181 -0.1000
15465TIP3    H167810   2.525   2.088  13.062 -0.7647 -1.6670  3.7474
15465TIP3    H267811   2.453   1.978  12.988  0.0553 -0.0101  0.2683
15466TIP3   OH267812   3.040   2.647  10.959  0.3384 -0.1703 -0.3735
15466TIP3    H167813   3.129   2.673  10.937  0.1642  0.2844 -0.5405
15466TIP3    H267814   3.034   2.661  11.054 -0.1777  1.7120 -0.6533
15467TIP3   OH267815   5.248   4.799   5.054 -0.2094 -0.3080 -0.5863
15467TIP3    H167816   5.205   4.762   5.131  1.1438 -1.4250 -0.3120
15467TIP3    H267817   5.218   4.889   5.050 -2.6915 -1.0510 -0.5460
15468TIP3   OH267818   5.049   6.060   2.174 -0.4734 -0.1405 -0.2788
15468TIP3    H167819   5.094   6.010   2.243 -0.5202 -0.4416 -0.4662
15468TIP3    H267820   5.011   6.134   2.220 -2.1834 -1.3561  0.3767
15469TIP3   OH267821   3.576   3.983  16.180 -0.6617  0.1889 -0.3578
15469TIP3    H167822   3.492   3.961  16.138 -0.5668  0.7278 -0.8427
15469TIP3    H267823   3.642   3.957  16.116 -0.4732  0.1824 -0.1600
15470TIP3   OH267824   1.550   4.485   4.667  0.3558 -0.2276 -0.1363
15470TIP3    H167825   1.587   4.546   4.603 -0.4982 -0.0153 -0.4419
15470TIP3    H267826   1.562   4.530   4.751 -0.1000  0.2958 -0.3406
15471TIP3   OH267827   6.539   4.680   0.133  0.1769 -0.2587  0.6088
15471TIP3    H167828   6.563   4.597   0.092 -0.0031 -0.4396  0.8676
15471TIP3    H267829   6.466   4.658   0.191 -1.0962  0.3884 -0.6722
15472TIP3   OH267830   5.414   1.347   2.600  0.0224  0.1806 -0.0596
15472TIP3    H167831   5.405   1.274   2.661  0.4361 -0.9660 -1.3195
15472TIP3    H267832   5.489   1.324   2.545 -0.0934  1.3547 -0.7508
15473TIP3   OH267833   6.274   2.692  11.208 -0.3430  0.4961  0.2024
15473TIP3    H167834   6.183   2.712  11.231 -0.0101  0.6992  1.3978
15473TIP3    H267835   6.271   2.603  11.173 -1.1122  0.7879 -0.4979
15474TIP3   OH267836   4.550   1.194  14.633 -0.0977  0.2379 -0.0406
15474TIP3    H167837   4.597   1.176  14.552  3.5917  1.5769  1.5734
15474TIP3    H267838   4.482   1.127  14.637  1.7497 -1.9909 -2.5766
15475TIP3   OH267839   4.755   0.209   3.701  0.2058  0.1024  0.3371
15475TIP3    H167840   4.747   0.159   3.620  0.1018  0.1542  0.3156
15475TIP3    H267841   4.669   0.248   3.714  0.3455  0.4543  0.2367
15476TIP3   OH267842   1.332   1.020   2.289  0.1143 -0.0232  0.5022
15476TIP3    H167843   1.283   0.986   2.364  0.0275  1.3280  1.0716
15476TIP3    H267844   1.396   1.079   2.327  0.2081  0.5215 -0.4791
15477TIP3   OH267845   3.382   3.947  16.388  0.5188 -0.9837  0.6214
15477TIP3    H167846   3.410   3.968  16.477  1.6971  0.6658 -0.0869
15477TIP3    H267847   3.459   3.962  16.334 -0.1145 -2.1331 -0.6894
15478TIP3   OH267848   4.957   5.431   4.749 -0.1211  0.1688 -0.3401
15478TIP3    H167849   4.909   5.351   4.729  0.7433 -0.2459 -0.7907
15478TIP3    H267850   5.024   5.404   4.812  0.0921  0.5573 -0.3949
15479TIP3   OH267851   6.030   2.011   1.453 -0.0179 -0.0369  0.0295
15479TIP3    H167852   5.960   2.055   1.404 -0.0974 -0.4546 -0.2380
15479TIP3    H267853   6.012   1.917   1.441 -0.3514 -0.1655  1.2893
15480TIP3   OH267854   0.792   6.560   5.266 -0.2676  0.5788  0.8811
15480TIP3    H167855   0.761   6.646   5.294  0.4329  1.1383  0.0178
15480TIP3    H267856   0.815   6.515   5.347 -2.1552  0.5778  1.4638
15481TIP3   OH267857   2.799   0.328   4.442 -0.0400 -0.1434  0.4004
15481TIP3    H167858   2.843   0.246   4.422 -0.4977  0.2445 -2.5289
15481TIP3    H267859   2.862   0.396   4.416 -0.2917  0.4491  1.2890
15482TIP3   OH267860   1.595   6.247  15.342 -0.1648 -0.4639 -0.3673
15482TIP3    H167861   1.688   6.252  15.364  0.0041  2.6182 -1.2591
15482TIP3    H267862   1.594   6.214  15.252  0.0101 -1.0505 -0.1577
15483TIP3   OH267863   4.367   1.082  15.325 -0.0528 -0.6492  0.5051
15483TIP3    H167864   4.288   1.028  15.330 -0.1504 -0.6364 -0.6847
15483TIP3    H267865   4.346   1.150  15.261  0.5160  0.0679  1.0576
15484TIP3   OH267866   1.355   5.499  15.783 -0.2347 -0.0810 -0.0340
15484TIP3    H167867   1.419   5.501  15.712  0.3005  0.8072  0.4535
15484TIP3    H267868   1.298   5.574  15.765 -1.3608 -1.0330 -0.6332
15485TIP3   OH267869   1.748   6.569  14.793 -0.0168  0.3154 -0.0571
15485TIP3    H167870   1.751   6.650  14.843 -2.1971  1.2220 -1.2308
15485TIP3    H267871   1.664   6.529  14.816 -0.3306 -0.0689 -1.7258
15486TIP3   OH267872   1.786   1.222   1.920  0.0091 -0.5644  0.1248
15486TIP3    H167873   1.702   1.176   1.916 -1.9812  2.6948  0.5107
15486TIP3    H267874   1.779   1.278   1.997  2.2831  0.3100 -0.2317
15487TIP3   OH267875   5.567   5.979   0.450 -0.3944  0.5825 -0.4707
15487TIP3    H167876   5.610   5.907   0.403  0.6624  0.5409  0.5139
15487TIP3    H267877   5.623   6.055   0.433 -0.9469  0.9511 -0.6628
15488TIP3   OH267878   3.277   2.700  14.640 -0.0648  0.1870  0.7767
15488TIP3    H167879   3.217   2.647  14.694 -0.3367  0.8243  1.1180
15488TIP3    H267880   3.347   2.725  14.700  0.1778  0.0311  0.5586
15489TIP3   OH267881   1.762   4.954   1.923  0.0039  0.6385 -0.1993
15489TIP3    H167882   1.849   4.950   1.964 -0.6822 -1.2359  1.1773
15489TIP3    H267883   1.775   5.009   1.846  2.2786  0.8971  0.2963
15490TIP3   OH267884   0.592   4.523  11.049 -0.1811  0.1566 -0.6858
15490TIP3    H167885   0.538   4.468  10.993  0.4690 -1.8445  0.5615
15490TIP3    H267886   0.529   4.583  11.090 -0.6728  1.6468 -3.3973
15491TIP3   OH267887   5.994   1.152   0.961 -0.6389  0.3956  0.2504
15491TIP3    H167888   6.058   1.152   0.889 -1.1076 -1.5902 -0.2321
15491TIP3    H267889   5.909   1.165   0.918 -0.8522 -0.1109  0.5053
15492TIP3   OH267890   3.605   4.354   1.754  0.1322 -0.4516  0.2971
15492TIP3    H167891   3.613   4.305   1.672 -1.7456  0.6390 -0.6002
15492TIP3    H267892   3.658   4.432   1.742 -0.6973  0.0511 -0.1875
15493TIP3   OH267893   5.274   4.766  15.419 -0.2533 -0.0289 -0.1953
15493TIP3    H167894   5.306   4.848  15.456  0.2124 -0.8039  1.1666
15493TIP3    H267895   5.330   4.699  15.458 -0.1199 -0.9511 -1.8766
15494TIP3   OH267896   4.488   0.486  14.929 -0.1848 -0.1380 -0.1014
15494TIP3    H167897   4.416   0.482  14.992 -0.2312 -0.8880 -0.1960
15494TIP3    H267898   4.553   0.542  14.971 -0.4547 -0.1670  0.3700
15495TIP3   OH267899   6.124   4.011   5.396 -0.0666  0.6411  0.1631
15495TIP3    H167900   6.105   4.063   5.474  0.7828 -0.0831  0.8795
15495TIP3    H267901   6.198   3.956   5.422 -1.6179 -1.7549 -0.1783
15496TIP3   OH267902   0.693   4.428  11.423  0.3700  0.1408 -0.1155
15496TIP3    H167903   0.623   4.442  11.487  0.2976  0.7167 -0.3202
15496TIP3    H267904   0.764   4.484  11.452  0.7784 -0.4855  0.1212
15497TIP3   OH267905   1.264   1.696   4.701 -1.1647  0.1858 -0.1029
15497TIP3    H167906   1.226   1.656   4.780  0.8657  1.1635  1.4699
15497TIP3    H267907   1.258   1.790   4.716  1.4128  0.3921  0.0733
15498TIP3   OH267908   3.671   5.413  10.927 -0.1020 -0.6335  0.4870
15498TIP3    H167909   3.743   5.459  10.883 -0.4074 -0.1002  0.5383
15498TIP3    H267910   3.708   5.329  10.951  1.1029  0.3362  2.2111
15499TIP3   OH267911   1.178   0.046   2.107 -0.0310 -0.1845  0.0239
15499TIP3    H167912   1.196   0.128   2.154 -1.6696  0.1293  0.1506
15499TIP3    H267913   1.194  -0.023   2.172  1.6723 -0.0361 -0.1744
15500TIP3   OH267914   3.208   5.350   2.249  0.1698 -0.3002 -0.4156
15500TIP3    H167915   3.274   5.343   2.180  0.3555 -1.1445 -0.1747
15500TIP3    H267916   3.190   5.443   2.257  1.4063 -0.0485 -0.4310
15501TIP3   OH267917   5.056   2.413   1.037  0.2471 -0.0603  0.0473
15501TIP3    H167918   4.992   2.368   0.981  1.3271  1.5933 -2.7117
15501TIP3    H267919   5.092   2.482   0.981  1.6474  1.5580  2.7583
15502TIP3   OH267920   5.439   2.517   5.308 -0.2975  0.0339 -0.1986
15502TIP3    H167921   5.362   2.524   5.363  0.1737 -1.0307  0.6423
15502TIP3    H267922   5.458   2.423   5.305  0.4060  0.1882 -1.1809
15503TIP3   OH267923   6.209   1.307   4.715  0.0656  0.6190 -0.1273
15503TIP3    H167924   6.282   1.256   4.681  0.1957  1.3185 -0.9292
15503TIP3    H267925   6.211   1.292   4.810 -0.2550 -1.2928 -0.3980
15504TIP3   OH267926   2.091   4.917  11.689  0.4774  0.0958 -0.0809
15504TIP3    H167927   2.082   5.003  11.649 -1.2346 -0.8330 -1.8250
15504TIP3    H267928   2.008   4.902  11.734 -0.2872 -1.5690 -1.8657
15505TIP3   OH267929   2.272   6.710  13.988 -0.1469  0.1772  0.2540
15505TIP3    H167930   2.326   6.717  14.067 -1.3393 -1.6958  1.3153
15505TIP3    H267931   2.207   6.779  13.997 -0.6669 -0.4211  1.2643
15506TIP3   OH267932   3.997   5.412   3.793 -0.2450 -0.2852 -0.1956
15506TIP3    H167933   4.035   5.455   3.716 -1.3648  0.0790 -0.5665
15506TIP3    H267934   4.065   5.351   3.822  1.3759  1.6589  0.3181
15507TIP3   OH267935   3.050   2.717  15.681 -0.2229  0.8163  0.5501
15507TIP3    H167936   3.117   2.691  15.618 -0.3557 -0.5306  0.9181
15507TIP3    H267937   2.967   2.706  15.634 -0.2699  0.7259  0.6528
15508TIP3   OH267938   4.164   6.040   3.913  0.0970 -0.3967 -0.7846
15508TIP3    H167939   4.238   6.068   3.860  1.8367  1.7089  2.4000
15508TIP3    H267940   4.178   5.947   3.928  0.9164 -0.4691 -1.9561
15509TIP3   OH267941   1.070   2.504   1.631  0.0890 -0.5187  0.5357
15509TIP3    H167942   1.109   2.573   1.577 -3.4500  0.8022 -0.6213
15509TIP3    H267943   1.050   2.546   1.714 -0.3946 -0.6573  0.4945
15510TIP3   OH267944   2.931   0.019   4.197 -0.0081  0.0315 -0.5053
15510TIP3    H167945   2.984  -0.060   4.203 -0.1046 -0.3695 -3.4906
15510TIP3    H267946   2.843  -0.013   4.174 -0.3648  0.9411 -0.4486
15511TIP3   OH267947   6.611   1.231   6.148 -0.5443 -0.2565  0.1008
15511TIP3    H167948   6.645   1.188   6.226 -0.5892  2.0872  1.5230
15511TIP3    H267949   6.526   1.267   6.176  0.1314  1.9496 -0.4921
15512TIP3   OH267950   0.581   4.584  15.272  0.0578 -0.1392  0.9232
15512TIP3    H167951   0.497   4.561  15.311 -0.0740  0.2133  0.8499
15512TIP3    H267952   0.622   4.500  15.252 -0.6272 -0.3120  0.1870
15513TIP3   OH267953   4.213   5.638   5.518  0.3448 -0.1900 -0.5985
15513TIP3    H167954   4.126   5.640   5.558 -0.0363  0.4850 -1.4154
15513TIP3    H267955   4.196   5.648   5.424  1.3670  1.4105 -0.6487
15514TIP3   OH267956   0.139   0.970   3.557 -0.9964 -0.0072  0.1148
15514TIP3    H167957   0.208   1.034   3.576 -0.8555 -0.3668  0.8408
15514TIP3    H267958   0.058   1.020   3.566 -0.8337  0.5574 -1.2978
15515TIP3   OH267959   6.129   3.991  16.387 -0.2895  0.5820 -0.2796
15515TIP3    H167960   6.142   4.036  16.470  2.3627  0.4433 -0.5401
15515TIP3    H267961   6.158   4.053  16.321 -0.2770 -0.1049 -0.9319
15516TIP3   OH267962   6.424   1.288  12.988 -0.0347 -0.3965  0.0553
15516TIP3    H167963   6.458   1.307  13.076  2.3884 -0.6548 -0.7625
15516TIP3    H267964   6.371   1.209  13.000  1.1798 -1.0906  1.1231
15517TIP3   OH267965   2.824   1.630   5.263  0.4241  0.1864 -0.0375
15517TIP3    H167966   2.773   1.685   5.204 -0.2746 -1.2966 -0.8618
15517TIP3    H267967   2.898   1.600   5.210  1.6612  1.5328  0.8611
15518TIP3   OH267968   5.939   3.855   2.263 -0.0759 -0.2018 -0.4905
15518TIP3    H167969   5.912   3.870   2.173  0.1618 -1.5889 -0.8134
15518TIP3    H267970   5.958   3.762   2.268  2.8764  0.3153  0.1814
15519TIP3   OH267971   3.155   5.321  11.354 -0.1660 -0.5807  0.4639
15519TIP3    H167972   3.063   5.301  11.373 -0.3846 -3.3726 -2.6338
15519TIP3    H267973   3.204   5.247  11.391  0.9332  0.8307  2.0025
15520TIP3   OH267974   4.961   4.530   2.732  0.4078 -0.0509 -0.3094
15520TIP3    H167975   4.919   4.491   2.808  0.3397 -0.3138 -0.4792
15520TIP3    H267976   4.926   4.619   2.728 -0.0172 -0.2177 -0.3601
15521TIP3   OH267977   2.946   3.387   3.774 -0.1999 -0.0438 -0.1444
15521TIP3    H167978   2.929   3.402   3.867  0.9411 -1.5569  0.3502
15521TIP3    H267979   3.041   3.378   3.768  0.0091  2.3369 -1.8562
15522TIP3   OH267980   1.405   5.981  16.060  0.5939 -1.4831 -0.3175
15522TIP3    H167981   1.327   5.936  16.025 -0.0605 -1.5740  1.1712
15522TIP3    H267982   1.404   6.067  16.017 -1.3096 -0.8370  0.8914
15523TIP3   OH267983   4.658   3.922  12.924 -0.3361 -0.3375  0.8298
15523TIP3    H167984   4.725   3.854  12.930  0.0197 -0.0389  0.3567
15523TIP3    H267985   4.705   4.000  12.894 -1.2544 -0.7521 -2.0436
15524TIP3   OH267986   3.678   2.052  12.875  0.1244 -0.8470  0.6227
15524TIP3    H167987   3.591   2.079  12.904  0.4192  0.5273  0.3076
15524TIP3    H267988   3.679   1.957  12.886 -1.4408 -0.8951  0.5316
15525TIP3   OH267989   1.307   5.710  15.460  0.0920  0.3836  0.0649
15525TIP3    H167990   1.266   5.721  15.373 -1.6872 -0.4805  0.7287
15525TIP3    H267991   1.234   5.720  15.521  0.8644 -1.2841  1.3310
15526TIP3   OH267992   1.516   1.629  13.672 -0.5110  0.1655 -0.6517
15526TIP3    H167993   1.508   1.534  13.683  0.5785 -0.1605 -2.3804
15526TIP3    H267994   1.609   1.645  13.659 -0.6438  1.5176 -0.1403
15527TIP3   OH267995   0.739   4.080   4.567 -0.4650  0.5048  0.5108
15527TIP3    H167996   0.701   4.048   4.485  1.2685 -0.7300  0.1323
15527TIP3    H267997   0.833   4.081   4.551  0.1038 -1.5666  3.0216
15528TIP3   OH267998   3.636   4.261   0.955  0.3470  0.3730  0.1844
15528TIP3    H167999   3.722   4.265   0.913  0.3194 -0.9259 -0.0547
15528TIP3    H268000   3.655   4.253   1.049  0.6074 -2.1889 -0.0177
15529TIP3   OH268001   3.676   3.323   1.428 -0.3758 -0.6141  0.0276
15529TIP3    H168002   3.771   3.333   1.428 -0.6112  3.2648 -0.5336
15529TIP3    H268003   3.660   3.241   1.475  3.2058 -1.4646  0.0392
15530TIP3   OH268004   1.245   3.443  15.332 -0.2764 -0.1035  0.1991
15530TIP3    H168005   1.333   3.481  15.322 -0.1954 -0.3977 -0.2189
15530TIP3    H268006   1.242   3.372  15.268 -0.8510 -0.0465  0.1582
15531TIP3   OH268007   0.255   1.601   1.666  0.2253 -0.1133  0.7759
15531TIP3    H168008   0.202   1.611   1.746 -2.0993 -1.5767 -0.4683
15531TIP3    H268009   0.345   1.594   1.698 -0.4697  0.6987  3.1599
15532TIP3   OH268010   2.956   5.806   5.810 -0.3952 -0.1518  0.1410
15532TIP3    H168011   2.909   5.791   5.892 -0.9310  0.3035 -0.0682
15532TIP3    H268012   2.975   5.719   5.776  0.1378 -0.3489  0.9137
15533TIP3   OH268013   4.334   4.258   3.313 -0.0869 -0.1089  0.0402
15533TIP3    H168014   4.241   4.250   3.292 -0.2771 -0.8732  1.0813
15533TIP3    H268015   4.357   4.173   3.349  0.8551  0.2962  0.4102
15534TIP3   OH268016   2.607   1.705  13.383  0.1107  0.1790  0.1661
15534TIP3    H168017   2.540   1.768  13.355 -0.6743 -0.6654  0.0900
15534TIP3    H268018   2.579   1.622  13.344 -0.7211 -0.9347  2.8923
15535TIP3   OH268019   2.250   1.928  12.770  0.5505  0.8012  0.3999
15535TIP3    H168020   2.228   1.909  12.679  0.0100  0.2638  0.6435
15535TIP3    H268021   2.208   2.013  12.787 -0.2424  0.3970  0.4704
15536TIP3   OH268022   4.554   3.543  15.159  0.7979 -0.0314 -0.2411
15536TIP3    H168023   4.536   3.525  15.067  0.2979  0.1579 -0.1846
15536TIP3    H268024   4.516   3.630  15.175  0.3207 -0.3259  0.2901
15537TIP3   OH268025   3.972   4.816  15.515 -0.0880 -0.0917 -0.0792
15537TIP3    H168026   4.042   4.844  15.573  0.8534 -1.0188 -0.7331
15537TIP3    H268027   3.900   4.793  15.574 -1.5534  4.8731  0.5230
15538TIP3   OH268028   4.858   4.740  11.392  0.2740 -0.8211  0.2302
15538TIP3    H168029   4.818   4.774  11.312  1.0082  0.1137  0.2426
15538TIP3    H268030   4.950   4.726  11.368  0.9912  1.4073  1.4474
15539TIP3   OH268031   3.082   1.974   3.682 -0.1803  0.0136 -0.0688
15539TIP3    H168032   3.158   2.003   3.631  0.0486  1.4555  1.0152
15539TIP3    H268033   3.099   1.881   3.699  2.5194  0.7162  1.9681
15540TIP3   OH268034   4.390   5.027   3.095  0.1000 -0.2110  0.7095
15540TIP3    H168035   4.393   5.060   3.185 -0.4040 -2.1174  1.4784
15540TIP3    H268036   4.443   5.090   3.045  1.7869  0.0306  2.6318
15541TIP3   OH268037   6.455   0.431  14.651 -0.0058 -0.1994  0.1033
15541TIP3    H168038   6.490   0.361  14.706 -0.9929  0.9057  2.2556
15541TIP3    H268039   6.471   0.511  14.700 -0.7839  0.8939 -1.3283
15542TIP3   OH268040   1.046   5.296   2.962  0.5195  0.4102  0.3786
15542TIP3    H168041   1.102   5.371   2.981  2.3820 -1.0629  1.1064
15542TIP3    H268042   1.036   5.252   3.047  0.7400 -0.9707 -0.2877
15543TIP3   OH268043   6.098   4.397   5.459  0.9594  0.3807  0.4113
15543TIP3    H168044   6.007   4.428   5.463  0.8729  0.0599  1.0178
15543TIP3    H268045   6.094   4.307   5.492  1.5878  0.5724  1.0367
15544TIP3   OH268046   0.554   4.912  12.588 -0.2770  0.0420 -0.0176
15544TIP3    H168047   0.526   4.957  12.508  2.3843 -0.4157 -1.3229
15544TIP3    H268048   0.527   4.821  12.575 -1.3452  0.2933  0.3952
15545TIP3   OH268049   1.776   2.204  16.081  0.3903 -0.3578  0.5133
15545TIP3    H168050   1.732   2.222  15.998  0.2575 -0.9220  0.4600
15545TIP3    H268051   1.741   2.270  16.141 -0.9680 -1.1255  0.6172
15546TIP3   OH268052   2.155   0.676  12.038  0.0698 -0.1270  0.2831
15546TIP3    H168053   2.067   0.684  12.076  0.1864 -1.1679  0.8061
15546TIP3    H268054   2.214   0.681  12.113  0.3158 -1.9112  0.2564
15547TIP3   OH268055   1.762   4.562  14.897 -0.1314 -0.0164 -0.2952
15547TIP3    H168056   1.845   4.544  14.942 -0.8644 -2.0355  0.3583
15547TIP3    H268057   1.711   4.612  14.961 -0.2482 -0.7432  0.1911
15548TIP3   OH268058   2.413   3.339  12.497  0.6170  0.5421 -0.4598
15548TIP3    H168059   2.374   3.420  12.530  0.4075 -0.2070  1.2708
15548TIP3    H268060   2.435   3.290  12.576 -1.0642 -1.9452 -1.4188
15549TIP3   OH268061   1.010   0.989   1.616 -0.1213  0.0540  0.0186
15549TIP3    H168062   0.945   0.984   1.686  0.8374 -1.2335  0.8885
15549TIP3    H268063   1.007   0.902   1.575 -0.0361  0.4983 -0.9427
15550TIP3   OH268064   2.732   1.936   6.719  0.0585  0.1298  0.2348
15550TIP3    H168065   2.650   1.893   6.740 -0.0983  0.3420  0.0623
15550TIP3    H268066   2.786   1.868   6.679  0.3113 -0.2460  1.1855
15551TIP3   OH268067   6.560   2.433  16.436 -0.0029  0.1191 -0.5657
15551TIP3    H168068   6.639   2.458  16.485  0.9800 -1.8566 -1.0575
15551TIP3    H268069   6.496   2.412  16.504  0.0327  1.2664 -0.1549
15552TIP3   OH268070   1.261   1.376   5.896 -0.0835 -0.1219 -0.1246
15552TIP3    H168071   1.177   1.350   5.934 -0.0037  1.0918  0.9669
15552TIP3    H268072   1.324   1.363   5.966  0.5987 -0.6569 -0.8169
15553TIP3   OH268073   1.946   5.151   5.331 -0.2290  0.0305  0.2192
15553TIP3    H168074   2.027   5.193   5.361  0.2811 -1.3231  0.8267
15553TIP3    H268075   1.973   5.097   5.257 -0.5908 -0.3291  0.3450
15554TIP3   OH268076   2.095   1.434  13.564  0.8401 -0.0047 -0.2034
15554TIP3    H168077   2.023   1.401  13.618 -0.1462 -1.4967 -2.2959
15554TIP3    H268078   2.078   1.528  13.556  0.3866  0.0441  1.1260
15555TIP3   OH268079   3.392   5.500  17.052  0.3108  0.0244  0.5784
15555TIP3    H168080   3.453   5.467  16.985 -0.4405 -2.0866  0.8495
15555TIP3    H268081   3.376   5.591  17.027  2.1833  0.1145 -0.5027
15556TIP3   OH268082   2.532   2.813  10.755  0.0890  0.1680  0.5812
15556TIP3    H168083   2.587   2.880  10.715  1.0322 -0.6496  0.4778
15556TIP3    H268084   2.473   2.862  10.812  1.5643  0.9978  1.4500
15557TIP3   OH268085   0.753   6.219  14.911  0.0629 -0.0373  0.2072
15557TIP3    H168086   0.715   6.143  14.953 -0.4301  0.8512  1.4169
15557TIP3    H268087   0.842   6.192  14.887 -0.4183 -1.2746 -0.2421
15558TIP3   OH268088   3.084   0.902  15.447  0.2581 -0.3973  0.2395
15558TIP3    H168089   3.090   0.978  15.505 -2.1643 -0.3479  0.5257
15558TIP3    H268090   3.103   0.937  15.360  0.4009  0.2913  0.5376
15559TIP3   OH268091   2.760   3.337  15.291  0.7059  0.0881 -0.3191
15559TIP3    H168092   2.718   3.403  15.347  0.7258  1.3317 -1.6767
15559TIP3    H268093   2.695   3.320  15.223  0.9906 -0.7646 -0.3830
15560TIP3   OH268094   4.182   3.966   5.250  0.6162 -0.4865  0.0245
15560TIP3    H168095   4.268   4.002   5.266  0.9868 -0.8377 -1.0844
15560TIP3    H268096   4.124   4.014   5.310  1.3595  0.6559 -0.1476
15561TIP3   OH268097   1.970   0.746  16.956  0.1105 -0.0243  0.2955
15561TIP3    H168098   1.978   0.662  17.002  1.4173 -0.0381  0.0872
15561TIP3    H268099   2.060   0.779  16.950 -0.0611  0.1870 -1.8586
15562TIP3   OH268100   1.409   5.541   2.349  0.3362 -0.7158  0.6213
15562TIP3    H168101   1.410   5.457   2.305 -2.1262  0.4752 -2.0418
15562TIP3    H268102   1.465   5.597   2.296  0.1947 -0.1250  1.0764
15563TIP3   OH268103   1.756   2.666   3.217  0.2799  0.1275  0.0657
15563TIP3    H168104   1.840   2.664   3.171 -0.4858  1.5813 -1.5146
15563TIP3    H268105   1.702   2.727   3.166 -1.8728 -1.0527  0.8163
15564TIP3   OH268106   6.603   4.649   3.042  0.1049  0.1927 -0.0557
15564TIP3    H168107   6.667   4.669   3.110 -0.0479 -1.3202  0.5586
15564TIP3    H268108   6.648   4.672   2.960  1.2886 -0.4422  0.3870
15565TIP3   OH268109   6.529   4.363   5.471  0.3304  0.5233 -0.0128
15565TIP3    H168110   6.509   4.363   5.565  1.0471  0.9492  0.1493
15565TIP3    H268111   6.444   4.371   5.428  0.1061  1.8094  0.6374
15566TIP3   OH268112   1.127   5.919   0.746 -0.0875  0.0818  0.1229
15566TIP3    H168113   1.202   5.875   0.706  0.6325  0.6275  0.8251
15566TIP3    H268114   1.149   5.924   0.839 -1.2397 -0.2154  0.4322
15567TIP3   OH268115   1.698   2.722  11.570  0.0518  0.0808  0.2480
15567TIP3    H168116   1.703   2.753  11.660 -0.0460 -0.4935  0.4499
15567TIP3    H268117   1.651   2.792  11.524 -0.4459  0.0937  0.7640
15568TIP3   OH268118   1.373   5.180   2.409 -0.2647  0.0338 -0.0542
15568TIP3    H168119   1.419   5.153   2.489  2.4331  1.4270 -1.0179
15568TIP3    H268120   1.400   5.117   2.343 -2.4640 -1.0948  0.0121
15569TIP3   OH268121   0.723   0.432  16.356 -0.3634 -0.1350  0.4196
15569TIP3    H168122   0.720   0.524  16.329 -0.0467 -0.1224  0.4324
15569TIP3    H268123   0.631   0.409  16.371 -0.5477 -0.1766 -0.7524
15570TIP3   OH268124   1.338   2.999  10.757 -0.0651 -0.3132  0.4019
15570TIP3    H168125   1.426   3.037  10.754  0.3261 -1.1237  1.0322
15570TIP3    H268126   1.279   3.073  10.741  0.7599 -0.0187 -1.5475
15571TIP3   OH268127   2.398   0.665   5.002 -0.4345  0.6555 -0.0072
15571TIP3    H168128   2.354   0.731   5.054 -0.2970  0.7519 -0.0110
15571TIP3    H268129   2.465   0.713   4.953  0.6689  0.3081  1.1186
15572TIP3   OH268130   3.536   3.784  11.074  0.1358  0.9769  0.2533
15572TIP3    H168131   3.445   3.756  11.065  0.1198  1.2301 -0.4000
15572TIP3    H268132   3.585   3.702  11.079 -0.2078  0.8239  1.6213
15573TIP3   OH268133   2.431   0.955  13.180 -0.6737 -0.2410  0.2473
15573TIP3    H168134   2.353   0.940  13.126  0.1599 -0.1220 -1.0485
15573TIP3    H268135   2.408   1.027  13.237 -0.8461  1.2653 -1.6090
15574TIP3   OH268136   5.167   0.161  13.302 -0.1211  0.1824 -0.5895
15574TIP3    H168137   5.254   0.128  13.324 -0.0483  0.2462 -0.7743
15574TIP3    H268138   5.174   0.185  13.209 -0.7266 -1.0825 -0.9876
15575TIP3   OH268139   2.708   4.487  16.428 -0.0885 -1.0747 -0.0786
15575TIP3    H168140   2.709   4.514  16.520  1.2327  2.0941 -0.8723
15575TIP3    H268141   2.797   4.454  16.413 -0.1479 -1.1116 -0.3433
15576TIP3   OH268142   0.007   2.187  16.459 -0.0900 -0.4836  0.2320
15576TIP3    H168143  -0.037   2.214  16.540 -0.2982  0.0161 -0.0418
15576TIP3    H268144  -0.009   2.259  16.398 -1.1245 -1.4509 -0.6995
15577TIP3   OH268145   2.372   6.463  13.489  0.3190 -0.2966  0.6340
15577TIP3    H168146   2.367   6.425  13.576  0.8371  0.3295  0.9436
15577TIP3    H268147   2.297   6.523  13.485 -0.2947 -1.0624  0.2699
15578TIP3   OH268148   1.000   1.218  15.104  0.2633 -0.0532 -0.1233
15578TIP3    H168149   1.052   1.156  15.155 -0.0887  0.6702  1.1413
15578TIP3    H268150   1.000   1.298  15.156 -2.7708 -0.2584  0.3755
15579TIP3   OH268151   1.084   2.262  14.618  0.0465  0.2057 -0.2435
15579TIP3    H168152   1.056   2.190  14.562 -0.4707  0.1292  0.1040
15579TIP3    H268153   1.149   2.223  14.676 -2.0754 -0.6753  1.6860
15580TIP3   OH268154   6.333   4.894  11.278  0.4987 -0.0512  0.3624
15580TIP3    H168155   6.429   4.897  11.268  0.9367 -2.3919  2.7406
15580TIP3    H268156   6.315   4.949  11.354  0.1703 -0.7180  0.7809
15581TIP3   OH268157   0.347   3.515   0.899 -0.1189  0.1525  1.0192
15581TIP3    H168158   0.375   3.531   0.810 -0.4222  1.8061  1.1860
15581TIP3    H268159   0.409   3.564   0.954  0.1472 -0.9471  1.7346
15582TIP3   OH268160   4.176   3.040  13.954  0.2371 -0.0410  0.3662
15582TIP3    H168161   4.205   3.010  14.040  0.7464 -2.4177 -0.5716
15582TIP3    H268162   4.256   3.041  13.900 -0.2741  0.2451 -0.4086
15583TIP3   OH268163   5.452   0.099  13.393 -0.5687  0.2583  0.2395
15583TIP3    H168164   5.546   0.118  13.394 -0.5101  0.5356 -2.2784
15583TIP3    H268165   5.433   0.065  13.480  2.4983 -2.8447 -0.0880
15584TIP3   OH268166   2.894   4.998  11.342  0.3669  0.1680 -1.0479
15584TIP3    H168167   2.978   4.971  11.304  0.6107  0.8188 -0.9849
15584TIP3    H268168   2.847   4.916  11.358  0.8992 -0.1894 -1.2944
15585TIP3   OH268169   5.222   4.102   0.752  0.4091  0.6387  0.7949
15585TIP3    H168170   5.291   4.110   0.818  0.1729  1.4533  0.9427
15585TIP3    H268171   5.267   4.114   0.669  0.7936 -0.8663  0.7539
15586TIP3   OH268172   1.135   0.253  11.442 -0.2441 -0.5198  0.1880
15586TIP3    H168173   1.047   0.236  11.473 -0.1196 -1.0146  0.2785
15586TIP3    H268174   1.186   0.177  11.470  0.2150 -0.2325  0.1551
15587TIP3   OH268175   5.776   3.896   0.096  0.2245 -0.2824 -0.1875
15587TIP3    H168176   5.706   3.845   0.138  0.3656 -0.0944  0.2880
15587TIP3    H268177   5.807   3.840   0.025  1.4802 -1.5840  1.3101
15588TIP3   OH268178   0.728   0.477  14.245 -0.1268 -0.1213  0.1215
15588TIP3    H168179   0.776   0.399  14.270  0.4205 -0.2876 -1.3929
15588TIP3    H268180   0.641   0.445  14.221 -0.4548 -0.0365  1.1565
15589TIP3   OH268181   2.718   2.819   5.683  0.2063 -0.2061  0.2863
15589TIP3    H168182   2.700   2.905   5.720  0.6231 -0.4669  1.1214
15589TIP3    H268183   2.767   2.773   5.751 -1.4453 -1.7096  0.5244
15590TIP3   OH268184   4.763   2.956   3.856 -0.3679  0.1909 -0.1108
15590TIP3    H168185   4.762   2.967   3.951 -1.8898 -1.5346  0.1211
15590TIP3    H268186   4.752   3.045   3.821 -0.0304  0.8143  1.3109
15591TIP3   OH268187   5.389   1.715  12.582  0.2811 -0.2794 -0.6656
15591TIP3    H168188   5.338   1.797  12.580 -0.5454 -0.7712 -0.2292
15591TIP3    H268189   5.480   1.744  12.571 -0.0945  0.6024 -1.6503
15592TIP3   OH268190   5.901   6.253  11.121  0.1552  0.0290  0.5125
15592TIP3    H168191   5.973   6.286  11.067  0.6899 -2.8494 -0.7070
15592TIP3    H268192   5.825   6.305  11.094  1.6600  3.2510  1.9426
15593TIP3   OH268193   2.985   1.907   3.244  0.5568  0.7748 -0.4473
15593TIP3    H168194   2.903   1.952   3.262  1.5844  1.9325  1.8049
15593TIP3    H268195   3.049   1.978   3.233  1.6292 -0.0895 -0.0220
15594TIP3   OH268196   4.774   0.027  11.424  0.4701  0.2797 -0.2552
15594TIP3    H168197   4.866   0.003  11.441  0.3709  1.4021  2.3032
15594TIP3    H268198   4.744   0.066  11.506 -2.2385  0.2250 -1.1315
15595TIP3   OH268199   3.856   5.932  14.307 -0.1383 -0.2593 -0.0636
15595TIP3    H168200   3.863   5.915  14.401  0.9656 -0.8976 -0.2307
15595TIP3    H268201   3.797   6.006  14.299 -1.6026 -1.2553  1.0297
15596TIP3   OH268202   1.296   2.739  12.336  0.3095  0.4274  0.4745
15596TIP3    H168203   1.371   2.797  12.323 -0.7359  1.5182 -1.0223
15596TIP3    H268204   1.225   2.797  12.362 -0.5730 -0.2621 -0.3093
15597TIP3   OH268205   6.022   5.952   2.326 -0.2520 -0.5356 -0.2933
15597TIP3    H168206   5.926   5.951   2.324 -0.2613  0.0006 -1.2665
15597TIP3    H268207   6.045   5.929   2.416 -1.3226  0.3341  0.2294
15598TIP3   OH268208   4.381   2.333   2.226  0.6583 -0.7085 -0.3133
15598TIP3    H168209   4.292   2.365   2.235  0.0498 -2.1081 -1.0724
15598TIP3    H268210   4.403   2.297   2.312  1.3362  1.5260  0.5436
15599TIP3   OH268211   3.453   5.473  11.272  0.2808 -0.7251 -0.0631
15599TIP3    H168212   3.501   5.479  11.355 -1.4796  0.1007  0.9599
15599TIP3    H268213   3.490   5.397  11.228  2.4428 -0.1776  0.6762
15600TIP3   OH268214   6.577   6.191   3.553 -0.0526  0.3967 -0.3067
15600TIP3    H168215   6.569   6.286   3.556  1.5525  0.5487  1.7296
15600TIP3    H268216   6.527   6.160   3.629  1.2511 -0.1594  0.3682
15601TIP3   OH268217   6.364   1.324   5.745 -0.1453 -0.3334 -0.2427
15601TIP3    H168218   6.447   1.368   5.763  0.2748 -0.6744 -1.2940
15601TIP3    H268219   6.356   1.258   5.813  0.3666 -0.1906 -0.0447
15602TIP3   OH268220   2.041   0.780  14.254  0.0039  0.0041 -0.2593
15602TIP3    H168221   2.096   0.702  14.245  2.3806  1.0947  2.9504
15602TIP3    H268222   1.978   0.757  14.322 -0.0777  0.5052 -0.1624
15603TIP3   OH268223   0.034   6.242  14.793 -0.0089 -0.1410  1.1295
15603TIP3    H168224   0.122   6.207  14.807  0.4128  0.8189  1.0134
15603TIP3    H268225   0.014   6.290  14.873 -1.6219 -2.6368  2.3553
15604TIP3   OH268226   0.059   4.469   0.077  0.5220 -0.0052 -0.5309
15604TIP3    H168227  -0.017   4.438   0.126 -0.0592  0.5487 -1.0758
15604TIP3    H268228   0.133   4.424   0.118 -0.0089  0.0175  0.4934
15605TIP3   OH268229   6.217   3.077   3.025 -0.3000 -0.0765  0.7389
15605TIP3    H168230   6.192   3.091   3.117 -0.2171  1.0185  0.6181
15605TIP3    H268231   6.163   3.004   2.996 -0.8783  0.0553  1.4498
15606TIP3   OH268232   4.886   6.026   1.870  0.3865  0.1462  0.7629
15606TIP3    H168233   4.963   5.970   1.855 -0.8933 -2.3810  2.7146
15606TIP3    H268234   4.922   6.113   1.885  2.6947 -0.5482 -0.3456
15607TIP3   OH268235   6.325   1.119   5.960 -0.2331 -0.8526 -0.0479
15607TIP3    H168236   6.343   1.025   5.960  0.9830 -0.6327 -0.3794
15607TIP3    H268237   6.249   1.129   6.018 -1.8786 -2.3042 -1.8130
15608TIP3   OH268238   5.897   2.540  16.111 -0.4720 -0.1385 -0.2740
15608TIP3    H168239   5.847   2.460  16.091 -0.0346 -0.0461 -1.8311
15608TIP3    H268240   5.988   2.512  16.110 -0.2726  0.5199 -1.5584
15609TIP3   OH268241   5.929   0.566   0.211  0.4473  0.5076  0.0340
15609TIP3    H168242   5.834   0.571   0.203  0.4295 -0.5137 -0.6406
15609TIP3    H268243   5.961   0.564   0.121  1.0964  0.6743  0.2517
15610TIP3   OH268244   5.754   1.774  11.525 -0.0128  0.1127  0.3616
15610TIP3    H168245   5.668   1.736  11.510  1.2932 -1.9479 -3.0683
15610TIP3    H268246   5.810   1.699  11.546  1.4971  0.9832 -0.3900
15611TIP3   OH268247   3.976   4.192   2.146 -0.2101  0.0690  0.6910
15611TIP3    H168248   3.946   4.122   2.088  1.8759  0.2078 -0.6740
15611TIP3    H268249   3.900   4.248   2.158 -2.2457 -2.8647  2.6497
15612TIP3   OH268250   5.595   4.595   2.826 -0.1685 -0.3476  0.1592
15612TIP3    H168251   5.535   4.614   2.898 -0.6767 -0.4078 -0.2420
15612TIP3    H268252   5.591   4.500   2.816  0.6008 -0.4379  0.6474
15613TIP3   OH268253   6.294   1.732   5.504 -0.2316 -0.0937 -0.5600
15613TIP3    H168254   6.379   1.777   5.511  0.0558 -0.5354 -1.1735
15613TIP3    H268255   6.272   1.710   5.595 -0.4187  1.3363 -0.2331
15614TIP3   OH268256   6.170   4.900  13.942 -0.3001 -0.0574  0.2779
15614TIP3    H168257   6.137   4.830  13.999  1.3581 -1.3964 -0.3124
15614TIP3    H268258   6.249   4.931  13.986  0.1462 -0.0418 -0.5223
15615TIP3   OH268259   4.259   2.936   6.031 -0.3485  0.1866 -0.8011
15615TIP3    H168260   4.251   2.870   6.100  0.1442 -0.5438 -1.4309
15615TIP3    H268261   4.177   2.986   6.036 -0.8161 -0.6066 -0.4548
15616TIP3   OH268262   0.285   5.157  13.015 -0.2089  0.0523 -0.3879
15616TIP3    H168263   0.366   5.130  13.060 -0.3330  0.0509 -0.1656
15616TIP3    H268264   0.291   5.252  13.010 -0.4497  0.0960  0.1171
15617TIP3   OH268265   1.395   6.577  13.965 -0.5669 -0.4698  0.2857
15617TIP3    H168266   1.383   6.672  13.966  0.6115 -0.2941  1.6501
15617TIP3    H268267   1.433   6.557  14.051 -1.9610 -2.3415  0.5164
15618TIP3   OH268268   1.034   1.265   1.501 -0.2740 -0.4368  0.5033
15618TIP3    H168269   1.042   1.182   1.548  2.8217  0.2725  1.4483
15618TIP3    H268270   1.116   1.273   1.452 -1.8917  0.5474 -2.2735
15619TIP3   OH268271   4.685   0.699  15.173 -0.7354  0.3810  0.6421
15619TIP3    H168272   4.742   0.624  15.159  2.1573  2.3451  1.1866
15619TIP3    H268273   4.641   0.712  15.089 -0.5618 -1.2967  0.2605
15620TIP3   OH268274   5.983   4.007   0.227  0.1063 -0.0368  0.4377
15620TIP3    H168275   6.041   3.982   0.156  1.5496  0.8233  1.2692
15620TIP3    H268276   5.895   3.991   0.193  0.8211 -2.8518 -0.2955
15621TIP3   OH268277   1.900   3.525  13.275 -0.3455 -0.4963  0.2133
15621TIP3    H168278   1.914   3.522  13.180  0.7663  0.1932  0.3411
15621TIP3    H268279   1.985   3.504  13.312 -0.0679  1.8132  1.0366
15622TIP3   OH268280   0.805   0.297   5.742  0.6835  0.2643  0.1255
15622TIP3    H168281   0.868   0.225   5.746 -0.5415 -0.8012  1.6209
15622TIP3    H268282   0.719   0.254   5.742 -0.0764  1.7024 -0.5526
15623TIP3   OH268283   6.540   0.921   6.416 -0.2802 -0.7657 -0.0884
15623TIP3    H168284   6.550   0.875   6.333  3.2170 -1.2084  0.4143
15623TIP3    H268285   6.561   0.855   6.482  1.3441  0.5925  0.8338
15624TIP3   OH268286   5.820   4.509   4.378 -0.0719  0.5420  0.6536
15624TIP3    H168287   5.739   4.532   4.424  0.3744  0.7716  1.3446
15624TIP3    H268288   5.883   4.575   4.407  0.8119 -0.6068  1.4305
15625TIP3   OH268289   6.086   4.509   3.563 -0.2798  0.0371  0.7847
15625TIP3    H168290   6.109   4.471   3.477  0.2437  2.0277 -0.0055
15625TIP3    H268291   5.993   4.490   3.574 -0.1898 -0.8639  0.1219
15626TIP3   OH268292   4.959   3.241   0.976  0.3017 -0.1056 -0.1287
15626TIP3    H168293   4.908   3.168   1.011 -0.4766  0.8504  0.7994
15626TIP3    H268294   4.962   3.305   1.047  1.9866  0.2858 -0.4989
15627TIP3   OH268295   0.672   4.572   4.118  0.2656  1.0996 -0.3701
15627TIP3    H168296   0.621   4.613   4.187 -1.4271 -0.3016 -0.7075
15627TIP3    H268297   0.671   4.635   4.046  0.4101  1.7717  0.2181
15628TIP3   OH268298   5.000   0.077  14.674  0.2453  0.3771 -0.5648
15628TIP3    H168299   4.941   0.141  14.634 -0.7782 -0.1211  0.0801
15628TIP3    H268300   5.034   0.026  14.600 -3.3546 -2.0102 -0.8437
15629TIP3   OH268301   4.949   6.305   2.254 -0.1391  0.5971 -0.1743
15629TIP3    H168302   4.958   6.399   2.269 -0.9602  0.7633 -0.6588
15629TIP3    H268303   4.995   6.264   2.327 -0.6720  1.3827  0.6218
15630TIP3   OH268304   1.675   4.335  12.377  0.0346 -0.6570 -0.0881
15630TIP3    H168305   1.668   4.300  12.466  0.2904  2.4949  1.2982
15630TIP3    H268306   1.596   4.303  12.333 -1.5848 -0.0622  2.1790
15631TIP3   OH268307   3.156   4.478   1.732  0.1906  0.1244  0.3324
15631TIP3    H168308   3.125   4.397   1.770 -0.6533  0.5991  0.6905
15631TIP3    H268309   3.096   4.545   1.765  0.6309  0.8364 -0.2596
15632TIP3   OH268310   0.486   4.486   5.909  0.0127  0.0917 -0.5291
15632TIP3    H168311   0.519   4.479   5.999  1.4127  1.9521 -0.8585
15632TIP3    H268312   0.396   4.452   5.915  0.1644 -0.1050  1.5024
15633TIP3   OH268313   5.885   2.532  13.247  0.1283 -0.0704  0.0558
15633TIP3    H168314   5.926   2.596  13.190  0.3226 -0.2252  0.0230
15633TIP3    H268315   5.857   2.583  13.323  2.0888 -0.2494  0.9757
15634TIP3   OH268316   0.325   0.849  14.879  0.3122  0.6248 -0.7347
15634TIP3    H168317   0.360   0.901  14.806  3.2971  2.1451  1.5699
15634TIP3    H268318   0.395   0.848  14.944 -1.5602 -2.0869  1.4806
15635TIP3   OH268319   1.133   1.797   4.963  0.1733  0.3062  0.5218
15635TIP3    H168320   1.174   1.723   5.007  0.2868  0.9380  1.5087
15635TIP3    H268321   1.159   1.873   5.015  0.6877  1.1458 -0.8942
15636TIP3   OH268322   1.659   3.024   4.504 -0.2454 -0.4176 -0.1628
15636TIP3    H168323   1.681   2.964   4.434 -1.8337 -1.9486  0.5667
15636TIP3    H268324   1.696   2.985   4.583 -0.7871 -0.1467  0.2385
15637TIP3   OH268325   5.869   2.036  11.495 -0.4010 -0.2753  0.0470
15637TIP3    H168326   5.952   1.991  11.512 -1.1800 -1.1090  1.8595
15637TIP3    H268327   5.802   1.969  11.507 -1.4631  0.8616  0.6855
15638TIP3   OH268328   3.069   2.609   1.427 -0.6084  0.1827  0.2789
15638TIP3    H168329   3.128   2.607   1.502  0.4975 -1.2904 -0.5713
15638TIP3    H268330   2.994   2.556   1.454 -0.3635 -0.0664  0.4758
15639TIP3   OH268331   0.807   0.833   1.170  0.4516  0.3279  0.7836
15639TIP3    H168332   0.734   0.802   1.116  0.2764  0.6108  0.8531
15639TIP3    H268333   0.849   0.901   1.118  0.4826  0.3720  0.8661
15640TIP3   OH268334   2.375   2.207   4.131  0.5500  0.8738  0.3786
15640TIP3    H168335   2.411   2.125   4.096 -0.3599  1.1309 -1.2603
15640TIP3    H268336   2.321   2.180   4.206 -0.2747 -0.1282 -0.5452
15641TIP3   OH268337   6.522   6.494  14.803  0.3419  0.0957 -0.1998
15641TIP3    H168338   6.559   6.443  14.731  1.4639  0.7361 -0.0987
15641TIP3    H268339   6.575   6.470  14.879 -1.0218 -0.8051  0.5019
15642TIP3   OH268340   0.238   2.519  14.483 -0.3185  0.1128  0.0762
15642TIP3    H168341   0.191   2.476  14.412 -0.1930  0.4885 -0.2416
15642TIP3    H268342   0.196   2.605  14.491 -0.1818  0.1601  0.3001
15643TIP3   OH268343   4.218   2.383   4.794 -0.5509 -0.6470  0.3691
15643TIP3    H168344   4.245   2.296   4.823 -1.8691 -1.2978 -0.3206
15643TIP3    H268345   4.267   2.443   4.851 -0.4703 -1.8445  1.6043
15644TIP3   OH268346   1.405   5.804  12.097  0.6355  0.1292 -0.2261
15644TIP3    H168347   1.467   5.843  12.035  0.8738 -0.1823 -0.1831
15644TIP3    H268348   1.370   5.728  12.052  1.7040 -0.8110  0.4569
15645TIP3   OH268349   2.166   4.708  11.862 -0.5892 -0.6672 -0.0520
15645TIP3    H168350   2.199   4.777  11.805 -3.9546  1.3129  0.1582
15645TIP3    H268351   2.123   4.646  11.803 -0.1744 -1.0082 -0.0007
15646TIP3   OH268352   5.556   3.994   1.566 -0.3355  0.3720 -0.2996
15646TIP3    H168353   5.461   4.006   1.567 -0.1635  1.9117  0.0177
15646TIP3    H268354   5.584   4.016   1.655  0.1929 -1.4975  0.0404
15647TIP3   OH268355   0.930   6.118   2.654  0.0022 -0.4695  0.8056
15647TIP3    H168356   0.983   6.198   2.656 -1.3681  0.5933 -1.4082
15647TIP3    H268357   0.988   6.050   2.690  2.2282  0.9501  0.1280
15648TIP3   OH268358   1.011   0.318   2.449 -0.4867  0.1922 -0.0773
15648TIP3    H168359   1.048   0.293   2.533  0.4588  1.3894 -0.1295
15648TIP3    H268360   1.077   0.292   2.385  0.0421  1.8154 -0.2170
15649TIP3   OH268361   5.895   6.352  14.648 -0.1768 -0.4703  0.3237
15649TIP3    H168362   5.977   6.359  14.598  1.2376  0.6836  2.5872
15649TIP3    H268363   5.827   6.377  14.586  1.1379 -1.5538 -1.6848
15650TIP3   OH268364   4.281   4.682   3.718 -0.3445 -0.0455  0.3034
15650TIP3    H168365   4.190   4.710   3.723 -0.5932 -0.3587 -1.6339
15650TIP3    H268366   4.282   4.593   3.754 -1.5250 -1.3944 -2.6757
15651TIP3   OH268367   3.466   0.448   1.773  0.2324  0.1236  0.8368
15651TIP3    H168368   3.518   0.508   1.720 -0.0689 -0.9808 -0.7951
15651TIP3    H268369   3.396   0.503   1.809  0.2925  0.8779 -0.1398
15652TIP3   OH268370   2.788   5.220   5.463 -0.0763 -0.7454 -0.3507
15652TIP3    H168371   2.720   5.282   5.493  0.2280  0.3611 -1.8475
15652TIP3    H268372   2.862   5.236   5.522  0.1006  0.5639 -0.8817
15653TIP3   OH268373   3.019   0.015  11.478 -0.2508 -0.1312 -0.4115
15653TIP3    H168374   3.080   0.088  11.462 -1.2242  0.5406 -1.1541
15653TIP3    H268375   3.063  -0.061  11.440  0.6771  0.0876  0.1707
15654TIP3   OH268376   5.973   5.023  16.925  0.3975  0.3036 -0.7370
15654TIP3    H168377   5.938   5.099  16.878  1.8973 -0.1352 -2.7472
15654TIP3    H268378   5.983   5.052  17.015 -1.7399  1.5296 -0.8317
15655TIP3   OH268379   5.227   3.717   1.966  0.1647 -0.0852  0.5983
15655TIP3    H168380   5.237   3.721   1.871  1.9780 -1.4136  0.6808
15655TIP3    H268381   5.288   3.783   1.999  2.2049 -1.9916  0.8723
15656TIP3   OH268382   0.589   0.331  15.013 -0.2006  0.3671 -0.1698
15656TIP3    H168383   0.529   0.300  15.080  0.4541 -0.2447  0.1539
15656TIP3    H268384   0.533   0.371  14.947 -0.7455  3.0334  1.7467
15657TIP3   OH268385   0.548   6.301   0.681 -0.4455 -0.3206  0.7174
15657TIP3    H168386   0.493   6.228   0.653  1.0289 -1.1560 -0.1578
15657TIP3    H268387   0.613   6.310   0.611 -1.3743  2.7444  0.1067
15658TIP3   OH268388   1.046   3.876   1.562 -0.3007  0.2991 -0.0508
15658TIP3    H168389   1.084   3.821   1.630  0.1477 -0.8281 -1.1693
15658TIP3    H268390   1.078   3.964   1.581 -0.6050  0.1130  1.4756
15659TIP3   OH268391   1.354   4.679   4.216 -0.0552  0.1717  0.1362
15659TIP3    H168392   1.371   4.591   4.248  1.4527  0.4737  0.2392
15659TIP3    H268393   1.315   4.725   4.290 -0.2347 -0.2280  0.2894
15660TIP3   OH268394   5.812   3.689   3.982  0.4700 -0.0456 -0.5778
15660TIP3    H168395   5.855   3.768   3.949  1.2525 -0.8354 -1.5093
15660TIP3    H268396   5.858   3.670   4.064 -0.3381  0.9646  0.1315
15661TIP3   OH268397   4.018   5.807   1.522 -0.0864  1.0210 -0.5183
15661TIP3    H168398   4.016   5.712   1.536 -0.5162  1.0712 -0.2372
15661TIP3    H268399   4.095   5.820   1.465  1.0661  0.7152  0.9078
15662TIP3   OH268400   5.413   6.766  14.218 -0.3659 -0.3446 -0.0656
15662TIP3    H168401   5.368   6.850  14.222  0.0422 -0.0187 -1.8123
15662TIP3    H268402   5.504   6.789  14.198 -0.1568 -1.1839 -0.1059
15663TIP3   OH268403   1.757   4.188   1.443  0.6373 -0.2350 -0.6231
15663TIP3    H168404   1.829   4.158   1.387  1.3952 -0.2908  0.3570
15663TIP3    H268405   1.695   4.115   1.444 -0.4556  0.5461 -3.0781
15664TIP3   OH268406   4.005   4.977   5.084  0.0641  0.1734  0.6437
15664TIP3    H168407   4.084   4.932   5.115  0.4384  0.2046 -0.2367
15664TIP3    H268408   4.032   5.020   5.003 -1.1884 -0.9841 -0.4569
15665TIP3   OH268409   6.433   0.981  14.383  0.8399 -0.6184  0.2569
15665TIP3    H168410   6.384   1.036  14.444  0.4129 -1.0682  0.3304
15665TIP3    H268411   6.506   1.035  14.355 -0.3394  0.5193 -0.7741
15666TIP3   OH268412   0.855   2.788   1.472  0.4074  0.7217 -0.0925
15666TIP3    H168413   0.889   2.877   1.488  0.1438  0.6374  0.9912
15666TIP3    H268414   0.835   2.754   1.559 -3.2588  1.0489 -0.6553
15667TIP3   OH268415   5.145   5.876   2.369 -0.6633  0.0508 -0.8293
15667TIP3    H168416   5.194   5.806   2.326  2.7609  1.9649 -0.4666
15667TIP3    H268417   5.132   5.844   2.458 -1.2020 -1.0118 -1.2749
15668TIP3   OH268418   5.620   2.137  13.153  0.0914  0.5808  0.5485
15668TIP3    H168419   5.639   2.085  13.231  1.7414 -2.0763 -1.4480
15668TIP3    H268420   5.530   2.115  13.130  0.4646 -0.7368  0.2729
15669TIP3   OH268421   1.611   4.348  17.023  0.1174  0.4017  0.4381
15669TIP3    H168422   1.629   4.344  17.117  0.8524 -3.0265  0.2907
15669TIP3    H268423   1.569   4.264  17.003  0.2780  0.8901 -2.3352
15670TIP3   OH268424   3.423   5.580   6.027  0.0011  0.0199 -0.2612
15670TIP3    H168425   3.494   5.595   5.965  1.4776  1.4965  1.6708
15670TIP3    H268426   3.360   5.526   5.978  1.9939 -0.5935 -2.3406
15671TIP3   OH268427   0.568   6.324  13.317 -0.1371  0.5510 -0.6894
15671TIP3    H168428   0.653   6.360  13.342  0.1359 -1.2455  1.2231
15671TIP3    H268429   0.583   6.229  13.310 -1.5649  0.3868 -2.2364
15672TIP3   OH268430   1.605   2.521   3.686 -0.0453 -0.7010 -0.3339
15672TIP3    H168431   1.595   2.586   3.755  1.0881  0.5297 -1.2747
15672TIP3    H268432   1.566   2.441   3.722 -0.6596  0.2476  1.1964
15673TIP3   OH268433   5.479   4.771   1.718  0.0926  0.3782  0.5813
15673TIP3    H168434   5.472   4.788   1.812  0.6333 -1.4910  1.0019
15673TIP3    H268435   5.391   4.742   1.692  0.0864  0.3460  0.6377
15674TIP3   OH268436   2.831   2.139  16.160 -0.0139  0.6950 -0.2533
15674TIP3    H168437   2.859   2.056  16.123 -1.4325 -0.2947  0.8155
15674TIP3    H268438   2.883   2.149  16.240 -0.6405  0.2605  0.2169
15675TIP3   OH268439   5.985   5.869   3.505  0.0253  0.6377  0.1765
15675TIP3    H168440   6.000   5.775   3.497  0.8115  0.5456  2.1445
15675TIP3    H268441   5.894   5.877   3.531 -0.0534  0.4338 -0.0320
15676TIP3   OH268442   0.080   3.063   5.251 -0.1026  0.6554  0.1647
15676TIP3    H168443   0.062   3.146   5.206  1.3660  0.9818  0.1380
15676TIP3    H268444   0.174   3.065   5.269 -0.3699 -0.1632  1.8809
15677TIP3   OH268445   1.554   0.079  16.073 -0.1211 -0.4007  0.7457
15677TIP3    H168446   1.606   0.105  16.149  0.5087 -1.2073  0.6004
15677TIP3    H268447   1.465   0.107  16.094  0.4220  1.4507  0.7933
15678TIP3   OH268448   5.338   5.097  14.959  0.4035  0.4173  0.4689
15678TIP3    H168449   5.305   5.181  14.991 -0.5299  0.5300 -0.7167
15678TIP3    H268450   5.335   5.105  14.863  0.4734 -0.9005  0.3395
15679TIP3   OH268451   1.447   6.118  12.816 -0.1818 -0.0203  0.4037
15679TIP3    H168452   1.464   6.168  12.736 -0.1211  0.0466  0.4579
15679TIP3    H268453   1.412   6.035  12.786 -1.7686  0.6222  0.3638
15680TIP3   OH268454   5.595   0.346  16.150 -0.1081  0.1796  0.1166
15680TIP3    H168455   5.644   0.275  16.193  1.4743  1.4482  0.5268
15680TIP3    H268456   5.603   0.328  16.057 -1.8402 -1.4998  0.2493
15681TIP3   OH268457   2.480   5.453   3.036 -0.4502  0.3861  0.6918
15681TIP3    H168458   2.451   5.430   2.948  0.0227  0.9693  0.3748
15681TIP3    H268459   2.436   5.536   3.056 -0.1516  0.5237  0.7926
15682TIP3   OH268460   0.579   4.031   6.108 -0.1407 -0.9154 -0.5942
15682TIP3    H168461   0.657   4.015   6.161  0.0759 -0.8045 -0.8749
15682TIP3    H268462   0.509   3.984   6.153 -0.4504  1.0092  1.0707
15683TIP3   OH268463   0.202   1.301  15.830  0.4920  0.1305  0.4246
15683TIP3    H168464   0.179   1.366  15.897 -1.0965 -0.5119  0.5364
15683TIP3    H268465   0.278   1.256  15.867 -0.6155 -0.5170  2.0633
15684TIP3   OH268466   2.691   2.114  13.062  0.3499 -0.3960  0.3154
15684TIP3    H168467   2.749   2.190  13.052  0.7755 -0.5281  1.5669
15684TIP3    H268468   2.741   2.041  13.026 -0.0064 -0.1167 -0.7703
15685TIP3   OH268469   3.418   3.561  14.209  0.7347  0.4241 -0.0811
15685TIP3    H168470   3.335   3.566  14.161  0.4233 -0.3742  0.3512
15685TIP3    H268471   3.453   3.649  14.205 -0.0724  0.7431 -0.3953
15686TIP3   OH268472   5.376   5.030  16.693 -0.6002  0.0065  0.2174
15686TIP3    H168473   5.428   5.041  16.613 -1.0079  1.0566  0.0762
15686TIP3    H268474   5.290   5.068  16.671 -1.6268 -2.1461  0.2761
15687TIP3   OH268475   3.718   0.757   0.007 -0.6302 -0.1282  0.1042
15687TIP3    H168476   3.764   0.781   0.088 -0.5396 -0.1866  0.0707
15687TIP3    H268477   3.786   0.759  -0.060  0.1562 -3.5415  0.5787
15688TIP3   OH268478   3.870   4.256   4.261  0.0679 -0.2987 -0.2190
15688TIP3    H168479   3.856   4.182   4.320 -0.4052 -0.1081 -0.0840
15688TIP3    H268480   3.839   4.332   4.311  1.8524  0.2029  0.2141
15689TIP3   OH268481   5.806   6.212   3.496 -0.2176 -0.5991 -0.8143
15689TIP3    H168482   5.850   6.246   3.573 -0.8286 -0.7145 -0.4091
15689TIP3    H268483   5.810   6.117   3.507  1.2716 -0.6916 -1.8198
15690TIP3   OH268484   5.022   4.983   5.322 -0.1184 -0.2996  0.4941
15690TIP3    H168485   5.048   4.927   5.395 -0.9519 -1.1469  0.1696
15690TIP3    H268486   4.940   5.024   5.350 -0.1062 -0.1352  0.2934
15691TIP3   OH268487   1.599   0.956  15.797 -0.6006 -0.1824  0.0289
15691TIP3    H168488   1.550   1.038  15.804 -1.8632 -0.3631 -4.1066
15691TIP3    H268489   1.536   0.888  15.818 -0.0837 -0.2291  1.5491
15692TIP3   OH268490   4.619   5.186  11.571  0.0279  0.0064 -0.3100
15692TIP3    H168491   4.664   5.103  11.553 -0.3766  0.0854 -1.7928
15692TIP3    H268492   4.543   5.185  11.513 -1.0106  0.5999  1.0160
15693TIP3   OH268493   1.122   6.403   3.083 -0.3878 -0.3783 -0.2800
15693TIP3    H168494   1.052   6.340   3.099  0.1323 -1.0306 -0.5091
15693TIP3    H268495   1.082   6.488   3.099 -1.7047 -0.6212 -1.9516
15694TIP3   OH268496   0.785   0.884   0.042 -0.1447 -0.0673 -0.6315
15694TIP3    H168497   0.814   0.968   0.080 -2.1822  0.1079  0.7493
15694TIP3    H268498   0.797   0.821   0.113  1.0740 -0.9256 -1.5627
15695TIP3   OH268499   0.842   1.606   2.038 -0.7441  0.2086  0.1884
15695TIP3    H168500   0.874   1.697   2.042  1.2994 -0.4467 -0.3771
15695TIP3    H268501   0.890   1.561   2.107 -1.2071 -0.6279 -0.0220
15696TIP3   OH268502   3.840   5.223  14.124 -0.0523  0.5474  0.3144
15696TIP3    H168503   3.811   5.287  14.189 -0.4397  2.8611 -1.9647
15696TIP3    H268504   3.859   5.275  14.046  1.9022 -1.8928 -0.9922
15697TIP3   OH268505   2.104   2.327  17.164 -0.2393 -0.4396 -0.0838
15697TIP3    H168506   2.194   2.358  17.178 -0.9166  1.6435 -0.1281
15697TIP3    H268507   2.097   2.249  17.220  1.3433 -0.1825  0.5300
15698TIP3   OH268508   5.617   5.723   3.360  0.5713 -0.2958 -0.0066
15698TIP3    H168509   5.614   5.819   3.360 -0.5534 -0.3221 -0.1265
15698TIP3    H268510   5.710   5.702   3.371  0.6724  0.8159  1.7424
15699TIP3   OH268511   5.861   5.591  12.654  0.3597  0.3840 -0.0490
15699TIP3    H168512   5.818   5.560  12.733  2.4794  0.3608  1.1777
15699TIP3    H268513   5.805   5.662  12.622 -1.3315 -0.6199  0.5722
15700TIP3   OH268514   6.465   2.067  13.902 -0.4347 -0.2161  0.1959
15700TIP3    H168515   6.404   2.135  13.931 -0.8582 -0.2331 -0.5972
15700TIP3    H268516   6.441   1.990  13.952 -3.2318 -1.1200 -2.2742
15701TIP3   OH268517   3.558   1.652  16.074  0.4647 -0.3775  0.1737
15701TIP3    H168518   3.630   1.614  16.124 -0.8213 -1.4672  1.2666
15701TIP3    H268519   3.516   1.713  16.135  0.1938 -0.0638 -0.3137
15702TIP3   OH268520   6.376   4.619  11.838  0.3527 -0.1174  0.5885
15702TIP3    H168521   6.413   4.534  11.816  1.6771  0.3084  1.0710
15702TIP3    H268522   6.440   4.682  11.806 -0.0319  0.6639  1.3078
15703TIP3   OH268523   6.562   1.571   5.120  0.0205 -0.5880 -0.5226
15703TIP3    H168524   6.613   1.598   5.197  1.2716  1.4137 -1.9430
15703TIP3    H268525   6.501   1.644   5.106  1.6966  0.4721 -2.9550
15704TIP3   OH268526   4.362   4.375   5.411  0.4120  0.3121 -0.2551
15704TIP3    H168527   4.326   4.428   5.340 -0.2937 -0.0161 -0.1484
15704TIP3    H268528   4.285   4.344   5.459  0.7332 -1.8202 -1.0322
15705TIP3   OH268529   0.110   0.720  11.854 -0.1892 -0.9920 -0.4130
15705TIP3    H168530   0.110   0.778  11.778 -0.8702 -0.3357  0.0747
15705TIP3    H268531   0.019   0.694  11.864 -0.2308 -0.4581  0.6395
15706TIP3   OH268532   0.550   4.106   2.112 -0.9014 -0.0086 -0.2474
15706TIP3    H168533   0.457   4.104   2.091 -0.9490  1.4763 -0.2663
15706TIP3    H268534   0.559   4.178   2.175  0.2800  0.0979 -0.5153
15707TIP3   OH268535   0.040   5.519   2.643 -0.6470 -0.0331  0.1313
15707TIP3    H168536   0.088   5.571   2.579 -1.0645 -0.2998 -0.4066
15707TIP3    H268537  -0.014   5.583   2.690 -0.4615  0.1418  0.1092
15708TIP3   OH268538   6.449   1.548   4.535 -0.0988 -0.0982  0.3452
15708TIP3    H168539   6.364   1.533   4.493 -0.0958  0.2555  0.2043
15708TIP3    H268540   6.513   1.512   4.473 -0.1843 -1.1402  0.8382
15709TIP3   OH268541   0.887   5.054   5.059 -0.1124  0.9394 -0.7060
15709TIP3    H168542   0.877   4.999   5.137 -0.3646  0.7541 -0.8638
15709TIP3    H268543   0.862   5.141   5.087  0.5856  1.0359 -0.3733
15710TIP3   OH268544   1.306   6.066  12.130  0.2267 -0.2634 -0.8335
15710TIP3    H168545   1.369   5.998  12.154 -0.1814  0.1088  1.5468
15710TIP3    H268546   1.232   6.019  12.092  0.2591 -1.1051  0.1208
15711TIP3   OH268547   1.153   3.687  15.328  0.2047 -0.1132  0.5101
15711TIP3    H168548   1.191   3.599  15.322  1.0634  0.2093  0.9375
15711TIP3    H268549   1.144   3.702  15.423  0.0337  0.2412  0.4383
15712TIP3   OH268550   4.366   0.647  16.889 -0.1185  0.4717  0.6262
15712TIP3    H168551   4.450   0.607  16.913  0.7972  1.9500  0.0052
15712TIP3    H268552   4.322   0.662  16.973  0.4021  0.0291  0.9852
15713TIP3   OH268553   6.521   4.308   1.222  0.0503 -0.2574 -0.1570
15713TIP3    H168554   6.427   4.316   1.203  0.1686  0.4555 -0.4899
15713TIP3    H268555   6.563   4.364   1.157  0.5101  2.0636  1.9870
15714TIP3   OH268556   2.750   2.335  12.237  0.3781 -0.0913 -0.6681
15714TIP3    H168557   2.669   2.300  12.201 -0.5847  1.3762 -0.0256
15714TIP3    H268558   2.788   2.385  12.165 -0.1525  0.5966 -0.4772
15715TIP3   OH268559   1.174   6.025   0.047 -0.4407 -0.2777  0.0031
15715TIP3    H168560   1.230   6.013  -0.029  0.0706  1.5563  0.0319
15715TIP3    H268561   1.224   5.991   0.121  0.4508  0.8624 -0.0482
15716TIP3   OH268562   5.757   4.630  15.768  0.6595  0.5437  0.1788
15716TIP3    H168563   5.771   4.633  15.863  3.2646 -0.0436 -0.1082
15716TIP3    H268564   5.672   4.588  15.757  0.8078 -0.3983  2.2453
15717TIP3   OH268565   1.583   0.572   6.107 -0.8776  0.7934 -0.2349
15717TIP3    H168566   1.490   0.546   6.109 -0.5074 -0.7227  2.6787
15717TIP3    H268567   1.630   0.491   6.126  0.9316  1.9438  0.3769
15718TIP3   OH268568   6.517   4.136   5.289 -0.5106  0.0282 -0.1667
15718TIP3    H168569   6.499   4.078   5.363  0.4704 -0.9276 -0.6361
15718TIP3    H268570   6.544   4.219   5.328 -3.4356  0.7544  0.5352
15719TIP3   OH268571   6.730   3.905   4.869 -0.0591  0.1168 -0.2225
15719TIP3    H168572   6.825   3.913   4.856 -0.0311  2.4204  0.8380
15719TIP3    H268573   6.699   3.996   4.874 -2.2305 -0.5848  0.0943
15720TIP3   OH268574   5.117   2.567   3.371  0.6995  0.0829  0.0772
15720TIP3    H168575   5.140   2.494   3.429  1.5838 -0.6915 -1.2011
15720TIP3    H268576   5.188   2.631   3.384  1.7141 -0.7264 -1.1698
15721TIP3   OH268577   0.035   2.654  14.604 -0.3960  0.2958  0.0206
15721TIP3    H168578   0.052   2.739  14.646 -0.1015  0.3538 -0.2125
15721TIP3    H268579   0.074   2.590  14.662  1.8194  0.5094 -1.1378
15722TIP3   OH268580   4.315   1.567  12.571 -0.1960  0.4884 -0.3045
15722TIP3    H168581   4.405   1.550  12.600 -0.7846  0.9603  1.9565
15722TIP3    H268582   4.288   1.485  12.529  0.6290 -0.3538  0.7496
15723TIP3   OH268583   2.589   0.791  15.959  0.1048  0.5249  0.4910
15723TIP3    H168584   2.635   0.727  16.012 -0.7879  0.0372  0.6926
15723TIP3    H268585   2.658   0.836  15.910  0.8675  0.4626  1.4886
15724TIP3   OH268586   0.858   0.762  15.394 -0.4809  0.2670 -0.0069
15724TIP3    H168587   0.916   0.690  15.367 -0.3663  0.6040 -0.6836
15724TIP3    H268588   0.774   0.719  15.414  0.4375 -0.4508  2.6415
15725TIP3   OH268589   2.421   4.370   4.918  0.0241 -0.3042  0.0745
15725TIP3    H168590   2.342   4.419   4.939  0.2252  0.4268 -0.7883
15725TIP3    H268591   2.393   4.279   4.913 -0.5652 -0.1609  0.6851
15726TIP3   OH268592   5.569   6.449  15.283  0.0391 -0.5423  0.4705
15726TIP3    H168593   5.622   6.395  15.225  0.2269 -2.7642  2.5618
15726TIP3    H268594   5.498   6.392  15.311 -2.4279  1.7457 -0.6789
15727TIP3   OH268595   3.272   0.968  15.220 -0.4525  0.2392  0.0051
15727TIP3    H168596   3.300   1.010  15.138 -0.9304 -2.0715 -1.4409
15727TIP3    H268597   3.258   0.876  15.196  0.2154 -0.7273  2.9047
15728TIP3   OH268598   0.602   0.283  12.544 -0.3977  0.1801 -0.2909
15728TIP3    H168599   0.536   0.304  12.478  0.3924  1.1133 -0.8221
15728TIP3    H268600   0.680   0.259  12.494  0.2520  1.0143  0.2823
15729TIP3   OH268601   1.302   4.605  16.542 -0.0034 -0.6617  0.2668
15729TIP3    H168602   1.229   4.554  16.577  0.4159 -0.6293  1.2297
15729TIP3    H268603   1.266   4.647  16.464 -0.3049 -2.5715 -0.7001
15730TIP3   OH268604   4.322   6.356   0.755 -0.2004 -0.3986 -0.0303
15730TIP3    H168605   4.358   6.318   0.675 -1.1136 -0.8862 -0.2272
15730TIP3    H268606   4.382   6.427   0.778  1.2499 -1.5881  0.0318
15731TIP3   OH268607   2.975   2.781  14.819  0.3584  0.1409  0.0687
15731TIP3    H168608   2.901   2.775  14.880  0.1351 -0.9804 -0.2936
15731TIP3    H268609   2.961   2.710  14.757  3.3924 -2.1888  1.7834
15732TIP3   OH268610   1.243   6.358  12.180  0.4141  0.0159  0.0175
15732TIP3    H168611   1.223   6.375  12.272 -0.8946  0.0795 -0.2584
15732TIP3    H268612   1.235   6.263  12.172 -1.0840  0.1495 -0.3592
15733TIP3   OH268613   4.291   1.970  12.148  0.1830  0.2739 -0.0890
15733TIP3    H168614   4.314   1.947  12.058 -0.0448 -0.9437  0.1380
15733TIP3    H268615   4.290   1.886  12.194  0.6704  0.9193  1.1382
15734TIP3   OH268616   0.212   1.775   2.175 -0.2042  0.1927 -0.0002
15734TIP3    H168617   0.128   1.732   2.187  1.2483 -2.3510  2.2586
15734TIP3    H268618   0.211   1.848   2.237 -0.8782  0.4078 -0.2632
15735TIP3   OH268619   4.489   2.941  12.347  0.8952 -0.1611  0.2311
15735TIP3    H168620   4.431   3.004  12.305  1.0880 -0.1358 -0.0081
15735TIP3    H268621   4.435   2.864  12.362  0.9343 -0.3526 -0.5228
15736TIP3   OH268622   4.334   0.053   0.600  0.0708 -0.1469 -0.6585
15736TIP3    H168623   4.428   0.066   0.613  0.0488  1.8368 -2.0693
15736TIP3    H268624   4.297   0.141   0.596 -1.7544 -0.8675 -0.8676
15737TIP3   OH268625   1.698   6.118   3.535 -0.9280 -0.1161 -0.3076
15737TIP3    H168626   1.706   6.203   3.490  1.1368 -0.3891 -0.5149
15737TIP3    H268627   1.652   6.062   3.472 -1.8386  0.6805 -0.3765
15738TIP3   OH268628   4.011   6.079  15.837 -0.5916 -0.6631  0.2301
15738TIP3    H168629   3.941   6.107  15.896 -1.6396 -1.0544 -0.7740
15738TIP3    H268630   3.988   6.120  15.753  1.2773  0.5230  0.2448
15739TIP3   OH268631   4.882   4.574  14.934  0.2420  0.3026  0.2719
15739TIP3    H168632   4.907   4.547  15.022  3.2752  1.2390 -0.1739
15739TIP3    H268633   4.891   4.670  14.935  1.9877  0.2273 -1.3918
15740TIP3   OH268634   2.697   0.612   2.243 -0.1278 -0.5540  0.2257
15740TIP3    H168635   2.792   0.607   2.240 -0.0137  1.2131 -0.6257
15740TIP3    H268636   2.679   0.687   2.300 -0.9530 -0.0227 -0.7037
15741TIP3   OH268637   2.438   3.563  13.472  0.2186 -0.4911 -0.9515
15741TIP3    H168638   2.472   3.476  13.492 -0.8959 -0.9389 -0.9217
15741TIP3    H268639   2.449   3.612  13.553  0.1591 -0.8370 -0.7292
15742TIP3   OH268640   2.788   3.263   3.561  0.8553 -0.4012 -0.3948
15742TIP3    H168641   2.848   3.284   3.633 -0.7998  0.1362  0.9069
15742TIP3    H268642   2.785   3.343   3.508  1.7731 -0.6608 -0.8577
15743TIP3   OH268643   0.775   1.334   2.654  0.3594  0.1617 -0.4823
15743TIP3    H168644   0.699   1.374   2.611  0.7329 -0.2694 -1.5875
15743TIP3    H268645   0.737   1.281   2.725 -0.3840 -0.0777 -1.0369
15744TIP3   OH268646   3.258   0.159  11.292  0.2010 -0.2081 -0.3591
15744TIP3    H168647   3.312   0.202  11.359 -0.6646  2.6711 -1.3794
15744TIP3    H268648   3.317   0.095  11.252  2.1920  1.2512  0.0703
15745TIP3   OH268649   3.368   2.306   5.097 -0.6907  0.3633  0.4415
15745TIP3    H168650   3.428   2.376   5.124  1.1693 -0.9035 -0.2182
15745TIP3    H268651   3.334   2.271   5.179 -1.3135  1.7166  0.7992
15746TIP3   OH268652   3.585   5.614   1.269  0.3544 -0.7374 -0.3366
15746TIP3    H168653   3.634   5.538   1.238  0.4255 -0.1150 -1.8228
15746TIP3    H268654   3.652   5.678   1.294  0.3192 -1.5295  2.0243
15747TIP3   OH268655   5.614   1.393   3.287  0.5607  0.2165 -0.5386
15747TIP3    H168656   5.639   1.301   3.290 -0.3130 -0.0621  3.1454
15747TIP3    H268657   5.519   1.391   3.274  0.1234  0.3674  2.1669
15748TIP3   OH268658   5.124   6.503   5.225 -0.1155  0.1986 -0.4168
15748TIP3    H168659   5.094   6.590   5.198  2.2578  0.9675 -0.8406
15748TIP3    H268660   5.172   6.518   5.306 -0.0002 -0.7803 -0.2929
15749TIP3   OH268661   3.896   5.638  16.608  0.0273  0.0528  0.1972
15749TIP3    H168662   3.839   5.640  16.686 -0.2064 -1.3602  0.0984
15749TIP3    H268663   3.942   5.554  16.615  0.1602  0.0102 -1.0795
15750TIP3   OH268664   6.433   4.623   1.352  0.4123  0.2092 -0.1215
15750TIP3    H168665   6.390   4.694   1.304  0.0848  0.1100  0.0298
15750TIP3    H268666   6.466   4.565   1.283 -2.4606 -1.4229 -0.2565
15751TIP3   OH268667   5.426   6.584  14.004  0.0147 -0.3527  0.5903
15751TIP3    H168668   5.515   6.593  13.968  0.0884  2.2313  1.2174
15751TIP3    H268669   5.422   6.648  14.075 -2.0032 -1.2457  1.3604
15752TIP3   OH268670   0.856   0.801   4.904  0.5169 -0.4730 -0.2849
15752TIP3    H168671   0.904   0.865   4.851 -3.6285  3.1350 -0.1665
15752TIP3    H268672   0.852   0.841   4.991 -3.3268  0.0598 -0.5331
15753TIP3   OH268673   4.941   5.304   5.464 -0.0912  0.6740  0.3860
15753TIP3    H168674   5.035   5.284   5.463 -0.5949 -2.1191  0.2936
15753TIP3    H268675   4.918   5.316   5.372 -0.0312  0.1512  0.3001
15754TIP3   OH268676   4.924   2.332   5.230 -0.2438  0.1500 -0.0487
15754TIP3    H168677   4.902   2.387   5.154 -1.9535  1.4949  1.3205
15754TIP3    H268678   4.942   2.395   5.300  0.5124 -1.0643  0.8670
15755TIP3   OH268679   1.369   0.778   0.278 -0.1913 -0.1871  0.1448
15755TIP3    H168680   1.339   0.814   0.362 -1.5548 -3.2263  1.1270
15755TIP3    H268681   1.463   0.768   0.288 -0.4698 -1.6339  1.8978
15756TIP3   OH268682   4.708   0.472   1.845  0.1941 -0.6448  0.2951
15756TIP3    H168683   4.752   0.387   1.854 -0.1678 -0.9367 -0.6168
15756TIP3    H268684   4.685   0.478   1.753 -0.2403  0.2292  0.4475
15757TIP3   OH268685   4.105   4.808  14.640  0.1747  0.3022  0.1334
15757TIP3    H168686   4.155   4.760  14.573  0.0927  0.4481 -0.0314
15757TIP3    H268687   4.041   4.859  14.591 -0.4473 -0.2324  0.3678
15758TIP3   OH268688   2.877   0.395  11.736  0.2400 -0.5590  0.4029
15758TIP3    H168689   2.901   0.330  11.803 -0.4106 -0.6567  0.5435
15758TIP3    H268690   2.834   0.464  11.785  0.3750 -0.3090  0.1686
15759TIP3   OH268691   2.305   4.759   2.330 -0.4203  0.2612 -0.4913
15759TIP3    H168692   2.300   4.666   2.354  0.7133 -0.0298 -1.2825
15759TIP3    H268693   2.356   4.799   2.399 -2.0283  0.6016  0.5674
15760TIP3   OH268694   0.939   5.304   0.308 -0.3954 -0.0882 -0.1581
15760TIP3    H168695   0.869   5.369   0.303  0.0832  0.8623  3.1761
15760TIP3    H268696   0.900   5.230   0.355 -0.1675 -1.1523 -1.5791
15761TIP3   OH268697   4.075   5.502   1.512  0.5511  0.5641 -0.1166
15761TIP3    H168698   4.024   5.502   1.431  1.7197  1.9089 -0.8964
15761TIP3    H268699   4.033   5.435   1.567  0.3928 -1.1697 -2.2336
15762TIP3   OH268700   4.525   0.172   1.043 -0.2616  0.3744 -0.5883
15762TIP3    H168701   4.590   0.242   1.039  1.4023 -0.6894  3.2316
15762TIP3    H268702   4.577   0.092   1.054 -2.1254 -0.6198  1.7646
15763TIP3   OH268703   1.821   2.665   4.165 -0.0229  0.1438 -0.0384
15763TIP3    H168704   1.897   2.708   4.205  1.4837 -0.7995 -1.7192
15763TIP3    H268705   1.851   2.641   4.077 -2.2099 -0.4979 -0.6642
15764TIP3   OH268706   5.576   4.314  11.724 -0.1250 -0.2195  0.3392
15764TIP3    H168707   5.668   4.327  11.745 -0.5209  0.8146  1.5461
15764TIP3    H268708   5.575   4.239  11.664  1.3317 -1.4764  1.7997
15765TIP3   OH268709   5.008   1.305  16.791 -0.2706  0.8894  0.5938
15765TIP3    H168710   4.970   1.225  16.828 -1.1599  1.4177  0.8375
15765TIP3    H268711   5.005   1.368  16.862 -0.1518  1.3287  0.2132
15766TIP3   OH268712   5.794   1.841  13.721 -0.9825 -0.2563  0.1360
15766TIP3    H168713   5.734   1.824  13.793 -2.7091  0.8564 -0.9650
15766TIP3    H268714   5.746   1.814  13.643 -0.1194  0.8042 -0.7879
15767TIP3   OH268715   2.825   0.012   2.738  0.3319  0.2186  0.5037
15767TIP3    H168716   2.867   0.064   2.670  1.0775 -0.8932  0.0802
15767TIP3    H268717   2.734   0.002   2.708  0.1628  1.2977  0.6228
15768TIP3   OH268718   5.133   5.574  15.803  0.4026 -0.2460 -0.8020
15768TIP3    H168719   5.127   5.669  15.800  3.0510  0.0414 -0.1417
15768TIP3    H268720   5.110   5.551  15.893  0.3700 -0.1413 -0.7836
15769TIP3   OH268721   6.492   0.774  16.175  0.7843 -1.1285 -0.4085
15769TIP3    H168722   6.462   0.807  16.091 -0.9240  1.1164  0.9705
15769TIP3    H268723   6.588   0.781  16.171  0.6281  2.2832 -0.9913
15770TIP3   OH268724   1.479   5.963   5.484  0.6239  0.1129 -0.4764
15770TIP3    H168725   1.449   6.002   5.402  2.8187 -0.1488 -1.4806
15770TIP3    H268726   1.573   5.949   5.471  0.7962 -1.1340  1.6164
15771TIP3   OH268727   4.303   1.166   3.018 -0.3014  0.1646  0.2429
15771TIP3    H168728   4.230   1.110   3.045 -0.5687  0.6533  0.5551
15771TIP3    H268729   4.328   1.133   2.932 -1.6366  0.6959 -0.3832
15772TIP3   OH268730   1.417   3.567   6.456  0.2905  0.0490 -0.3131
15772TIP3    H168731   1.370   3.503   6.509  0.0219  0.5007  0.0060
15772TIP3    H268732   1.500   3.525   6.433 -0.4544 -0.9484 -1.2762
15773TIP3   OH268733   5.486   2.522  11.457  0.4717  0.3078  0.3211
15773TIP3    H168734   5.398   2.539  11.424  0.3071  0.6244  0.9178
15773TIP3    H268735   5.473   2.491  11.546  0.9260 -0.4011  0.1489
15774TIP3   OH268736   5.117   2.199  11.781  0.0089  0.1869 -0.5479
15774TIP3    H168737   5.187   2.176  11.843 -2.2345 -0.3447  1.9771
15774TIP3    H268738   5.081   2.115  11.754 -0.6822  0.4734 -0.5324
15775TIP3   OH268739   2.947   4.590  11.692 -0.2382 -0.2009  0.0287
15775TIP3    H168740   2.904   4.544  11.620 -0.7474 -1.3076  1.0204
15775TIP3    H268741   3.041   4.581  11.673 -0.3523  1.7810 -1.8666
15776TIP3   OH268742   3.871   4.446   6.070  0.4941 -0.1092  0.4447
15776TIP3    H168743   3.929   4.513   6.106 -1.0486 -0.1627  3.2648
15776TIP3    H268744   3.851   4.389   6.144 -0.7335 -1.8837 -1.1589
15777TIP3   OH268745   4.685   3.743  14.056  0.6562  0.1005  0.1740
15777TIP3    H168746   4.722   3.812  14.001 -0.3615  2.0447  1.8055
15777TIP3    H268747   4.727   3.755  14.141 -1.1592  0.1683  1.1075
15778TIP3   OH268748   3.141   2.726  15.039  0.4534  0.3211  0.0752
15778TIP3    H168749   3.097   2.745  14.957 -0.4997 -0.5637  0.3658
15778TIP3    H268750   3.205   2.659  15.017 -0.0516 -0.1780  0.1217
15779TIP3   OH268751   3.714   5.075   3.227  0.0217  0.3103  0.2639
15779TIP3    H168752   3.676   5.000   3.182  1.3180 -0.7943  0.9612
15779TIP3    H268753   3.808   5.065   3.216  0.2278  1.8021  0.4367
15780TIP3   OH268754   3.510   0.315   0.987 -0.3510  0.3470 -0.0761
15780TIP3    H168755   3.589   0.358   0.954  0.4454 -1.4192 -0.6083
15780TIP3    H268756   3.451   0.387   1.011  1.6938  1.7365  1.0557
15781TIP3   OH268757   4.704   2.142  16.006  0.6395  0.2069 -0.2734
15781TIP3    H168758   4.730   2.197  16.080  1.3073 -0.2470 -0.1612
15781TIP3    H268759   4.615   2.170  15.985  1.1734  1.7661 -0.6151
15782TIP3   OH268760   3.994   3.035  16.971  0.1557  0.5234 -0.1276
15782TIP3    H168761   3.941   2.992  17.038  1.0961  0.9460  0.9287
15782TIP3    H268762   4.062   3.081  17.021  0.4812  1.4002 -1.3473
15783TIP3   OH268763   0.423   6.139   3.228 -0.0147 -0.2482  0.1440
15783TIP3    H168764   0.327   6.138   3.228 -0.0504  0.8010 -0.7727
15783TIP3    H268765   0.446   6.228   3.255  0.6794 -0.2610 -0.3832
15784TIP3   OH268766   6.676   3.580   3.126 -0.4065  0.3159 -0.0808
15784TIP3    H168767   6.659   3.569   3.032  0.7264  0.3974 -0.3024
15784TIP3    H268768   6.682   3.675   3.137  2.8877  0.2684 -0.5957
15785TIP3   OH268769   4.792   4.593   3.112  0.2624  0.0203  0.2675
15785TIP3    H168770   4.724   4.653   3.080  0.1518 -0.8300 -1.2043
15785TIP3    H268771   4.788   4.518   3.051  0.4123 -1.4694  2.0154
15786TIP3   OH268772   2.525   2.596  14.356 -0.6131  0.6193 -0.1899
15786TIP3    H168773   2.620   2.597  14.355 -0.5923  2.2637 -0.1945
15786TIP3    H268774   2.502   2.559  14.441  0.0627  1.2089  0.2586
15787TIP3   OH268775   2.065   0.903  17.162  0.2142 -0.7501  0.5385
15787TIP3    H168776   1.988   0.853  17.135  1.1673 -1.1201 -1.8174
15787TIP3    H268777   2.089   0.953  17.084  1.7264  0.1639  1.5447
15788TIP3   OH268778   5.107   6.216   1.687 -0.2050 -0.6792 -0.6018
15788TIP3    H168779   5.139   6.156   1.619 -1.7153 -1.6483 -0.4962
15788TIP3    H268780   5.155   6.189   1.766 -0.4266 -1.3531 -0.6892
15789TIP3   OH268781   2.989   3.362  14.722 -0.5061  0.1646 -0.1528
15789TIP3    H168782   2.911   3.366  14.777 -0.4307 -0.7765  0.0357
15789TIP3    H268783   2.958   3.383  14.634 -0.6379  1.6190  0.2230
15790TIP3   OH268784   0.091   5.747   2.444  0.3771  0.4732  0.1657
15790TIP3    H168785   0.079   5.754   2.349 -0.3405 -0.4269  0.1856
15790TIP3    H268786   0.141   5.826   2.467  0.2752  0.8690 -0.9067
15791TIP3   OH268787   3.689   6.024  16.806  0.2633  0.1980 -0.4154
15791TIP3    H168788   3.679   6.076  16.727  0.8648 -0.3610 -0.8728
15791TIP3    H268789   3.707   6.088  16.875  1.8543  0.5792 -1.1257
15792TIP3   OH268790   2.618   4.042  13.295  0.1950  0.3553  0.0782
15792TIP3    H168791   2.632   4.078  13.382 -0.8101  1.0061 -0.0163
15792TIP3    H268792   2.594   3.950  13.310  0.8279  0.2394  0.4276
15793TIP3   OH268793   6.249   3.719   2.292 -0.0933  0.0072 -0.1240
15793TIP3    H168794   6.228   3.688   2.380  1.0695  0.6982  0.4183
15793TIP3    H268795   6.170   3.701   2.241 -0.5197 -1.0967  0.8718
15794TIP3   OH268796   4.767   0.018  13.012 -0.3394  0.1019 -0.3809
15794TIP3    H168797   4.766   0.027  13.108  1.9600 -0.0862 -0.2867
15794TIP3    H268798   4.799   0.103  12.981  0.4835 -0.3885 -0.8813
15795TIP3   OH268799   3.764   1.475   1.587 -0.4451  0.0559 -0.5376
15795TIP3    H168800   3.790   1.408   1.523 -3.8790 -0.5663 -1.4695
15795TIP3    H268801   3.735   1.549   1.534 -1.0786  0.4708  0.3572
15796TIP3   OH268802   4.234   4.034  15.467 -0.1635  0.7938 -0.3929
15796TIP3    H168803   4.241   3.984  15.385 -0.9773  0.5527 -0.3336
15796TIP3    H268804   4.276   4.117  15.448  0.9298  0.2115 -0.6038
15797TIP3   OH268805   6.446   1.415   4.237 -0.6028 -0.0380  0.8888
15797TIP3    H168806   6.529   1.424   4.284  0.7128 -0.0054 -1.3155
15797TIP3    H268807   6.432   1.501   4.198 -0.0464 -0.8645 -1.2348
15798TIP3   OH268808   5.675   1.457  13.521  0.0756  0.5302  0.3635
15798TIP3    H168809   5.682   1.362  13.532  1.3987  0.1912 -2.5895
15798TIP3    H268810   5.758   1.482  13.480  0.6785  3.3724  2.9620
15799TIP3   OH268811   1.993   0.594  14.970  0.5447 -0.0491  0.5776
15799TIP3    H168812   2.063   0.656  14.954 -1.4894  2.0945 -0.5015
15799TIP3    H268813   1.969   0.607  15.062  1.0669 -0.2930  0.7515
15800TIP3   OH268814   6.621   2.091  10.690  0.1238 -0.1875  0.2045
15800TIP3    H168815   6.710   2.082  10.724  0.7140 -0.0082 -1.2316
15800TIP3    H268816   6.607   2.185  10.684  1.5105 -0.0494 -3.5513
15801TIP3   OH268817   4.901   5.322  15.318 -0.3277 -0.3818 -0.6743
15801TIP3    H168818   4.986   5.299  15.356 -0.8250 -3.2932 -1.1389
15801TIP3    H268819   4.906   5.417  15.307  1.1385  0.2348  3.4309
15802TIP3   OH268820   3.422   0.853   5.964  0.9562 -0.2755 -0.2342
15802TIP3    H168821   3.440   0.792   6.036 -0.7207 -0.5619 -0.0202
15802TIP3    H268822   3.341   0.897   5.990 -0.0663 -0.8721 -2.2288
15803TIP3   OH268823   1.873   1.666  13.833 -0.4034  0.1456 -0.2198
15803TIP3    H168824   1.852   1.744  13.884 -2.1503  0.8409 -1.8848
15803TIP3    H268825   1.831   1.680  13.748  0.2041 -2.1013 -0.9783
15804TIP3   OH268826   0.185   4.846  17.173 -0.3718  0.4297  0.0993
15804TIP3    H168827   0.095   4.845  17.206 -0.1744  0.3013  0.6410
15804TIP3    H268828   0.230   4.911  17.227  0.3187 -0.8235  1.0671
15805TIP3   OH268829   0.082   5.185   4.618 -0.1380 -0.3967 -0.5705
15805TIP3    H168830   0.064   5.113   4.557 -0.8304 -2.2921  1.7107
15805TIP3    H268831   0.155   5.153   4.671 -0.3123  0.6730  0.3504
15806TIP3   OH268832   6.559   0.861   0.887  0.3720 -0.5853 -0.3355
15806TIP3    H168833   6.492   0.885   0.950  1.9186 -0.6073  1.3901
15806TIP3    H268834   6.510   0.833   0.809 -1.5880 -0.7115  0.8824
15807TIP3   OH268835   2.399   2.124   4.783  0.8940 -0.6364  0.0341
15807TIP3    H168836   2.326   2.063   4.785 -1.7219  2.1952 -1.1155
15807TIP3    H268837   2.471   2.075   4.744 -0.6937 -3.2315  0.1569
15808TIP3   OH268838   4.671   2.841   0.936 -0.4913 -0.5119  0.3459
15808TIP3    H168839   4.651   2.846   0.843 -1.3026  1.9212  0.5838
15808TIP3    H268840   4.586   2.840   0.979 -0.1188 -0.7111  1.1051
15809TIP3   OH268841   2.311   2.691   4.467  0.1531  0.0171 -0.4914
15809TIP3    H168842   2.393   2.669   4.423  0.5075 -0.4289  0.3571
15809TIP3    H268843   2.332   2.686   4.561 -1.2027 -1.6777 -0.2061
15810TIP3   OH268844   3.790   1.181  11.159  0.1868 -0.5204 -0.8742
15810TIP3    H168845   3.740   1.224  11.090  0.9144 -0.2285 -1.2327
15810TIP3    H268846   3.789   1.244  11.232  1.2785  0.1515 -1.4086
15811TIP3   OH268847   6.623   1.773   3.111  0.0249  0.1572 -0.1492
15811TIP3    H168848   6.648   1.849   3.058 -0.0361 -0.1926 -0.6775
15811TIP3    H268849   6.650   1.697   3.059 -0.3468 -0.1921  0.1662
15812TIP3   OH268850   2.718   6.034  10.766 -0.8517  0.5353  0.4992
15812TIP3    H168851   2.768   5.955  10.790  1.2418  1.1610 -1.4729
15812TIP3    H268852   2.785   6.100  10.750 -2.4432  2.0000 -0.3663
15813TIP3   OH268853   6.385   0.839  12.635 -0.5430 -0.2200 -0.0479
15813TIP3    H168854   6.314   0.777  12.618 -0.8347  0.3229 -0.9525
15813TIP3    H268855   6.345   0.906  12.690  0.0113 -1.2558  1.6623
15814TIP3   OH268856   0.372   6.516   5.174 -0.1125 -0.2307  0.6003
15814TIP3    H168857   0.399   6.425   5.182  1.3921  0.3076  2.0452
15814TIP3    H268858   0.430   6.553   5.107 -1.2170 -0.4636 -0.5436
15815TIP3   OH268859   0.852   3.243   3.033 -0.2133  0.5638 -0.0259
15815TIP3    H168860   0.940   3.232   3.069  0.8342 -0.2679 -2.5635
15815TIP3    H268861   0.831   3.335   3.048  2.6286  1.7307 -2.3058
15816TIP3   OH268862   1.925   6.428   6.497  0.0126 -0.7079  0.7289
15816TIP3    H168863   2.003   6.470   6.532  0.8312 -0.0768 -1.6410
15816TIP3    H268864   1.958   6.349   6.454 -0.3474  0.3652 -1.6657
15817TIP3   OH268865   2.894   5.668   5.154 -0.2690 -0.1711  0.0868
15817TIP3    H168866   2.939   5.590   5.122 -0.4642 -0.5664  0.7661
15817TIP3    H268867   2.950   5.701   5.225 -1.5129 -1.2341  1.6255
15818TIP3   OH268868   4.920   5.395   2.550 -0.2149 -0.0373 -0.5493
15818TIP3    H168869   4.912   5.341   2.629 -0.2377 -0.7907 -1.0556
15818TIP3    H268870   4.990   5.456   2.570  0.2469 -0.6727 -0.1995
15819TIP3   OH268871   5.035   2.739   2.072 -0.3045  0.4743 -0.3660
15819TIP3    H168872   5.002   2.672   2.011 -3.1095  1.7459 -0.3963
15819TIP3    H268873   4.980   2.815   2.055  0.3055  1.5907  2.2500
15820TIP3   OH268874   5.525   6.236   0.002  0.2022  0.0391 -0.6734
15820TIP3    H168875   5.561   6.190  -0.074  1.0066 -1.1597  0.3949
15820TIP3    H268876   5.460   6.176   0.039  0.1756  0.3865 -0.1409
15821TIP3   OH268877   4.918   1.586  13.529 -0.0023 -0.0135 -0.2516
15821TIP3    H168878   4.926   1.589  13.624  0.2694 -0.0651 -0.2720
15821TIP3    H268879   4.826   1.563  13.513 -0.0978  0.1954 -0.0062
15822TIP3   OH268880   1.825   4.062   2.390 -0.2629  0.4033 -0.3437
15822TIP3    H168881   1.888   4.133   2.404 -0.3732  0.4135  0.1227
15822TIP3    H268882   1.789   4.045   2.477 -0.5688  0.0832 -0.5320
15823TIP3   OH268883   3.612   1.662  13.219 -0.1921 -0.2264 -0.0239
15823TIP3    H168884   3.642   1.631  13.304 -0.1111  0.1271  0.0765
15823TIP3    H268885   3.528   1.617  13.206 -0.8782  0.7538  0.8599
15824TIP3   OH268886   2.412   5.550   3.655  0.5311 -0.4143 -0.3609
15824TIP3    H168887   2.399   5.507   3.739  1.7318  0.8005  0.4949
15824TIP3    H268888   2.412   5.643   3.676  0.5446 -0.0807 -1.7606
15825TIP3   OH268889   4.765   2.928  15.520  0.2684 -0.0917  0.2673
15825TIP3    H168890   4.695   2.896  15.577  0.8695 -0.5694  0.7505
15825TIP3    H268891   4.807   2.998  15.571 -2.6692  3.4810 -1.7606
15826TIP3   OH268892   1.028   0.576   2.790 -0.3533 -0.8756  0.2961
15826TIP3    H168893   1.116   0.580   2.826 -1.6736  1.0375  3.7511
15826TIP3    H268894   0.986   0.505   2.838 -1.3080 -0.2867  0.3635
15827TIP3   OH268895   4.834   4.383   2.950 -0.0071  0.3042  0.4999
15827TIP3    H168896   4.886   4.303   2.951  2.0477  1.5409 -0.4999
15827TIP3    H268897   4.747   4.355   2.921  0.7382 -1.4952 -0.1133
15828TIP3   OH268898   4.289   3.763   2.470 -0.4197  0.0486 -0.0307
15828TIP3    H168899   4.309   3.718   2.552 -0.7396 -0.1608 -0.0668
15828TIP3    H268900   4.356   3.733   2.409 -1.3029 -1.2835 -0.3815
15829TIP3   OH268901   4.571   1.635  14.200 -0.3564  0.3912 -0.1634
15829TIP3    H168902   4.529   1.655  14.116 -0.8813  1.1685  0.2718
15829TIP3    H268903   4.617   1.716  14.223 -0.3147  0.2194  0.3515
15830TIP3   OH268904   1.165   2.908   4.550  0.6023  0.8682 -0.8068
15830TIP3    H168905   1.139   2.844   4.617 -0.4569  1.0629 -1.0077
15830TIP3    H268906   1.082   2.936   4.511  1.1221  1.6885 -1.3455
15831TIP3   OH268907   5.215   5.531  15.239 -0.0319 -0.5082 -0.4211
15831TIP3    H168908   5.194   5.568  15.325  2.3878  1.1011 -0.4342
15831TIP3    H268909   5.156   5.576  15.178  1.7477  2.3912 -0.2129
15832TIP3   OH268910   3.992   4.625  15.308  0.2812 -0.0533 -0.4453
15832TIP3    H168911   3.980   4.687  15.380 -0.7169 -1.1170  0.3468
15832TIP3    H268912   3.929   4.555  15.326  0.2709 -0.5212 -2.1737
15833TIP3   OH268913   3.360   0.208   6.364  0.0441 -0.4435 -0.0892
15833TIP3    H168914   3.426   0.164   6.417 -0.3502  0.6152  1.3361
15833TIP3    H268915   3.329   0.141   6.303  2.6897 -0.8658 -1.0944
15834TIP3   OH268916   5.346   3.311  12.185  0.1091 -0.3662 -0.4537
15834TIP3    H168917   5.337   3.402  12.213 -1.2414  0.0918 -2.2035
15834TIP3    H268918   5.429   3.308  12.137  0.1122 -0.0352 -0.4697
15835TIP3   OH268919   3.362   5.364  16.435 -0.6898  0.2921  0.8421
15835TIP3    H168920   3.381   5.409  16.518 -1.9847  1.0343  0.7477
15835TIP3    H268921   3.362   5.434  16.369 -0.3321 -0.2028  0.3051
15836TIP3   OH268922   1.567   6.495   3.845 -0.6495 -0.3771  0.0100
15836TIP3    H168923   1.491   6.553   3.856 -1.2135 -1.1158  0.0823
15836TIP3    H268924   1.560   6.433   3.917 -0.9767 -1.5351 -0.9817
15837TIP3   OH268925   6.054   1.043  16.421  0.0881 -0.2571 -1.0128
15837TIP3    H168926   5.994   1.111  16.453  1.0873  0.6973 -1.0949
15837TIP3    H268927   5.999   0.984  16.370 -0.9688 -0.0147 -0.1890
15838TIP3   OH268928   4.663   0.364   3.381  0.1630 -0.2288 -0.0489
15838TIP3    H168929   4.614   0.294   3.423  1.9631 -2.0965 -0.8921
15838TIP3    H268930   4.622   0.444   3.413 -1.3453 -1.6198  1.7438
15839TIP3   OH268931   1.416   1.480  14.283  0.0953 -0.1079  0.0076
15839TIP3    H168932   1.454   1.568  14.281 -0.3318  0.0726 -0.9239
15839TIP3    H268933   1.429   1.450  14.373  0.9897  0.5776  0.1251
15840TIP3   OH268934   3.530   5.756   5.000 -0.8867 -0.2579 -0.2128
15840TIP3    H168935   3.533   5.775   5.093 -0.8253 -0.0450 -0.2552
15840TIP3    H268936   3.472   5.681   4.991  0.7193 -1.5852  0.1980
15841TIP3   OH268937   0.392   2.234  13.427  0.6313  0.2262  0.5482
15841TIP3    H168938   0.412   2.235  13.521  1.0353 -2.1927  0.5603
15841TIP3    H268939   0.478   2.231  13.385  0.4649  1.7701  0.0323
15842TIP3   OH268940   3.048   4.980  14.123 -0.3591 -0.1315 -0.0861
15842TIP3    H168941   3.107   4.918  14.080 -0.8052 -1.0615  0.6118
15842TIP3    H268942   3.068   4.972  14.216  0.7590  2.0336 -0.0815
15843TIP3   OH268943   4.896   3.131  15.666 -0.1773  0.2539 -0.2102
15843TIP3    H168944   4.893   3.168  15.754 -0.5720 -3.9408  1.7909
15843TIP3    H268945   4.989   3.114  15.651 -0.3002 -1.8042  0.8849
15844TIP3   OH268946   3.595   5.772  16.929  0.3194  0.1002 -0.2659
15844TIP3    H168947   3.503   5.745  16.937  0.1882  0.3304 -0.8754
15844TIP3    H268948   3.598   5.858  16.971  0.3390 -0.0650  0.0758
15845TIP3   OH268949   4.903   2.141  13.765  0.2242 -0.3730  0.6249
15845TIP3    H168950   4.918   2.063  13.818  1.4742 -0.0643  0.7490
15845TIP3    H268951   4.986   2.156  13.720 -0.5828 -0.2024 -0.8689
15846TIP3   OH268952   5.974   3.364  17.179 -0.0625  0.0184  0.6741
15846TIP3    H168953   6.026   3.427  17.129 -1.4547 -0.2620 -1.2441
15846TIP3    H268954   5.895   3.412  17.204 -0.4699 -0.5344  0.4726
15847TIP3   OH268955   5.537   2.876  13.644 -0.0925 -0.1064 -0.2872
15847TIP3    H168956   5.516   2.799  13.696  3.0537 -1.4551 -0.8288
15847TIP3    H268957   5.579   2.842  13.565 -0.8103  2.0847 -1.7159
15848TIP3   OH268958   4.544   2.484  13.536 -0.4225 -0.2241 -0.0474
15848TIP3    H168959   4.598   2.455  13.610  0.7742  1.1349 -0.3423
15848TIP3    H268960   4.516   2.403  13.493 -1.0886 -1.0494  1.8169
15849TIP3   OH268961   1.890   1.134  12.956  0.8781  0.2249 -0.5399
15849TIP3    H168962   1.838   1.146  13.036  1.7646 -0.8017  0.2151
15849TIP3    H268963   1.883   1.041  12.937  2.1496  0.1389 -0.6231
15850TIP3   OH268964   2.193   5.881  16.783 -0.2277 -0.0427 -0.3163
15850TIP3    H168965   2.278   5.875  16.739 -0.6715 -0.3626 -1.1347
15850TIP3    H268966   2.213   5.925  16.866  0.9182 -1.0776 -0.0196
15851TIP3   OH268967   6.635   4.162  11.559 -0.0581 -0.7399 -0.0753
15851TIP3    H168968   6.638   4.126  11.470  1.3771 -1.8671  0.3822
15851TIP3    H268969   6.675   4.249  11.552 -1.7875  0.0217 -0.8613
15852TIP3   OH268970   5.933   3.399   1.229 -0.6299  0.1861  0.3201
15852TIP3    H168971   5.933   3.353   1.313 -2.2650 -0.0144  0.2445
15852TIP3    H268972   5.935   3.330   1.163 -0.0382  0.3249  0.1854
15853TIP3   OH268973   2.687   0.999  16.910  0.2834  0.6501  0.0283
15853TIP3    H168974   2.665   0.913  16.875  1.2537  0.3484  0.1198
15853TIP3    H268975   2.607   1.029  16.954 -0.1711 -0.0438 -0.3176
15854TIP3   OH268976   3.538   0.982  17.049 -0.6727  0.9525  0.0859
15854TIP3    H168977   3.552   0.895  17.087 -1.5411  0.9912  0.5287
15854TIP3    H268978   3.506   1.035  17.122 -2.7235  0.9414 -0.7285
15855TIP3   OH268979   4.299   6.779  10.584  0.5845 -1.0549 -0.4794
15855TIP3    H168980   4.205   6.764  10.569  0.9109 -1.4520 -2.4039
15855TIP3    H268981   4.339   6.693  10.570  1.1664 -1.1090  1.3245
15856TIP3   OH268982   3.502   6.241   6.267  0.3334  0.2770 -0.7989
15856TIP3    H168983   3.467   6.285   6.344  0.3608 -0.4627 -0.3563
15856TIP3    H268984   3.483   6.301   6.194 -0.5078  0.5700 -0.3524
15857TIP3   OH268985   0.775   2.840   3.864  0.4123  0.7369  0.1609
15857TIP3    H168986   0.717   2.770   3.895 -1.5289  2.2938  0.2313
15857TIP3    H268987   0.762   2.911   3.927  3.5242  0.7261  1.0099
15858TIP3   OH268988   6.717   0.004   2.393 -0.1693 -0.0175 -0.2130
15858TIP3    H168989   6.768   0.043   2.464  0.1515 -0.8260  0.0070
15858TIP3    H268990   6.693   0.079   2.337  1.2581  0.3835 -0.3252
15859TIP3   OH268991   2.699   0.759  13.829  0.2385  0.4689 -0.0089
15859TIP3    H168992   2.749   0.723  13.756  2.7460  1.0483  1.3051
15859TIP3    H268993   2.672   0.683  13.880  1.6963  0.1941  0.3950
15860TIP3   OH268994   1.692   3.144  11.244  0.7915  0.0289 -0.1325
15860TIP3    H168995   1.602   3.109  11.243  1.3850 -1.6252  0.4414
15860TIP3    H268996   1.697   3.201  11.167 -0.1699 -1.4098 -1.3089
15861TIP3   OH268997   1.050   0.606   1.699 -0.2479 -0.2852  0.1303
15861TIP3    H168998   0.992   0.660   1.753  0.7988 -0.9164  2.0051
15861TIP3    H268999   1.036   0.517   1.731  0.2166 -0.7208 -0.8478
15862TIP3   OH269000   2.061   2.225   3.066  0.3224  0.2461  0.5510
15862TIP3    H169001   2.088   2.146   3.020  0.8202  0.9995 -0.5094
15862TIP3    H269002   1.999   2.195   3.132 -0.2924 -0.9112 -0.5045
15863TIP3   OH269003   0.330   5.350  14.329 -0.1428  0.1817  0.1054
15863TIP3    H169004   0.307   5.348  14.422  1.0543 -0.5146  0.4094
15863TIP3    H269005   0.320   5.441  14.303  0.0308  0.4755  1.0494
15864TIP3   OH269006   0.478   6.327  15.148 -0.2804 -0.4464 -0.1010
15864TIP3    H169007   0.569   6.350  15.169 -0.6993  0.0864  1.2467
15864TIP3    H269008   0.478   6.231  15.144  0.3344 -0.4503 -0.0615
15865TIP3   OH269009   2.324   1.560   4.859  0.0147  0.5972  0.2910
15865TIP3    H169010   2.369   1.476   4.855  1.3603  1.3140 -1.3423
15865TIP3    H269011   2.360   1.603   4.936  0.1186  0.0858  0.5282
15866TIP3   OH269012   3.742   2.666  14.623 -0.0782 -0.8107 -0.1446
15866TIP3    H169013   3.812   2.731  14.630  1.1011 -2.1771  1.8676
15866TIP3    H269014   3.708   2.658  14.712  1.7609 -4.8696  0.4183
15867TIP3   OH269015   0.842   4.149   0.921  0.5236  0.6920  0.0254
15867TIP3    H169016   0.885   4.067   0.896 -0.1781  0.6986 -1.2689
15867TIP3    H269017   0.751   4.124   0.937  0.4031  1.1453  0.0664
15868TIP3   OH269018   3.107   0.665  12.745  0.6231 -0.6837  0.6857
15868TIP3    H169019   3.182   0.690  12.800  1.3255  1.7929 -1.2468
15868TIP3    H269020   3.031   0.702  12.790  0.9511 -0.3247  0.9548
15869TIP3   OH269021   3.505   2.533  14.519 -0.0636  0.3580  0.3965
15869TIP3    H169022   3.583   2.570  14.560 -0.1742  1.3137 -0.2214
15869TIP3    H269023   3.434   2.554  14.579  0.0421  0.0998  0.6167
15870TIP3   OH269024   5.682   5.512  15.305 -0.2766  0.1222 -0.1383
15870TIP3    H169025   5.773   5.535  15.291  0.0233 -0.0707  1.3275
15870TIP3    H269026   5.653   5.475  15.222  1.2037 -0.5600 -0.3683
15871TIP3   OH269027   2.020   4.491   2.457  0.0531  0.1779  0.0321
15871TIP3    H169028   2.033   4.519   2.367  0.0594  0.9095  0.2503
15871TIP3    H269029   1.954   4.552   2.491 -1.4596 -1.3308 -0.0651
15872TIP3   OH269030   4.879   3.530  12.432  0.2133 -0.2168 -0.2463
15872TIP3    H169031   4.915   3.617  12.416  2.9015 -1.0974  0.5246
15872TIP3    H269032   4.871   3.524  12.527  0.9883 -1.1202 -0.2218
15873TIP3   OH269033   1.970   2.117   2.133  0.3702  0.3222  0.6169
15873TIP3    H169034   1.993   2.025   2.129 -1.0428 -0.0163 -1.8623
15873TIP3    H269035   1.912   2.124   2.208  0.0766 -0.9354  0.5308
15874TIP3   OH269036   5.133   5.383  16.265  0.0623  0.4263  0.3515
15874TIP3    H169037   5.126   5.460  16.208 -1.3714  0.9333  1.1494
15874TIP3    H269038   5.114   5.309  16.207  0.1014  0.7992 -0.1461
15875TIP3   OH269039   4.147   4.190   4.588 -0.2443  0.4257 -0.4694
15875TIP3    H169040   4.179   4.279   4.571  0.9195 -0.0649 -0.9419
15875TIP3    H269041   4.071   4.203   4.645 -1.8524  1.9178 -2.7117
15876TIP3   OH269042   0.581   2.206  12.210  0.4142 -0.0221 -0.6907
15876TIP3    H169043   0.524   2.267  12.162  0.2400  1.1186  0.8993
15876TIP3    H269044   0.635   2.167  12.142 -1.7599 -0.6344 -2.1866
15877TIP3   OH269045   1.650   4.464   1.802  0.1539 -0.1054  0.0593
15877TIP3    H169046   1.696   4.489   1.882  3.0864 -0.9830 -1.1857
15877TIP3    H269047   1.683   4.525   1.736  1.8395 -2.4566 -1.4738
15878TIP3   OH269048   2.102   2.477   1.871  0.4057  0.1500  0.0794
15878TIP3    H169049   2.069   2.436   1.950  1.2579  1.3190  1.0702
15878TIP3    H269050   2.029   2.531   1.839 -0.3408 -1.2092 -0.6300
15879TIP3   OH269051   5.608   1.063   5.928  0.7821  0.5330 -0.6932
15879TIP3    H169052   5.523   1.088   5.963  0.0281 -1.2374 -1.1627
15879TIP3    H269053   5.667   1.133   5.956 -0.8618  1.9539 -0.6040
15880TIP3   OH269054   3.073   5.347   5.321  0.3554 -0.1735  0.2655
15880TIP3    H169055   3.025   5.301   5.390 -1.9244  2.2034  0.4287
15880TIP3    H269056   3.112   5.422   5.365  1.5459 -0.3256 -0.4927
15881TIP3   OH269057   5.748   3.913   4.680  0.1015  0.3988 -0.3222
15881TIP3    H169058   5.767   3.829   4.640 -1.7881  0.4312 -1.4427
15881TIP3    H269059   5.773   3.903   4.772 -0.4325 -1.5073 -0.3548
15882TIP3   OH269060   1.615   1.472  15.325  0.4073  0.2915 -0.2879
15882TIP3    H169061   1.634   1.486  15.417 -0.5843 -1.3051  0.2043
15882TIP3    H269062   1.586   1.558  15.293  2.1408  1.1991  0.4900
15883TIP3   OH269063   6.336   5.235  12.297 -0.0089  0.5421 -0.0242
15883TIP3    H169064   6.277   5.167  12.264  1.3195  0.2465 -1.9673
15883TIP3    H269065   6.281   5.313  12.304 -2.1237 -1.0170  4.3374
15884TIP3   OH269066   3.625   3.065  16.903  0.1293 -0.3716 -0.1596
15884TIP3    H169067   3.607   3.124  16.830 -1.0972  0.1346  0.5226
15884TIP3    H269068   3.546   3.069  16.957  0.4042 -1.8952  0.4109
15885TIP3   OH269069   4.100   5.991   4.364 -0.2658 -0.1382 -0.2963
15885TIP3    H169070   4.079   6.050   4.292  0.2163  0.0171 -0.3108
15885TIP3    H269071   4.092   5.903   4.326  1.9476 -0.0418 -1.1142
15886TIP3   OH269072   3.313   0.402  17.066  0.6468 -0.3975 -0.4701
15886TIP3    H169073   3.403   0.424  17.089 -0.0424  1.4836  0.6689
15886TIP3    H269074   3.314   0.307  17.054  2.7527 -0.4294 -0.4958
15887TIP3   OH269075   4.541   4.415   6.527  0.5228  0.1545  0.4802
15887TIP3    H169076   4.551   4.395   6.433  2.2008  0.6407  0.5280
15887TIP3    H269077   4.459   4.372   6.551  1.5376 -2.5611 -0.5247
15888TIP3   OH269078   0.595   0.009   0.508  0.7466 -0.0468 -0.0534
15888TIP3    H169079   0.507  -0.001   0.544  0.9393 -2.6286 -0.1327
15888TIP3    H269080   0.589  -0.024   0.418  1.1635  2.6711 -1.1815
15889TIP3   OH269081   2.499   5.357   1.377 -0.7272  0.9326 -0.0238
15889TIP3    H169082   2.543   5.277   1.348 -1.9439  0.9137 -2.0022
15889TIP3    H269083   2.528   5.423   1.313 -1.2875  1.5921  0.4001
15890TIP3   OH269084   2.478   2.295   1.801 -0.9829 -0.3826  0.0763
15890TIP3    H169085   2.463   2.377   1.846 -0.8079  0.1425 -0.7897
15890TIP3    H269086   2.569   2.302   1.769 -0.5703 -1.3936  0.9731
15891TIP3   OH269087   1.274   2.533   4.645 -0.4821  0.2557 -0.1913
15891TIP3    H169088   1.186   2.569   4.658  0.0428  1.2676  0.7267
15891TIP3    H269089   1.304   2.574   4.563  0.1677  2.1174  0.9207
15892TIP3   OH269090   1.363   0.429  16.221 -0.5592  0.1558 -0.0918
15892TIP3    H169091   1.419   0.422  16.298  0.7424  2.0173 -0.7844
15892TIP3    H269092   1.403   0.499  16.169 -1.5767 -0.8148 -2.3166
15893TIP3   OH269093   1.815   0.652   0.008 -0.0056  0.3500 -0.2490
15893TIP3    H169094   1.873   0.615  -0.058  1.6501  1.0312  0.7701
15893TIP3    H269095   1.769   0.576   0.045  1.2539 -0.3702 -0.1213
15894TIP3   OH269096   0.485   3.046   3.363  0.4394  0.5249  0.0675
15894TIP3    H169097   0.490   3.119   3.301 -2.4238  0.6177 -0.1923
15894TIP3    H269098   0.410   3.067   3.419  0.5238 -1.4491  1.0210
15895TIP3   OH269099   6.337   2.897   1.002 -0.1931 -0.3704 -0.0931
15895TIP3    H169100   6.337   2.918   1.095  0.0495  1.0899 -0.3982
15895TIP3    H269101   6.246   2.910   0.974 -0.2607 -0.7837 -0.0727
15896TIP3   OH269102   6.009   5.491  12.401 -0.2751  0.0983  0.0487
15896TIP3    H169103   6.088   5.484  12.348  0.1449 -1.9138  0.8575
15896TIP3    H269104   6.033   5.550  12.473 -0.7685  2.6342 -1.7008
15897TIP3   OH269105   0.625   3.706   4.074 -0.2421 -0.4265 -0.3005
15897TIP3    H169106   0.592   3.652   4.145 -0.6656 -1.0633 -0.9589
15897TIP3    H269107   0.552   3.763   4.051  0.2642  0.5823  0.5174
15898TIP3   OH269108   4.790   2.971  13.047  0.2727  0.4624  0.0472
15898TIP3    H169109   4.840   3.051  13.063  0.1707  0.5843 -0.2335
15898TIP3    H269110   4.788   2.963  12.952  0.8363 -0.2278  0.0940
15899TIP3   OH269111   2.582   4.106   2.664 -0.1924 -0.0043  0.0812
15899TIP3    H169112   2.522   4.169   2.624  0.6273  0.3694 -0.5900
15899TIP3    H269113   2.634   4.158   2.725 -0.5132 -0.3207  0.6328
15900TIP3   OH269114   4.460   2.999   5.211 -0.0252 -0.0611  0.1126
15900TIP3    H169115   4.395   3.021   5.144  0.3774 -0.3062 -0.3711
15900TIP3    H269116   4.489   3.084   5.245 -0.3220  0.0617  0.0606
15901TIP3   OH269117   6.172   6.004  11.424 -0.0361  0.1839 -0.3273
15901TIP3    H169118   6.111   5.995  11.498 -1.7827  3.2749 -1.2037
15901TIP3    H269119   6.119   5.986  11.347  1.4891 -1.8632 -0.9831
15902TIP3   OH269120   2.057   2.032  14.378  0.3873 -0.1794 -0.2269
15902TIP3    H169121   2.081   2.108  14.432  0.2436 -0.9881  1.0034
15902TIP3    H269122   2.041   2.069  14.292  0.2615  1.2125  0.3626
15903TIP3   OH269123   4.808   5.924   5.985  0.3822  0.3107 -0.1521
15903TIP3    H169124   4.741   5.992   5.992  1.0988  1.1614 -1.1554
15903TIP3    H269125   4.891   5.972   5.989  0.9020 -0.4705 -1.1211
15904TIP3   OH269126   0.142   5.884   0.404 -0.4012  0.0802  0.5712
15904TIP3    H169127   0.104   5.860   0.489  0.1569  0.6345  0.9835
15904TIP3    H269128   0.139   5.979   0.403  2.8399  0.2962  1.5112
15905TIP3   OH269129   5.261   5.152   3.036  0.6495  0.5891 -0.1811
15905TIP3    H169130   5.315   5.159   2.957  1.8856 -2.8883  0.2113
15905TIP3    H269131   5.323   5.163   3.108  0.4938 -1.2900  0.2697
15906TIP3   OH269132   6.439   5.256   1.240 -0.3206 -0.1328  0.0930
15906TIP3    H169133   6.374   5.321   1.266 -0.1271 -0.0834  0.4685
15906TIP3    H269134   6.512   5.307   1.205  0.4255 -0.0346  1.6779
15907TIP3   OH269135   1.837   0.568  13.066 -0.4386  0.0470  0.4125
15907TIP3    H169136   1.913   0.600  13.115  0.7925 -0.7013 -0.9222
15907TIP3    H269137   1.832   0.475  13.087  0.4248 -0.4080 -1.1847
15908TIP3   OH269138   3.256   5.176   4.355 -0.0209 -0.0823 -0.0172
15908TIP3    H169139   3.297   5.160   4.270 -0.3728  0.1430 -0.2327
15908TIP3    H269140   3.214   5.094   4.378  0.6214 -0.3476  0.2518
15909TIP3   OH269141   3.704   1.274   3.383 -0.0984 -0.1115 -0.4169
15909TIP3    H169142   3.792   1.235   3.387 -0.5312 -1.0303  0.8383
15909TIP3    H269143   3.672   1.270   3.473 -1.0128  1.2270 -0.6533
15910TIP3   OH269144   5.441   3.004  14.133 -0.6677 -0.2934 -0.3081
15910TIP3    H169145   5.517   2.952  14.108 -0.6138 -0.2324 -0.2727
15910TIP3    H269146   5.422   3.058  14.056  0.1671  0.6859  0.1604
15911TIP3   OH269147   6.753   3.187   3.604  0.1256 -0.6776 -0.2881
15911TIP3    H169148   6.661   3.210   3.592 -0.2683 -2.8459 -2.2264
15911TIP3    H269149   6.753   3.091   3.611  2.3115 -0.8752 -1.8981
15912TIP3   OH269150   3.998   4.762   5.986  0.7157 -0.0285  0.4374
15912TIP3    H169151   3.937   4.805   5.926  0.6655 -1.8127 -0.8409
15912TIP3    H269152   4.040   4.835   6.033 -1.5015  1.2924  0.5234
15913TIP3   OH269153   1.692   0.098   4.340 -0.0139  0.4735  0.5247
15913TIP3    H169154   1.605   0.057   4.332 -0.1832  0.7244  1.0671
15913TIP3    H269155   1.677   0.190   4.317  0.2724  0.3483 -0.1980
15914TIP3   OH269156   2.550   5.748   3.872  0.1784  0.1972  0.0905
15914TIP3    H169157   2.565   5.658   3.898  0.2544 -0.4710 -2.0759
15914TIP3    H269158   2.628   5.773   3.823 -0.4453  0.9568 -0.5520
15915TIP3   OH269159   2.647   5.240   2.456 -0.0075  0.1555 -0.0903
15915TIP3    H169160   2.561   5.215   2.489 -0.0334 -2.5199 -1.8121
15915TIP3    H269161   2.649   5.207   2.366  2.4350  1.0994 -0.4777
15916TIP3   OH269162   3.856   0.833  11.370  0.7315 -0.2533  0.2029
15916TIP3    H169163   3.943   0.793  11.374  0.1595 -1.4447  1.6167
15916TIP3    H269164   3.856   0.898  11.440  0.3382 -0.5555  0.4832
15917TIP3   OH269165   5.229   2.912  15.388 -0.4527 -0.1454 -0.3117
15917TIP3    H169166   5.192   2.826  15.371 -1.4829 -0.0386  1.2029
15917TIP3    H269167   5.166   2.955  15.446  0.4065  1.3457 -0.4115
15918TIP3   OH269168   5.621   5.379   1.634  0.5916  0.0737  0.1391
15918TIP3    H169169   5.646   5.426   1.555  1.9787  1.5676  1.3983
15918TIP3    H269170   5.583   5.297   1.603  2.3312  0.0225 -2.0224
15919TIP3   OH269171   6.752   0.356  13.648 -0.4292  0.3544 -0.0841
15919TIP3    H169172   6.729   0.286  13.709  0.3083  2.1609  2.5038
15919TIP3    H269173   6.669   0.385  13.611 -1.0933  0.0324  1.1152
15920TIP3   OH269174   4.127   3.663   1.826  0.4197 -0.1931 -0.0436
15920TIP3    H169175   4.181   3.730   1.868  0.7517 -0.7109  0.3682
15920TIP3    H269176   4.060   3.712   1.779  1.4239  0.4836 -0.8204
15921TIP3   OH269177   1.882   6.130  14.795 -0.1045 -0.3535 -0.2149
15921TIP3    H169178   1.952   6.195  14.797 -0.7036  0.2990  1.2011
15921TIP3    H269179   1.894   6.084  14.712  0.7480  1.1187 -0.9583
15922TIP3   OH269180   5.760   3.330  13.448  0.4816 -0.5520 -0.4000
15922TIP3    H169181   5.834   3.297  13.499 -0.1106  0.5367  1.2456
15922TIP3    H269182   5.725   3.402  13.501 -1.8374 -1.1104 -1.0644
15923TIP3   OH269183   2.297   2.733  11.396  0.3738  0.2971  0.1792
15923TIP3    H169184   2.239   2.796  11.353 -1.3378 -2.0068 -1.1331
15923TIP3    H269185   2.364   2.714  11.330  1.7467  1.7309  1.0976
15924TIP3   OH269186   0.205   6.084  11.474  0.3966  0.2601  0.4252
15924TIP3    H169187   0.203   6.024  11.400 -0.5522  0.5371  0.2194
15924TIP3    H269188   0.133   6.056  11.530  0.2100  0.9396  0.5324
15925TIP3   OH269189   5.704   3.302   0.313 -0.2183  0.1952 -0.0952
15925TIP3    H169190   5.744   3.307   0.400 -0.0006  0.6258 -0.2155
15925TIP3    H269191   5.763   3.246   0.263 -0.9913 -1.0678  0.3719
15926TIP3   OH269192   2.397   3.954  16.048 -0.1224 -0.0948 -0.2750
15926TIP3    H169193   2.363   3.868  16.072  0.6744 -0.6357 -1.0077
15926TIP3    H269194   2.491   3.940  16.035  0.1990  1.1079  0.5941
15927TIP3   OH269195   2.058   3.956   3.510  0.1015 -0.3927  0.5720
15927TIP3    H169196   2.126   3.997   3.563  0.6940 -1.6664  0.8313
15927TIP3    H269197   2.031   3.880   3.561 -0.1330 -0.9914 -0.4217
15928TIP3   OH269198   3.609   6.314   3.146 -0.3104 -0.7057 -0.2254
15928TIP3    H169199   3.634   6.316   3.239 -1.0809  0.0655 -0.0180
15928TIP3    H269200   3.569   6.228   3.134  0.7304 -1.2188 -0.1092
15929TIP3   OH269201   0.578   4.283   0.811  0.1944 -0.6338  0.7534
15929TIP3    H169202   0.648   4.267   0.748 -0.2216 -0.7805  0.3302
15929TIP3    H269203   0.498   4.286   0.759 -0.0562  0.0913  1.1608
15930TIP3   OH269204   4.820   4.714   1.150 -0.3100  0.3085  0.0421
15930TIP3    H169205   4.725   4.720   1.162 -0.6067 -0.1648 -1.8216
15930TIP3    H269206   4.831   4.664   1.069  1.5793 -1.1329  1.1217
15931TIP3   OH269207   4.419   3.552   4.450  0.6054 -0.0032  0.7355
15931TIP3    H169208   4.463   3.610   4.513  1.6160  0.3873 -0.2710
15931TIP3    H269209   4.327   3.575   4.456  0.8564  0.9649  1.1332
15932TIP3   OH269210   3.239   6.116   4.861  0.0516  0.3137 -0.4734
15932TIP3    H169211   3.165   6.135   4.918 -1.0198 -0.4644 -1.5589
15932TIP3    H269212   3.289   6.049   4.908 -0.0929  0.6068  0.1134
15933TIP3   OH269213   4.826   5.450   1.710 -0.3193 -0.0448  0.0859
15933TIP3    H169214   4.763   5.521   1.724 -1.0618 -0.9199  1.2946
15933TIP3    H269215   4.905   5.495   1.678 -1.2776  1.1433 -0.6988
15934TIP3   OH269216   2.301   3.164  12.313  0.3081 -0.1263 -0.4214
15934TIP3    H169217   2.337   3.192  12.397  0.0512 -1.8568  0.3196
15934TIP3    H269218   2.208   3.183  12.320  0.2340 -0.5505 -0.1610
15935TIP3   OH269219   1.137   1.456  15.140  0.0933 -0.2316 -0.0495
15935TIP3    H169220   1.152   1.491  15.227 -2.3178 -0.3123  0.4725
15935TIP3    H269221   1.057   1.500  15.110  0.8597 -0.1919 -2.2481
15936TIP3   OH269222   2.521   0.436   1.181  0.1548 -0.1023  0.1085
15936TIP3    H169223   2.515   0.503   1.249  0.3722 -0.2517  0.2745
15936TIP3    H269224   2.582   0.371   1.216 -0.0912 -0.4137 -0.0285
15937TIP3   OH269225   3.413   6.412   0.082 -0.0482  0.3037  0.0083
15937TIP3    H169226   3.486   6.367   0.124  1.3530  1.3332 -1.2345
15937TIP3    H269227   3.413   6.380  -0.008 -0.6304  0.9161 -0.2200
15938TIP3   OH269228   2.517   1.054   4.402 -0.1478 -0.3165  0.5217
15938TIP3    H169229   2.579   1.123   4.376  0.3391 -1.2781 -0.9949
15938TIP3    H269230   2.443   1.102   4.438  0.6984  0.9504  0.6809
15939TIP3   OH269231   5.048   5.966  16.624  0.2038 -0.0692  0.5157
15939TIP3    H169232   5.079   6.039  16.677  1.3541 -1.3086  1.6233
15939TIP3    H269233   5.119   5.950  16.562 -0.2353  0.0286 -0.0187
15940TIP3   OH269234   0.004   4.971  16.802  0.6592  0.0850  0.5334
15940TIP3    H169235   0.009   4.877  16.783 -1.2365 -0.1551  0.9877
15940TIP3    H269236  -0.027   5.010  16.720 -2.4114 -0.2764  1.3726
15941TIP3   OH269237   6.544   1.935  16.347  0.0803 -0.0719 -0.2552
15941TIP3    H169238   6.532   2.022  16.385  0.7183  0.2476 -0.7749
15941TIP3    H269239   6.600   1.949  16.271  0.2667 -0.9525 -0.2924
15942TIP3   OH269240   1.256   1.331  15.537 -0.2829 -0.4385  0.4071
15942TIP3    H169241   1.318   1.364  15.602  0.0960  1.0173 -0.6412
15942TIP3    H269242   1.306   1.267  15.487 -0.6273 -1.7046  1.6109
15943TIP3   OH269243   2.049   6.659   3.876 -0.4297 -0.3118  0.3721
15943TIP3    H169244   2.110   6.586   3.866 -1.1139 -1.0655  1.4233
15943TIP3    H269245   2.073   6.700   3.959 -1.6392 -0.9455  1.0698
15944TIP3   OH269246   0.425   5.253   5.697  0.2714 -0.2970  0.1644
15944TIP3    H169247   0.372   5.323   5.736 -0.8467 -0.7035 -0.6010
15944TIP3    H269248   0.464   5.208   5.773  0.0235  0.3954  0.7110
15945TIP3   OH269249   0.815   5.194  16.195  0.0724  0.1376  0.1969
15945TIP3    H169250   0.753   5.240  16.252  0.8567 -0.1286  1.2880
15945TIP3    H269251   0.826   5.253  16.120  0.0512  1.1278  0.9482
15946TIP3   OH269252   2.304   6.659  16.562 -0.2177 -0.1289 -0.2966
15946TIP3    H169253   2.304   6.640  16.656  0.9430 -1.1553 -0.4722
15946TIP3    H269254   2.236   6.603  16.526 -2.1413  1.8030  0.1649
15947TIP3   OH269255   1.216   3.245   2.848  0.1659 -0.8440  0.3851
15947TIP3    H169256   1.305   3.223   2.821  0.7772 -2.1753  3.1287
15947TIP3    H269257   1.187   3.169   2.898 -2.6257 -0.5200 -0.5759
15948TIP3   OH269258   4.483   3.328   0.376 -0.1230 -0.0861  0.0659
15948TIP3    H169259   4.467   3.420   0.355 -1.8499 -0.1134  1.0657
15948TIP3    H269260   4.572   3.327   0.410 -0.0415  1.1923 -0.0381
15949TIP3   OH269261   4.722   3.800   1.268  0.2157 -0.1741  0.4053
15949TIP3    H169262   4.647   3.766   1.218  0.2267  0.8678 -0.3473
15949TIP3    H269263   4.797   3.785   1.211  0.7981 -2.2197  1.6037
15950TIP3   OH269264   4.518   1.542  15.255  0.0634 -0.0841  0.0066
15950TIP3    H169265   4.606   1.575  15.235 -0.1116  0.1383 -0.4047
15950TIP3    H269266   4.517   1.533  15.350  0.7404 -0.6741 -0.0305
15951TIP3   OH269267   4.810   1.966  13.183 -0.0106 -0.5618 -0.4685
15951TIP3    H169268   4.753   1.916  13.242 -0.3200 -1.4090 -1.4445
15951TIP3    H269269   4.763   1.965  13.099  1.4646 -1.3550 -1.3283
15952TIP3   OH269270   5.986   2.660   5.316  0.2258 -0.1444 -0.1833
15952TIP3    H169271   6.029   2.673   5.401  0.8902  1.3988 -0.7067
15952TIP3    H269272   6.055   2.630   5.258  0.0534 -0.0240 -0.4545
15953TIP3   OH269273   2.922   3.636  13.558 -0.5162  0.4162 -0.2982
15953TIP3    H169274   2.891   3.686  13.483 -0.4662 -0.8182 -1.1825
15953TIP3    H269275   3.010   3.668  13.574 -0.7181  1.0477 -0.4334
15954TIP3   OH269276   0.531   5.056   5.046  0.2756  0.3579  0.1673
15954TIP3    H169277   0.555   5.022   4.960  0.8498  0.2407  0.3682
15954TIP3    H269278   0.510   4.978   5.097  1.1650  0.3263  0.4998
15955TIP3   OH269279   4.374   2.821   3.351 -0.0574  0.8623  0.2475
15955TIP3    H169280   4.374   2.726   3.340  1.5990  0.3512  3.4501
15955TIP3    H269281   4.281   2.846   3.350 -0.6584 -1.1341  1.3212
15956TIP3   OH269282   6.384   4.312  13.896 -0.1707  0.1480 -0.0244
15956TIP3    H169283   6.421   4.378  13.838 -0.2238 -0.1832 -0.4338
15956TIP3    H269284   6.355   4.241  13.838 -0.5313 -0.0360  0.3722
15957TIP3   OH269285   5.636   0.182   2.568 -0.9050  0.6834 -0.1315
15957TIP3    H169286   5.701   0.113   2.581 -2.3168 -1.0106 -1.5345
15957TIP3    H269287   5.638   0.199   2.474 -2.4815  0.5589 -0.2133
15958TIP3   OH269288   6.532   0.810  13.663 -0.5252 -0.0638 -0.0819
15958TIP3    H169289   6.501   0.756  13.736  0.2061  1.6060  1.5397
15958TIP3    H269290   6.627   0.798  13.664 -0.3026  1.5143  0.5884
15959TIP3   OH269291   1.603   1.492   0.974 -0.3196  0.1294 -0.1084
15959TIP3    H169292   1.652   1.436   1.034 -1.6676 -1.1141 -0.1259
15959TIP3    H269293   1.670   1.547   0.932  0.8755 -0.5029  0.9193
15960TIP3   OH269294   0.524   2.755  16.663  0.1556  0.0916  0.2742
15960TIP3    H169295   0.584   2.816  16.618  1.5269 -1.5260 -0.2052
15960TIP3    H269296   0.571   2.728  16.741  0.8560 -2.4397 -0.9069
15961TIP3   OH269297   5.863   6.054   0.369 -0.3579  0.2623  0.5999
15961TIP3    H169298   5.958   6.043   0.368 -0.3631  0.2060  0.7120
15961TIP3    H269299   5.847   6.129   0.312 -0.2491  0.2475  0.5502
15962TIP3   OH269300   1.229   3.294   0.685 -0.4161  0.8027  0.1737
15962TIP3    H169301   1.150   3.348   0.679 -1.8261 -1.1399  0.4320
15962TIP3    H269302   1.238   3.255   0.599 -0.1329  0.4577  0.3575
15963TIP3   OH269303   4.939   0.649   1.088 -0.1644 -0.5513  0.6225
15963TIP3    H169304   4.900   0.561   1.096 -0.8018 -0.4408 -0.8811
15963TIP3    H269305   4.938   0.666   0.994 -1.0193  1.4960  0.9563
15964TIP3   OH269306   5.583   1.462  16.036 -0.5040  0.2950  0.4565
15964TIP3    H169307   5.627   1.496  16.113  0.9879 -0.5048  0.0115
15964TIP3    H269308   5.496   1.499  16.039 -0.2708  0.7791  2.1825
15965TIP3   OH269309   6.737   0.389  14.690 -0.3776  0.5405  0.3357
15965TIP3    H169310   6.795   0.443  14.637 -0.5900  0.1939 -0.2595
15965TIP3    H269311   6.758   0.413  14.781  1.5266 -0.4152  0.1962
15966TIP3   OH269312   4.045   4.199  16.509 -0.0284  0.4364  0.0748
15966TIP3    H169313   3.968   4.154  16.475  0.0677 -1.2373  1.8782
15966TIP3    H269314   4.118   4.166  16.457 -0.1107 -0.6748  0.6307
15967TIP3   OH269315   3.229   2.561  12.256  0.9085  0.1640 -0.0514
15967TIP3    H169316   3.257   2.650  12.235  3.0967 -0.4927 -0.1482
15967TIP3    H269317   3.238   2.514  12.173 -0.7769 -0.0638 -0.1398
15968TIP3   OH269318   5.410   0.151   2.210 -0.2505 -0.6989 -0.7931
15968TIP3    H169319   5.408   0.233   2.259 -0.5581 -1.1212 -0.0898
15968TIP3    H269320   5.502   0.140   2.186 -0.1675 -0.2706 -0.6778
15969TIP3   OH269321   1.965   1.312   2.842  0.2672  0.4287 -0.0626
15969TIP3    H169322   2.015   1.237   2.812  0.1991  0.2460  0.2820
15969TIP3    H269323   1.878   1.277   2.861 -0.1330  0.8167 -1.0684
15970TIP3   OH269324   4.305   0.666  13.276  0.0046 -0.3087 -0.1574
15970TIP3    H169325   4.217   0.702  13.284 -0.3469 -0.7508 -1.7693
15970TIP3    H269326   4.362   0.742  13.264 -0.0524  0.0172  1.4055
15971TIP3   OH269327   3.413   5.057   4.145 -0.5670  0.7079  0.0284
15971TIP3    H169328   3.480   5.124   4.135 -0.2955  0.4397  0.0462
15971TIP3    H269329   3.425   4.999   4.070 -1.3501  1.1507 -0.4536
15972TIP3   OH269330   1.915   0.301   0.460  0.2415  0.6204 -0.1137
15972TIP3    H169331   1.973   0.364   0.502 -0.2595 -0.0983  1.7875
15972TIP3    H269332   1.971   0.224   0.444 -0.1056 -0.0273  1.6063
15973TIP3   OH269333   4.078   3.506   5.030 -0.5148  0.1729 -0.6114
15973TIP3    H169334   4.127   3.584   5.056  2.2592 -1.3178 -0.9170
15973TIP3    H269335   4.109   3.437   5.090  1.1737 -1.8333 -3.4860
15974TIP3   OH269336   1.136   3.221  16.857 -0.1446 -0.5887 -0.2203
15974TIP3    H169337   1.218   3.171  16.849  0.8179  0.8679  0.1070
15974TIP3    H269338   1.160   3.310  16.830 -0.7429  0.7057  3.0256
15975TIP3   OH269339   2.305   2.327   1.196  0.0866 -0.1099  0.9842
15975TIP3    H169340   2.361   2.380   1.253 -0.8128  0.0388  1.7526
15975TIP3    H269341   2.310   2.370   1.110  1.6218 -0.4623  0.8796
15976TIP3   OH269342   1.492   5.750   3.943 -0.0601  0.7933  0.1487
15976TIP3    H169343   1.478   5.769   4.036  1.7301 -1.6264  1.0232
15976TIP3    H269344   1.586   5.767   3.930  0.1564 -0.8347 -0.6497
15977TIP3   OH269345   5.843   1.193   3.564  0.0812  0.3730 -0.7705
15977TIP3    H169346   5.859   1.120   3.505  0.3402 -1.3168  1.3025
15977TIP3    H269347   5.930   1.233   3.577  0.7603 -1.5814  1.3074
15978TIP3   OH269348   1.374   4.036  13.750  0.0016  1.0910 -0.3450
15978TIP3    H169349   1.293   4.032  13.699 -0.3025  1.0938  0.1338
15978TIP3    H269350   1.393   3.944  13.770  0.1762  1.0827 -0.5537
15979TIP3   OH269351   4.855   0.337  15.451  0.6684  0.6009 -0.0797
15979TIP3    H169352   4.808   0.287  15.385 -1.1150  1.9063  0.1242
15979TIP3    H269353   4.948   0.324  15.430  0.1891 -0.6200 -1.5881
15980TIP3   OH269354   1.782   2.780   5.396  0.4618  0.2136 -0.5845
15980TIP3    H169355   1.740   2.700   5.429 -0.0971  1.0607  0.8490
15980TIP3    H269356   1.855   2.749   5.343 -0.7044 -1.2728 -1.3869
15981TIP3   OH269357   6.034   4.178   5.634 -1.2196  0.0007 -0.1755
15981TIP3    H169358   5.951   4.150   5.674 -0.9556  0.2068  0.5385
15981TIP3    H269359   6.101   4.144   5.693 -0.8042  0.0810 -0.5974
15982TIP3   OH269360   6.708   0.875   0.548 -0.3837  0.2969  0.1381
15982TIP3    H169361   6.630   0.891   0.602 -1.4799  1.0931 -1.5969
15982TIP3    H269362   6.696   0.787   0.513 -0.3626  0.3130  0.0904
15983TIP3   OH269363   1.580   2.837  13.850  0.3180  0.4038 -1.3085
15983TIP3    H169364   1.607   2.867  13.764 -1.0052 -0.8730 -2.2050
15983TIP3    H269365   1.501   2.888  13.870 -0.2034 -0.3010 -1.5116
15984TIP3   OH269366   1.239   6.364   4.386  0.2944  0.0514 -0.4394
15984TIP3    H169367   1.239   6.438   4.446 -0.5766 -0.1909 -0.1351
15984TIP3    H269368   1.331   6.340   4.378  0.3788 -0.2721  1.2369
15985TIP3   OH269369   4.845   3.638  12.733 -0.2320 -0.4468  0.3190
15985TIP3    H169370   4.856   3.637  12.828  1.8103 -1.0401  0.1395
15985TIP3    H269371   4.833   3.730  12.711  3.0641  0.2385  0.8847
15986TIP3   OH269372   1.886   0.784   1.402  0.3179 -0.3173 -0.2682
15986TIP3    H169373   1.861   0.872   1.376  3.4226  0.5503 -0.6225
15986TIP3    H269374   1.923   0.745   1.323  1.7812 -0.8160  0.6370
15987TIP3   OH269375   1.729   4.713  16.253  0.3624  0.2668 -0.6745
15987TIP3    H169376   1.733   4.617  16.253 -0.8691  0.1849  0.5066
15987TIP3    H269377   1.642   4.733  16.289  1.5238  1.8441  1.4619
15988TIP3   OH269378   3.077   2.997   0.806  0.4924 -0.0771 -0.3084
15988TIP3    H169379   3.002   3.009   0.864  0.9839 -0.9716  0.5421
15988TIP3    H269380   3.041   3.003   0.718 -0.6975 -1.0919  0.0845
15989TIP3   OH269381   0.824   3.819   5.006  0.2163  0.3388 -0.4004
15989TIP3    H169382   0.852   3.746   5.061  1.0520  1.3385  0.5414
15989TIP3    H269383   0.751   3.859   5.053 -2.9974 -2.1641 -2.7768
15990TIP3   OH269384   1.864   3.160   3.676  0.7738 -0.2512 -0.4674
15990TIP3    H169385   1.905   3.207   3.603  1.2116 -0.8008 -0.5779
15990TIP3    H269386   1.883   3.068   3.659 -0.2281 -0.4956 -0.3461
15991TIP3   OH269387   4.782   4.263  17.169 -0.1250  0.5114 -0.0838
15991TIP3    H169388   4.717   4.232  17.232 -0.7679  0.3951 -0.7989
15991TIP3    H269389   4.802   4.186  17.116  1.3902  0.2673  0.7884
15992TIP3   OH269390   5.344   5.169  15.835  0.3656  0.3286 -0.1786
15992TIP3    H169391   5.436   5.171  15.864 -0.0400 -1.2493  1.3794
15992TIP3    H269392   5.340   5.096  15.774  0.1059  0.2681 -0.0894
15993TIP3   OH269393   2.180   6.623   5.842  0.3018 -0.1088 -0.0971
15993TIP3    H169394   2.258   6.647   5.891 -0.2396  1.6136 -0.0171
15993TIP3    H269395   2.212   6.607   5.753  0.8203  0.0195  0.0621
15994TIP3   OH269396   6.698   5.454   6.341 -0.0546  0.7367  0.0973
15994TIP3    H169397   6.671   5.493   6.425 -0.3572 -0.3512  0.5161
15994TIP3    H269398   6.637   5.491   6.277  0.4617  1.9325  0.2613
15995TIP3   OH269399   4.703   1.506   3.188  0.1666  0.7074 -0.0543
15995TIP3    H169400   4.713   1.417   3.222  0.1018  0.2447 -1.1994
15995TIP3    H269401   4.612   1.510   3.158 -0.3601  1.7317  1.5093
15996TIP3   OH269402   4.555   4.955  15.731  0.2660 -0.4100  0.6691
15996TIP3    H169403   4.650   4.940  15.736  0.3685  0.2475  0.8425
15996TIP3    H269404   4.524   4.891  15.666  0.8369 -0.5911  0.5673
15997TIP3   OH269405   1.059   3.288   4.373  0.3146  0.5866 -0.0254
15997TIP3    H169406   1.099   3.311   4.457  0.0307  2.0269 -0.2512
15997TIP3    H269407   0.966   3.309   4.384  0.1519  0.0958 -0.4638
15998TIP3   OH269408   0.018   4.338   1.361  0.3120 -0.4643 -0.3938
15998TIP3    H169409  -0.056   4.304   1.311  2.8486 -2.5312 -3.1212
15998TIP3    H269410   0.070   4.387   1.297  1.6710  0.3245  1.2321
15999TIP3   OH269411   4.607   3.727  14.500 -0.1103 -0.1973  1.0273
15999TIP3    H169412   4.587   3.666  14.571  0.1152 -1.1258  0.3102
15999TIP3    H269413   4.539   3.711  14.435 -0.4162  0.7689  1.0906
16000TIP3   OH269414   1.681   0.638   1.087 -0.1142 -0.4708 -0.0721
16000TIP3    H169415   1.643   0.598   1.165 -0.1283  1.2113  0.8315
16000TIP3    H269416   1.775   0.630   1.099 -0.1110 -1.9235 -0.8454
16001TIP3   OH269417   6.569   5.466   0.912 -0.4455  0.1744  0.0593
16001TIP3    H169418   6.492   5.408   0.912 -0.9144  0.7793  0.0361
16001TIP3    H269419   6.619   5.440   0.989 -0.8420 -0.0155  0.2591
16002TIP3   OH269420   4.493   3.254   3.117 -0.4317  1.2692 -0.6160
16002TIP3    H169421   4.508   3.264   3.211 -2.9084 -2.8779  0.4729
16002TIP3    H269422   4.423   3.317   3.097 -2.2115 -0.0207  1.2043
16003TIP3   OH269423   1.358   3.085  16.893 -0.6170 -0.0677  0.0568
16003TIP3    H169424   1.393   3.168  16.924 -2.7775  1.3478 -1.0747
16003TIP3    H269425   1.317   3.046  16.970  1.6911 -0.8811  0.9521
16004TIP3   OH269426   0.163   2.263   3.210  0.2131  0.5601 -0.0586
16004TIP3    H169427   0.191   2.179   3.247  0.4260 -0.1389 -1.7112
16004TIP3    H269428   0.076   2.278   3.248  0.3040 -0.2401  0.4909
16005TIP3   OH269429   4.526   4.285   3.733  0.6763 -0.4631 -0.2835
16005TIP3    H169430   4.565   4.317   3.651  0.4908 -1.5131 -0.8046
16005TIP3    H269431   4.431   4.285   3.716  0.7033 -2.0255 -0.6119
16006TIP3   OH269432   6.293   3.239  14.553 -0.1712  0.0790 -0.0920
16006TIP3    H169433   6.257   3.201  14.473  0.4735  0.6460 -0.6655
16006TIP3    H269434   6.220   3.238  14.615 -0.8776  0.2753 -0.8983
16007TIP3   OH269435   0.584   5.425  14.573  0.5498 -0.0505 -0.0266
16007TIP3    H169436   0.507   5.370  14.579  1.4601 -1.3710 -0.0102
16007TIP3    H269437   0.633   5.408  14.654  1.1015  0.3801 -0.2572
16008TIP3   OH269438   2.565   5.775  12.754  0.2642  0.7679 -0.0117
16008TIP3    H169439   2.504   5.756  12.683 -0.5658  0.2575  0.8166
16008TIP3    H269440   2.651   5.771  12.713  0.1035 -3.2084 -0.3016
16009TIP3   OH269441   0.088   6.222  15.772 -0.2407  0.8611 -0.3735
16009TIP3    H169442   0.157   6.179  15.823 -3.0723 -4.1117 -0.0555
16009TIP3    H269443   0.107   6.196  15.681 -0.3377  1.6761 -0.6324
16010TIP3   OH269444   2.008   4.918   6.013  0.0732  0.3043  0.1673
16010TIP3    H169445   2.037   4.939   6.101 -0.2487 -0.8595  0.5611
16010TIP3    H269446   2.046   4.832   5.994 -0.9222 -0.0553 -0.3160
16011TIP3   OH269447   4.387   2.992  15.453  0.3215  0.0255 -0.0717
16011TIP3    H169448   4.331   3.052  15.502 -0.9073 -1.0875 -0.0564
16011TIP3    H269449   4.430   2.938  15.520 -0.8957 -1.0895 -0.1335
16012TIP3   OH269450   0.089   0.467   1.098 -0.2855 -0.2491 -0.5922
16012TIP3    H169451   0.032   0.509   1.034 -1.1020 -0.9928 -0.3659
16012TIP3    H269452   0.173   0.457   1.052 -0.0996  1.5068 -0.6780
16013TIP3   OH269453   1.139   4.173   5.571  0.2234  0.1241  0.2905
16013TIP3    H169454   1.095   4.247   5.530 -1.3627 -0.1129  1.4950
16013TIP3    H269455   1.074   4.136   5.630  1.7451 -0.8383  1.4233
16014TIP3   OH269456   6.116   1.355   3.550  0.0630  0.1282  0.3111
16014TIP3    H169457   6.167   1.330   3.473 -0.2566 -1.0321  0.4529
16014TIP3    H269458   6.182   1.376   3.616  0.4055 -1.6366  0.5786
16015TIP3   OH269459   0.401   4.277   1.597 -0.2883 -0.5391 -0.4645
16015TIP3    H169460   0.446   4.220   1.660  1.4366 -1.2087 -2.1952
16015TIP3    H269461   0.407   4.229   1.514 -1.7558  0.6903 -1.3242
16016TIP3   OH269462   6.151   5.693  13.551 -0.4624 -0.0275 -0.5415
16016TIP3    H169463   6.205   5.719  13.625  1.1029  0.7306 -1.8767
16016TIP3    H269464   6.065   5.675  13.589  0.4902 -0.5181  1.5632
16017TIP3   OH269465   6.005   2.953  12.707 -0.6591 -0.1889  0.4947
16017TIP3    H169466   5.992   3.041  12.742 -0.8260  0.0586 -0.1868
16017TIP3    H269467   6.093   2.955  12.669 -1.1142  0.0438 -0.5717
16018TIP3   OH269468   4.771   0.111  13.297 -0.6517 -0.3004 -0.0709
16018TIP3    H169469   4.711   0.104  13.371  0.5395 -2.2367  0.7765
16018TIP3    H269470   4.854   0.137  13.335 -0.3061 -0.1432 -0.9036
16019TIP3   OH269471   6.700   6.754   1.004 -0.0672  0.2893 -0.1867
16019TIP3    H169472   6.762   6.694   1.044  0.6725  0.3812 -1.1508
16019TIP3    H269473   6.614   6.717   1.024  0.3001 -0.0601  0.8229
16020TIP3   OH269474   4.372   4.193   5.777  0.3690 -0.4945  0.1754
16020TIP3    H169475   4.319   4.213   5.854  0.3263  1.0073 -0.2143
16020TIP3    H269476   4.392   4.278   5.739 -0.7016 -1.2494 -2.2339
16021TIP3   OH269477   4.115   6.236   3.484  0.3614  0.5712 -0.0597
16021TIP3    H169478   4.099   6.144   3.505 -0.2369  0.5043 -0.7849
16021TIP3    H269479   4.207   6.239   3.459 -0.4482 -0.5839 -3.7530
16022TIP3   OH269480   5.668   5.775  14.728 -0.3413 -0.6170 -0.1850
16022TIP3    H169481   5.743   5.735  14.773 -1.4178 -1.9591  0.4928
16022TIP3    H269482   5.697   5.785  14.637  1.2195  0.4063  0.3937
16023TIP3   OH269483   1.618   5.280   0.213 -1.1728  0.1672  0.6438
16023TIP3    H169484   1.608   5.185   0.202 -1.2992  0.2683 -0.1037
16023TIP3    H269485   1.712   5.294   0.210 -1.1866  0.1499  0.0281
16024TIP3   OH269486   4.025   4.198   2.419  0.5483  0.2124 -1.1551
16024TIP3    H169487   3.986   4.183   2.333 -0.4401 -2.0722 -0.3741
16024TIP3    H269488   3.955   4.237   2.471  1.3169  2.1550 -1.4676
16025TIP3   OH269489   3.952   1.625   3.954  0.0255 -0.3489  0.4457
16025TIP3    H169490   3.954   1.673   4.037 -0.8593 -0.0416  0.2956
16025TIP3    H269491   3.907   1.543   3.973 -1.3750  0.2859 -0.0014
16026TIP3   OH269492   3.112   1.439  14.473 -0.3145  0.7033 -0.1955
16026TIP3    H169493   3.168   1.513  14.495  1.9463 -0.4600 -1.6822
16026TIP3    H269494   3.070   1.464  14.391 -1.5897  1.3375  0.6217
16027TIP3   OH269495   1.761   0.580   4.970 -0.2040 -0.3965 -0.0224
16027TIP3    H169496   1.843   0.563   4.923  0.2740 -0.4360  0.8101
16027TIP3    H269497   1.764   0.674   4.990 -0.9938 -0.1150 -1.1509
16028TIP3   OH269498   1.207   3.775   2.361 -0.3965 -0.0497 -0.1003
16028TIP3    H169499   1.188   3.681   2.367 -1.8264  0.2062 -0.1518
16028TIP3    H269500   1.301   3.782   2.375 -0.4935 -1.3546  1.5086
16029TIP3   OH269501   1.831   1.541  16.220 -0.0833  0.1095  0.3530
16029TIP3    H169502   1.885   1.521  16.297  0.1305 -2.1812 -0.3015
16029TIP3    H269503   1.894   1.561  16.152 -0.3004  3.8595  1.0718
16030TIP3   OH269504   2.456   0.177   2.919  0.4279  0.4098  0.6413
16030TIP3    H169505   2.394   0.165   2.847  0.9394  0.5192  0.1799
16030TIP3    H269506   2.446   0.269   2.944 -1.0931 -0.0534  1.9722
16031TIP3   OH269507   5.395   5.596  16.347  0.1312  0.3338  0.1759
16031TIP3    H169508   5.315   5.596  16.400 -0.4060 -0.4098 -0.5962
16031TIP3    H269509   5.393   5.511  16.302 -0.1336  1.4562 -2.0346
16032TIP3   OH269510   5.644   0.729   3.060 -0.5816  0.3784  0.1121
16032TIP3    H169511   5.723   0.736   3.113 -1.0283 -0.2589  0.8714
16032TIP3    H269512   5.649   0.642   3.020 -0.7889  0.4252 -0.0200
16033TIP3   OH269513   1.097   4.875   4.990 -0.4284 -0.0765  0.4944
16033TIP3    H169514   1.129   4.950   4.941 -0.4171  0.1526  0.8542
16033TIP3    H269515   1.031   4.910   5.050 -0.5875 -0.3844  0.5047
16034TIP3   OH269516   5.423   6.300  14.172 -0.3581 -0.2928 -0.3199
16034TIP3    H169517   5.452   6.211  14.192 -0.5495  0.1430  2.2223
16034TIP3    H269518   5.493   6.336  14.118  1.0150 -1.1848  0.7829
16035TIP3   OH269519   4.803   5.809   0.032 -0.4639 -0.2715 -0.5623
16035TIP3    H169520   4.813   5.745   0.103  1.8040  2.8294  2.2507
16035TIP3    H269521   4.858   5.776  -0.039 -0.5684 -2.1281  0.1784
16036TIP3   OH269522   4.577   3.951   0.977  0.2962  0.3606 -0.7489
16036TIP3    H169523   4.510   3.889   0.949 -2.5460  1.4273  2.8975
16036TIP3    H269524   4.643   3.898   1.022 -0.4662 -0.3164 -0.4276
16037TIP3   OH269525   3.687   2.820  10.980  0.6148 -0.4789  0.4358
16037TIP3    H169526   3.708   2.734  10.942  2.5886  0.1531 -0.0142
16037TIP3    H269527   3.616   2.854  10.925  1.4773 -0.8019 -0.9348
16038TIP3   OH269528   6.578   3.330  16.466  0.5828  0.0553 -0.8468
16038TIP3    H169529   6.635   3.399  16.499  1.5412 -1.4144  0.7544
16038TIP3    H269530   6.500   3.334  16.521  1.1269 -0.8273  0.0161
16039TIP3   OH269531   5.293   3.374  14.344  0.4292  0.4335 -0.1383
16039TIP3    H169532   5.295   3.439  14.274  1.3918 -0.6630 -1.1904
16039TIP3    H269533   5.383   3.370  14.376  0.3459 -0.2137  0.0469
16040TIP3   OH269534   1.497   0.130  15.808  0.5588  0.1454  0.1483
16040TIP3    H169535   1.520   0.100  15.896 -0.5245 -0.0692  0.3734
16040TIP3    H269536   1.403   0.144  15.811  0.4215 -0.3198 -1.1167
16041TIP3   OH269537   0.555   0.172   0.923  0.1757  0.2343 -0.0488
16041TIP3    H169538   0.636   0.126   0.944  0.1588 -0.1883 -0.8939
16041TIP3    H269539   0.485   0.113   0.950  0.1214  0.7737  1.0774
16042TIP3   OH269540   2.314   5.123   1.827 -0.1101  0.1774 -0.6078
16042TIP3    H169541   2.313   5.206   1.874 -1.2196  0.4981 -1.1841
16042TIP3    H269542   2.324   5.057   1.896  3.4405  0.8371 -0.2986
16043TIP3   OH269543   0.730   6.039  11.270 -0.1824 -0.1076 -0.0486
16043TIP3    H169544   0.753   6.132  11.269  1.0026 -0.1706 -4.9675
16043TIP3    H269545   0.815   5.994  11.270 -0.6685 -1.0506 -0.3274
16044TIP3   OH269546   6.483   2.371  16.831 -0.0242  0.2868 -0.1890
16044TIP3    H169547   6.390   2.367  16.851  0.2162 -0.0098  0.9839
16044TIP3    H269548   6.494   2.451  16.780 -0.9213  0.2826 -0.4109
16045TIP3   OH269549   3.859   5.072  13.279 -0.4771  0.4963  0.0256
16045TIP3    H169550   3.800   5.123  13.335  0.0934  0.1742  0.9493
16045TIP3    H269551   3.849   4.982  13.310  0.8295  0.4940  0.5410
16046TIP3   OH269552   4.556   0.027  10.456 -0.0033  0.1998  0.2983
16046TIP3    H169553   4.496   0.038  10.530  1.1386  0.3485  1.2320
16046TIP3    H269554   4.632  -0.017  10.493  0.5057  0.0665 -0.8517
16047TIP3   OH269555   4.367   4.592   2.218  0.1037  0.4305  0.1302
16047TIP3    H169556   4.455   4.563   2.242  0.5071  1.5410  0.0535
16047TIP3    H269557   4.378   4.683   2.188 -1.0241  0.5028 -0.1411
16048TIP3   OH269558   1.974   3.861  15.300 -0.2163 -0.0664  0.1644
16048TIP3    H169559   1.998   3.905  15.218 -1.0506 -0.5371 -0.3540
16048TIP3    H269560   1.883   3.833  15.286 -0.8553  1.0500  1.7708
16049TIP3   OH269561   0.026   0.298  13.307  0.5529 -0.0282 -0.1434
16049TIP3    H169562   0.002   0.239  13.236  0.4428 -1.2081  0.8374
16049TIP3    H269563  -0.055   0.341  13.332 -0.1088 -2.0191  1.3823
16050TIP3   OH269564   2.692   0.232   6.416 -0.1049  0.1597 -0.0880
16050TIP3    H169565   2.783   0.238   6.386 -0.0012  0.5455  0.2973
16050TIP3    H269566   2.640   0.227   6.335  0.3325 -1.2369 -0.3077
16051TIP3   OH269567   1.982   5.628   2.126  0.4188 -0.1695  0.4244
16051TIP3    H169568   2.017   5.568   2.191  0.1161  0.2092  0.9464
16051TIP3    H269569   1.989   5.715   2.166  1.2515  0.2040 -0.4912
16052TIP3   OH269570   6.694   2.783  16.143  0.4061 -0.1496 -0.3445
16052TIP3    H169571   6.676   2.690  16.146 -0.0218 -0.0523  0.6976
16052TIP3    H269572   6.787   2.789  16.122  0.8603 -0.8820  1.2786
16053TIP3   OH269573   1.956   6.047   5.876 -0.1376 -0.3082 -0.2770
16053TIP3    H169574   1.954   6.071   5.968  0.6245 -1.2381 -0.0009
16053TIP3    H269575   2.041   6.006   5.864 -0.7302 -1.3354 -1.1035
16054TIP3   OH269576   5.838   0.201   1.416 -0.2663 -0.3350  0.1066
16054TIP3    H169577   5.795   0.220   1.333  2.1945  4.3677 -0.4090
16054TIP3    H269578   5.766   0.182   1.476 -2.4349  0.3144 -2.1233
16055TIP3   OH269579   0.489   3.705   0.693  0.3052  0.1918 -0.0524
16055TIP3    H169580   0.583   3.727   0.694  0.2709  0.3420 -0.1414
16055TIP3    H269581   0.449   3.775   0.641 -0.0627  0.9391  1.1837
16056TIP3   OH269582   2.051   0.408   2.154 -0.6252 -0.0108 -0.1900
16056TIP3    H169583   2.097   0.380   2.233  1.3480  0.7275 -1.0201
16056TIP3    H269584   2.016   0.327   2.117  1.5847 -0.8972 -0.4570
16057TIP3   OH269585   0.859   1.412  16.198 -0.4544  0.2047 -0.0786
16057TIP3    H169586   0.832   1.321  16.192 -3.2426  0.8344  0.9210
16057TIP3    H269587   0.804   1.458  16.134  0.6943  1.2247 -0.3697
16058TIP3   OH269588   3.704   5.636  11.149  0.2465  0.8167 -0.6083
16058TIP3    H169589   3.675   5.603  11.064  0.6119 -1.0784 -0.0489
16058TIP3    H269590   3.624   5.656  11.196  0.0518  2.7271 -1.6781
16059TIP3   OH269591   4.147   3.587  13.820  0.1335  0.2440  0.3295
16059TIP3    H169592   4.215   3.555  13.760 -0.1222  1.8669 -0.8981
16059TIP3    H269593   4.193   3.602  13.902  0.6466 -1.3546  0.3767
16060TIP3   OH269594   0.719   0.363   1.824 -0.4585 -0.3031  0.0412
16060TIP3    H169595   0.676   0.330   1.745 -0.5579  0.8796 -0.4107
16060TIP3    H269596   0.694   0.455   1.829  0.6780 -0.0063  0.6791
16061TIP3   OH269597   3.779   0.121  12.073  0.3096  0.3952  0.2406
16061TIP3    H169598   3.796   0.106  11.980 -0.0921 -0.8688  0.3483
16061TIP3    H269599   3.857   0.087  12.117  0.4272  0.8398  0.3780
16062TIP3   OH269600   5.294   3.285   4.747  0.0051 -0.0255 -0.2821
16062TIP3    H169601   5.303   3.307   4.839 -2.4196 -1.0517  0.2833
16062TIP3    H269602   5.383   3.275   4.715  0.9054  1.0192  1.7614
16063TIP3   OH269603   1.743   2.868   2.086 -0.3016  0.1317  0.2644
16063TIP3    H169604   1.658   2.838   2.119  0.0015  1.5620  2.5768
16063TIP3    H269605   1.747   2.960   2.110  0.1448  1.3489 -3.7185
16064TIP3   OH269606   4.193   1.546  13.046 -0.2328 -0.1310 -0.1716
16064TIP3    H169607   4.148   1.467  13.015  0.0881 -0.8228  1.0535
16064TIP3    H269608   4.227   1.587  12.966  1.6402 -2.4806 -0.6926
16065TIP3   OH269609   0.614   1.317  15.248 -0.0236 -0.0399 -0.0155
16065TIP3    H169610   0.613   1.225  15.276 -1.3347  0.0313  0.2551
16065TIP3    H269611   0.588   1.314  15.155  1.6575 -0.0579 -0.5211
16066TIP3   OH269612   5.203   4.975   2.470  0.0754 -0.2164 -0.0406
16066TIP3    H169613   5.256   5.005   2.397 -0.3018  1.8224  0.4775
16066TIP3    H269614   5.123   5.027   2.467 -1.1395 -1.9375  0.2913
16067TIP3   OH269615   0.605   3.559   6.287 -0.3638  0.1884 -0.3532
16067TIP3    H169616   0.620   3.477   6.239 -1.5110  0.1883 -0.7573
16067TIP3    H269617   0.540   3.535   6.354  0.2537  0.4869  0.3639
16068TIP3   OH269618   3.723   0.015  16.127 -0.2348  0.0973 -0.2531
16068TIP3    H169619   3.658  -0.049  16.156  0.5818 -0.4167  0.5066
16068TIP3    H269620   3.738  -0.006  16.035 -1.4569  0.5163 -0.5697
16069TIP3   OH269621   0.888   3.798  16.593  0.4455  0.1173 -0.1097
16069TIP3    H169622   0.894   3.859  16.667  1.8780  1.4278 -1.2446
16069TIP3    H269623   0.961   3.821  16.536  1.2190 -2.8442 -0.5063
16070TIP3   OH269624   6.316   5.852   3.394  0.4545 -0.3652  0.1356
16070TIP3    H169625   6.268   5.875   3.473 -1.3816 -2.5660 -0.2383
16070TIP3    H269626   6.348   5.936   3.360 -0.1704  0.8061  2.2596
16071TIP3   OH269627   3.822   2.025   1.087 -0.0351 -0.1168  0.2462
16071TIP3    H169628   3.805   2.025   1.182 -0.4137 -1.0653  0.1867
16071TIP3    H269629   3.885   1.954   1.074 -0.8403 -0.7330 -0.3573
16072TIP3   OH269630   2.562   2.508   4.830 -0.4798  0.1687  0.2682
16072TIP3    H169631   2.639   2.492   4.776 -1.0154  0.4260 -0.5905
16072TIP3    H269632   2.581   2.588   4.877 -0.3066  0.3522 -0.1121
16073TIP3   OH269633   5.324   5.754  16.678 -0.3979 -0.0832  0.2760
16073TIP3    H169634   5.256   5.716  16.624 -1.2537  2.9171 -0.9339
16073TIP3    H269635   5.405   5.737  16.630 -0.6779 -0.7713  0.0341
16074TIP3   OH269636   1.938   6.191   1.817  0.1116  0.1301 -0.3271
16074TIP3    H169637   1.848   6.162   1.832  0.5558 -0.7713  0.7500
16074TIP3    H269638   1.937   6.285   1.836 -0.4381 -0.0249  0.4597
16075TIP3   OH269639   0.298   6.260  17.228 -0.1231 -0.0475 -0.0962
16075TIP3    H169640   0.269   6.350  17.242  0.1121 -0.3012  2.4166
16075TIP3    H269641   0.222   6.207  17.249 -0.0442 -0.4793 -0.8673
16076TIP3   OH269642   2.062   5.398   4.825  0.0307  0.1817 -0.3128
16076TIP3    H169643   1.974   5.373   4.796 -0.4793  0.5936  0.8053
16076TIP3    H269644   2.047   5.474   4.882  1.1786  0.6389 -0.6095
16077TIP3   OH269645   4.519   5.263  15.235  0.1180  0.3791  0.3805
16077TIP3    H169646   4.560   5.349  15.222  0.3078  0.4950  1.6614
16077TIP3    H269647   4.518   5.251  15.329 -2.8241  0.3856  0.4518
16078TIP3   OH269648   5.853   3.493  10.725  0.0606 -0.5444 -0.3261
16078TIP3    H169649   5.920   3.558  10.746  0.5503 -0.9488 -0.6066
16078TIP3    H269650   5.799   3.534  10.657  0.2371 -0.3522 -0.3502
16079TIP3   OH269651   4.080   0.451  12.189 -0.1612 -0.5985  0.0999
16079TIP3    H169652   4.148   0.386  12.210  0.2773  0.0392  0.6998
16079TIP3    H269653   4.088   0.464  12.095  0.8772 -0.1968  0.2202
16080TIP3   OH269654   1.451   5.016   2.211 -0.0803  0.2830  0.7407
16080TIP3    H169655   1.385   4.948   2.195 -1.6908  1.9690 -0.0687
16080TIP3    H269656   1.464   5.057   2.126  0.9693  0.9421  1.1992
16081TIP3   OH269657   0.225   1.057   2.193 -0.3849  0.4058  0.5873
16081TIP3    H169658   0.158   1.075   2.127  0.7274  0.8412 -0.4523
16081TIP3    H269659   0.300   1.110   2.167  0.8843 -1.1442  0.8899
16082TIP3   OH269660   3.953   5.557   5.703  0.8400  0.0064  0.3913
16082TIP3    H169661   4.004   5.498   5.759  0.7878 -1.5246 -1.0981
16082TIP3    H269662   3.891   5.500   5.657 -0.1830  1.4264 -0.0673
16083TIP3   OH269663   4.607   1.555  12.477  0.3139  0.6047 -0.2786
16083TIP3    H169664   4.702   1.549  12.481  0.2249 -0.7744  0.1202
16083TIP3    H269665   4.580   1.483  12.421 -0.5032  1.0071 -0.4234
16084TIP3   OH269666   1.991   5.659   2.852  0.0425  0.0128  0.7521
16084TIP3    H169667   1.983   5.635   2.760  0.2586  2.0765  0.1534
16084TIP3    H269668   2.057   5.599   2.887  0.4129 -0.3819 -0.5866
16085TIP3   OH269669   2.327   1.861  15.562 -0.0426 -0.3294  0.3707
16085TIP3    H169670   2.276   1.834  15.639  1.2138 -1.0686  0.9840
16085TIP3    H269671   2.314   1.956  15.557 -0.7694 -0.3824  1.0292
16086TIP3   OH269672   5.641   3.528   1.196  0.0052 -0.3038 -0.1363
16086TIP3    H169673   5.729   3.553   1.165  0.3105 -0.6602  0.4382
16086TIP3    H269674   5.633   3.436   1.174  0.2019 -0.5488  0.7761
16087TIP3   OH269675   0.364   2.768  17.086 -0.8153 -0.3904  0.4522
16087TIP3    H169676   0.371   2.811  17.171  0.0001  0.1302  0.1324
16087TIP3    H269677   0.438   2.707  17.083 -1.7835 -1.6209  0.7773
16088TIP3   OH269678   0.186   2.377   5.126 -0.1551  0.4199 -0.4667
16088TIP3    H169679   0.258   2.334   5.171 -0.0645  1.6357  0.6082
16088TIP3    H269680   0.220   2.464   5.103 -1.8779  1.9387  2.1054
16089TIP3   OH269681   0.042   1.503  16.226 -0.4266 -0.1283 -0.2442
16089TIP3    H169682   0.018   1.484  16.136 -1.0752  4.5859 -1.3333
16089TIP3    H269683  -0.040   1.533  16.267  0.3470  0.2118  1.1177
16090TIP3   OH269684   6.591   2.972  17.100 -0.4123  0.0975  0.3972
16090TIP3    H169685   6.685   2.964  17.087 -0.5368 -0.8691 -0.0213
16090TIP3    H269686   6.558   2.883  17.088 -1.7311  0.8458 -2.5742
16091TIP3   OH269687   2.671   5.451  14.615 -0.1502  0.2209  0.5147
16091TIP3    H169688   2.660   5.522  14.552 -0.7951  0.4393  0.8589
16091TIP3    H269689   2.759   5.418  14.599  1.4585  3.1317  2.3700
16092TIP3   OH269690   1.179   0.175  16.367 -0.1262 -0.7752 -0.5334
16092TIP3    H169691   1.218   0.121  16.435 -1.7424 -0.4127  0.7431
16092TIP3    H269692   1.086   0.153  16.369 -0.4909  0.5611 -1.3693
16093TIP3   OH269693   4.121   0.701  16.241  0.4351 -0.3384 -1.0909
16093TIP3    H169694   4.102   0.633  16.306  0.3789  1.0655  0.4597
16093TIP3    H269695   4.180   0.660  16.179  1.5351 -1.4137  0.5817
16094TIP3   OH269696   2.343   0.553   0.752 -0.7830  0.1297 -0.0708
16094TIP3    H169697   2.275   0.485   0.751 -1.9841  1.2649  0.7868
16094TIP3    H269698   2.362   0.569   0.659 -2.6984  0.7436 -0.3922
16095TIP3   OH269699   4.833   0.394  15.874 -0.2493  0.8910 -0.5426
16095TIP3    H169700   4.790   0.414  15.958 -1.1660  0.7698 -0.9698
16095TIP3    H269701   4.764   0.357  15.820  0.1651  1.5974 -1.5943
16096TIP3   OH269702   6.634   0.853  13.048 -0.4224  0.1566  0.1565
16096TIP3    H169703   6.572   0.866  12.976  0.7674 -0.6508 -1.0580
16096TIP3    H269704   6.663   0.941  13.071  0.8979  0.3476 -1.9638
16097TIP3   OH269705   0.754   5.088  13.855 -0.3226  0.4668 -0.1127
16097TIP3    H169706   0.755   5.012  13.913  0.4999 -1.1533 -2.1196
16097TIP3    H269707   0.746   5.163  13.914 -2.4533 -1.1766  1.8865
16098TIP3   OH269708   1.174   1.954  17.201 -0.0256 -0.0041  0.4339
16098TIP3    H169709   1.213   1.894  17.138  2.0202  1.5637  0.1032
16098TIP3    H269710   1.111   2.005  17.150 -1.0240 -1.1150  0.4998
16099TIP3   OH269711   2.045   6.755   2.565  0.1972 -0.8922  0.5022
16099TIP3    H169712   1.968   6.794   2.605  0.1756 -2.1417  1.7677
16099TIP3    H269713   2.087   6.706   2.636  1.3801 -1.3989 -0.5005
16100TIP3   OH269714   5.604   4.964   3.824 -0.0698 -0.2651 -0.1478
16100TIP3    H169715   5.624   4.923   3.908  0.9261 -3.3150 -1.7024
16100TIP3    H269716   5.687   5.003   3.796  0.0495 -0.6821 -0.3945
16101TIP3   OH269717   2.393   0.595  15.521 -0.4413 -0.3428 -0.7190
16101TIP3    H169718   2.460   0.528  15.506  1.4026  0.6321  2.3112
16101TIP3    H269719   2.326   0.551  15.573 -0.0026 -0.2754 -0.0815
16102TIP3   OH269720   3.982   0.148  14.465 -0.5313 -0.2280 -0.6280
16102TIP3    H169721   3.992   0.055  14.443 -1.7372 -0.6735  0.5377
16102TIP3    H269722   3.892   0.169  14.438 -0.0551  0.7902 -1.4826
16103TIP3   OH269723   2.223   6.440   1.948 -0.0328 -0.3715  0.0723
16103TIP3    H169724   2.240   6.439   2.042 -1.3066 -0.8757  0.3149
16103TIP3    H269725   2.266   6.360   1.916  0.6018 -0.0785  0.1834
16104TIP3   OH269726   2.149   4.302   1.068 -0.1383  0.1804  0.3287
16104TIP3    H169727   2.237   4.265   1.055  0.1700  1.0462 -0.1336
16104TIP3    H269728   2.115   4.256   1.144  1.0334  0.3837  0.9988
16105TIP3   OH269729   3.825   1.931  16.899  0.0107 -0.2365  0.2890
16105TIP3    H169730   3.866   2.003  16.947  0.6618 -0.5689  0.2349
16105TIP3    H269731   3.837   1.854  16.955 -1.3282 -0.1829  0.6936
16106TIP3   OH269732   4.142   1.346   3.643 -0.0486 -0.5407 -0.4526
16106TIP3    H169733   4.113   1.296   3.720  1.7311 -0.1103  0.5422
16106TIP3    H269734   4.109   1.434   3.657 -1.2064 -0.8564 -1.0685
16107TIP3   OH269735   1.242   3.503  13.677 -0.6822  0.0874  0.1839
16107TIP3    H169736   1.197   3.559  13.740 -0.5468 -0.5275  0.8393
16107TIP3    H269737   1.273   3.429  13.729  1.0666  0.4776 -0.2326
16108TIP3   OH269738   0.916   4.774   3.312  0.7275 -0.5996  0.4605
16108TIP3    H169739   0.835   4.825   3.306  1.1890  0.0966 -0.0556
16108TIP3    H269740   0.982   4.838   3.338  1.3973 -0.8387 -0.5957
16109TIP3   OH269741   1.598   6.368  10.408 -0.1855 -0.5303 -0.3844
16109TIP3    H169742   1.637   6.289  10.446 -0.1424 -0.2414  0.1764
16109TIP3    H269743   1.515   6.378  10.456  0.1630  0.1917  0.0745
16110TIP3   OH269744   1.323   3.785  15.076 -0.4655 -0.3781  0.3180
16110TIP3    H169745   1.292   3.794  15.166 -0.7877  1.0881  0.0820
16110TIP3    H269746   1.394   3.721  15.081 -0.7688 -0.6390  1.5391
16111TIP3   OH269747   3.896   6.287  15.397  0.6781 -0.1327 -0.4828
16111TIP3    H169748   3.914   6.331  15.481  0.3180  0.0210 -0.4806
16111TIP3    H269749   3.982   6.264  15.363  0.7897 -2.4542  1.1077
16112TIP3   OH269750   1.901   0.069   4.491 -0.0766  0.2037 -0.9623
16112TIP3    H169751   1.872  -0.019   4.515  0.0139 -0.2654 -2.4743
16112TIP3    H269752   1.846   0.093   4.416  1.3953  0.4981 -2.0028
16113TIP3   OH269753   3.091   1.612  11.035  0.8294 -0.0017  0.5840
16113TIP3    H169754   3.167   1.639  11.087  0.4115 -0.2510  1.3488
16113TIP3    H269755   3.016   1.637  11.089  0.4069 -1.9172  0.9408
16114TIP3   OH269756   0.406   3.075  14.401 -0.0016 -0.2493  0.0372
16114TIP3    H169757   0.447   3.130  14.334  0.5299 -1.2651 -0.4829
16114TIP3    H269758   0.479   3.034  14.447 -0.3166  1.0335  1.7953
16115TIP3   OH269759   2.291   5.032   2.883  0.3358  0.2869  0.0925
16115TIP3    H169760   2.331   5.049   2.797  0.2124 -0.6400 -0.1655
16115TIP3    H269761   2.295   4.937   2.892 -0.2185  0.3294  0.8464
16116TIP3   OH269762   2.567   5.697  11.233 -0.2617 -0.1880 -0.4785
16116TIP3    H169763   2.584   5.721  11.142  0.7835 -1.6732 -0.7029
16116TIP3    H269764   2.482   5.653  11.231 -0.0055 -0.6703 -0.8231
16117TIP3   OH269765   6.649   0.328  14.408 -0.0739  0.0842  0.3537
16117TIP3    H169766   6.699   0.268  14.352 -0.3089  0.5010 -0.3156
16117TIP3    H269767   6.683   0.312  14.496  0.6415 -0.2472  0.0287
16118TIP3   OH269768   5.206   4.413   0.014 -0.1353  0.1511  0.0358
16118TIP3    H169769   5.159   4.484  -0.029  0.7586  0.6163 -0.2015
16118TIP3    H269770   5.253   4.369  -0.057  0.3265  0.1227  0.3509
16119TIP3   OH269771   3.589   4.378  13.264 -0.0036  1.1401 -0.0247
16119TIP3    H169772   3.497   4.352  13.266  0.6368 -1.3767 -0.2797
16119TIP3    H269773   3.610   4.401  13.354 -0.4590  0.0916  0.3539
16120TIP3   OH269774   5.095   2.045   5.031 -0.9412  0.0257 -0.1772
16120TIP3    H169775   5.155   2.105   5.075  0.1520  0.2262 -1.8419
16120TIP3    H269776   5.133   1.958   5.047 -0.1267  0.1546 -1.2593
16121TIP3   OH269777   5.517   1.426   4.768 -0.5913  0.2272  0.5532
16121TIP3    H169778   5.532   1.352   4.709 -1.9241 -0.4704  1.0293
16121TIP3    H269779   5.550   1.502   4.721 -2.7434 -0.1108 -1.7070
16122TIP3   OH269780   2.418   4.997   3.396  0.0009  0.1219 -0.9617
16122TIP3    H169781   2.503   5.042   3.398 -0.8149  1.6833  0.0146
16122TIP3    H269782   2.370   5.039   3.325  0.5608 -1.8566 -2.6067
16123TIP3   OH269783   0.558   5.846   0.722  0.0850 -0.1610  0.4496
16123TIP3    H169784   0.589   5.821   0.635 -2.9776 -0.4917 -0.6728
16123TIP3    H269785   0.529   5.763   0.762 -0.7210  0.2731  0.7960
16124TIP3   OH269786   1.412   3.831  16.220  0.0630 -0.4836  0.3514
16124TIP3    H169787   1.493   3.866  16.257 -0.7025  2.0209 -0.1244
16124TIP3    H269788   1.429   3.829  16.125  0.2452 -1.8903  0.4068
16125TIP3   OH269789   6.195   2.287  15.697  0.1009 -0.1817  0.7603
16125TIP3    H169790   6.252   2.325  15.763  1.0483  1.1208 -0.7374
16125TIP3    H269791   6.255   2.244  15.636 -0.5048  0.8395 -0.6106
16126TIP3   OH269792   0.504   0.884  16.701 -0.4118 -0.5072  0.0153
16126TIP3    H169793   0.581   0.896  16.645 -1.1656 -0.4545 -1.0335
16126TIP3    H269794   0.536   0.832  16.774  0.5162 -0.9045 -0.6479
16127TIP3   OH269795   3.262   0.706   5.352  0.2462  0.3136 -0.4837
16127TIP3    H169796   3.278   0.714   5.257 -0.2466 -0.1169 -0.6064
16127TIP3    H269797   3.168   0.722   5.362 -0.0957 -1.6000 -0.3127
16128TIP3   OH269798   1.822   5.418  13.659 -0.3114  0.1198 -0.2337
16128TIP3    H169799   1.845   5.460  13.576  1.1376  2.3928  1.1793
16128TIP3    H269800   1.779   5.488  13.710  2.0505 -0.0322  2.1957
16129TIP3   OH269801   3.757   2.116   3.202  0.4972 -0.2321  0.2290
16129TIP3    H169802   3.744   2.031   3.161 -2.6872 -0.6298  1.7934
16129TIP3    H269803   3.796   2.096   3.287  0.4696 -0.0511  0.2842
16130TIP3   OH269804   2.357   5.578  12.102 -0.7119  0.6812 -0.3440
16130TIP3    H169805   2.395   5.574  12.190  0.5308  0.8289 -0.8457
16130TIP3    H269806   2.420   5.629  12.051  0.1326 -1.8280 -2.0526
16131TIP3   OH269807   5.578   4.550  16.537 -0.4516  0.2550  0.0249
16131TIP3    H169808   5.612   4.607  16.468  0.5237  1.3914  1.3763
16131TIP3    H269809   5.643   4.556  16.607  0.2953 -3.4212 -0.1321
16132TIP3   OH269810   5.845   3.751  17.108 -0.7863  0.7071  0.5990
16132TIP3    H169811   5.939   3.739  17.095 -0.7772  0.9213  0.4633
16132TIP3    H269812   5.805   3.705  17.034 -0.8288 -0.2013  1.1682
16133TIP3   OH269813   4.575   5.044  14.954  0.2595  0.1873 -0.0280
16133TIP3    H169814   4.514   5.117  14.948  1.9513  1.8173  1.4097
16133TIP3    H269815   4.630   5.064  15.030  2.8942 -0.9218 -1.4961
16134TIP3   OH269816   0.445   2.392  16.870  0.0285 -0.5873  0.8625
16134TIP3    H169817   0.483   2.466  16.823 -1.9530  1.0393  1.6988
16134TIP3    H269818   0.506   2.375  16.942  0.2553  0.5431  0.9463
16135TIP3   OH269819   5.734   6.053  15.425  0.6018  0.3443  0.0673
16135TIP3    H169820   5.772   5.993  15.361 -0.1885 -0.7568  0.5987
16135TIP3    H269821   5.774   6.026  15.508 -1.5837 -1.1184  0.7101
16136TIP3   OH269822   0.566   0.405   1.555  0.1963 -0.1460  0.4267
16136TIP3    H169823   0.493   0.461   1.530  1.2039  0.6239 -0.9217
16136TIP3    H269824   0.643   0.447   1.516  1.7781  0.4448  3.8760
16137TIP3   OH269825   3.891   5.744  11.577  0.4689  0.2903 -0.0426
16137TIP3    H169826   3.807   5.766  11.536 -0.4667 -1.7652  0.6573
16137TIP3    H269827   3.879   5.765  11.669 -0.3089 -2.4233  0.5710
16138TIP3   OH269828   6.674   2.555  11.472  0.1039 -0.7229  0.2119
16138TIP3    H169829   6.619   2.539  11.396 -0.0794 -1.1898  0.4427
16138TIP3    H269830   6.661   2.648  11.492  0.5453 -0.4622 -0.6293
16139TIP3   OH269831   0.509   4.200  14.082  0.7213 -0.3137  0.1788
16139TIP3    H169832   0.563   4.213  14.160  0.0684 -0.8537  0.7406
16139TIP3    H269833   0.456   4.279  14.075 -1.7884 -1.6314  2.4026
16140TIP3   OH269834   4.637   1.376   2.043  0.2887  0.0134  0.1012
16140TIP3    H169835   4.603   1.363   1.954  1.0996  0.7211 -0.3209
16140TIP3    H269836   4.704   1.308   2.053 -1.3909 -1.6184  1.0641
16141TIP3   OH269837   2.200   6.191   2.262  0.1401  0.0684  0.0080
16141TIP3    H169838   2.152   6.274   2.259 -1.4423 -0.6816  1.8536
16141TIP3    H269839   2.147   6.131   2.210  0.1642 -0.2655  0.3618
16142TIP3   OH269840   6.722   2.638  15.632 -0.2587 -0.1563  0.6551
16142TIP3    H169841   6.683   2.723  15.613  1.8913  0.8026  0.1611
16142TIP3    H269842   6.807   2.641  15.588  0.0374 -2.4305  0.9462
16143TIP3   OH269843   0.214   5.780   4.355 -0.1827 -0.1515  0.1985
16143TIP3    H169844   0.230   5.694   4.316 -0.6020 -0.7078  1.2158
16143TIP3    H269845   0.294   5.829   4.338  0.8750 -1.4093  1.3221
16144TIP3   OH269846   5.878   0.352   1.829 -0.5953 -0.1025 -0.2755
16144TIP3    H169847   5.947   0.315   1.884 -0.6112  0.3659  0.0654
16144TIP3    H269848   5.801   0.298   1.846 -0.0147 -1.3948 -1.5760
16145TIP3   OH269849   0.876   3.818  15.527 -0.2970  0.0739  0.1947
16145TIP3    H169850   0.792   3.863  15.530 -0.7252 -0.7572  1.3272
16145TIP3    H269851   0.935   3.873  15.578 -0.1688  0.5977 -0.5031
16146TIP3   OH269852   3.447   4.929  10.805 -0.4236  0.4300  0.1622
16146TIP3    H169853   3.459   4.953  10.713  1.0160 -4.3870 -1.1719
16146TIP3    H269854   3.536   4.912  10.837 -1.0511  0.3416  1.9573
16147TIP3   OH269855   5.955   5.991  15.654 -0.3353  0.1309 -0.2501
16147TIP3    H169856   5.987   6.064  15.708  1.9277 -0.0647 -1.2344
16147TIP3    H269857   5.922   5.928  15.718  0.9902  0.4967  0.8479
16148TIP3   OH269858   3.258   6.694  16.293 -0.6646 -0.8701  0.2589
16148TIP3    H169859   3.228   6.693  16.202  1.3237  0.0915 -0.4592
16148TIP3    H269860   3.178   6.709  16.345 -1.6667 -0.2475 -1.3973
16149TIP3   OH269861   4.678   2.074   5.773  0.6115  0.3568 -0.8516
16149TIP3    H169862   4.702   2.161   5.741  0.7237  0.2193 -1.1481
16149TIP3    H269863   4.751   2.048   5.829 -0.1280  1.0934  0.4879
16150TIP3   OH269864   6.677   6.361   4.964  0.5579 -0.0265  0.1178
16150TIP3    H169865   6.724   6.277   4.975  1.0591  0.5334  3.6091
16150TIP3    H269866   6.585   6.336   4.958  0.6335 -0.8866  1.8116
16151TIP3   OH269867   1.342   5.573   0.446 -0.0870 -0.2757 -0.2602
16151TIP3    H169868   1.254   5.535   0.450 -0.2995  0.1963 -0.2544
16151TIP3    H269869   1.354   5.594   0.353  0.2116 -0.7756 -0.3335
16152TIP3   OH269870   1.660   0.000  13.882 -0.5579  0.0330 -0.3450
16152TIP3    H169871   1.702  -0.078  13.847  0.3738 -0.1542  1.1087
16152TIP3    H269872   1.621   0.043  13.805  1.9643  0.0318 -1.7539
16153TIP3   OH269873   5.202   2.375   3.543  0.4640  0.0848 -0.2794
16153TIP3    H169874   5.181   2.348   3.633 -0.4826 -0.5822 -0.6855
16153TIP3    H269875   5.231   2.294   3.501  1.6338  0.5383 -0.3894
16154TIP3   OH269876   3.558   0.168  13.223 -0.2296  0.1755  0.3813
16154TIP3    H169877   3.531   0.179  13.132  0.7602 -2.7873 -0.4114
16154TIP3    H269878   3.477   0.158  13.272 -0.7503  0.9157 -0.3168
16155TIP3   OH269879   3.868   0.942  13.666  0.3341  0.0166 -0.3223
16155TIP3    H169880   3.811   0.878  13.622  0.2601  1.2279 -2.0688
16155TIP3    H269881   3.831   0.949  13.754 -2.0683  0.4872 -1.2632
16156TIP3   OH269882   5.422   3.380   5.718 -0.4579  0.0268  0.4137
16156TIP3    H169883   5.496   3.439   5.699  0.4341 -0.8795  0.9737
16156TIP3    H269884   5.463   3.299   5.748 -1.7110 -0.0992  1.8977
16157TIP3   OH269885   0.304   4.168  12.002  0.1576  0.1447 -0.3592
16157TIP3    H169886   0.225   4.207  12.040  1.4210  1.8979  0.6492
16157TIP3    H269887   0.361   4.151  12.077  0.6234 -1.4371 -1.0287
16158TIP3   OH269888   4.414   1.330   1.265 -0.1176  0.6197  0.4148
16158TIP3    H169889   4.494   1.319   1.214  0.1408  0.4254  0.8521
16158TIP3    H269890   4.393   1.241   1.295  0.9278  0.9813  2.4116
16159TIP3   OH269891   3.109   0.424   0.896 -0.1082 -0.0505  0.1223
16159TIP3    H169892   3.157   0.407   0.815  0.8590 -0.6714  0.8102
16159TIP3    H269893   3.033   0.475   0.868  1.7023  2.3272 -0.8003
16160TIP3   OH269894   2.111   0.636   1.772  0.1345 -0.4502 -0.6713
16160TIP3    H169895   2.075   0.564   1.720 -1.4321  0.3930 -0.8259
16160TIP3    H269896   2.115   0.601   1.861 -0.1610 -0.8879 -0.8241
16161TIP3   OH269897   6.715   4.603   4.949 -0.3520 -0.1946  0.3851
16161TIP3    H169898   6.661   4.567   5.020 -1.9470  1.1795 -0.0733
16161TIP3    H269899   6.684   4.693   4.939 -0.7877 -0.5950 -2.6134
16162TIP3   OH269900   4.459   6.320  16.037  0.1593 -0.0520 -0.5687
16162TIP3    H169901   4.532   6.306  16.097 -0.5229  0.1098  0.3218
16162TIP3    H269902   4.416   6.399  16.068 -0.1086  0.1397 -1.3859
16163TIP3   OH269903   3.601   0.517  13.002  0.3622  0.3004 -0.4452
16163TIP3    H169904   3.677   0.475  12.962  1.3549  0.6031  1.0746
16163TIP3    H269905   3.634   0.556  13.083 -1.2746  1.0068 -0.0774
16164TIP3   OH269906   4.587   4.208   0.917 -0.2472  0.1408  0.4401
16164TIP3    H169907   4.677   4.229   0.941  0.0450 -0.0931 -0.4053
16164TIP3    H269908   4.574   4.118   0.947 -0.1729  0.1460  0.4865
16165TIP3   OH269909   6.255   4.598  11.362  0.5615  0.1906 -0.1351
16165TIP3    H169910   6.333   4.551  11.331 -0.1982 -0.5765 -0.9476
16165TIP3    H269911   6.264   4.686  11.327  1.0514  0.0988 -0.2488
16166TIP3   OH269912   4.048   1.625   0.021  0.3659 -0.2400  0.3225
16166TIP3    H169913   4.076   1.577   0.098 -0.5115  0.9047  1.4040
16166TIP3    H269914   4.009   1.560  -0.036 -0.4821 -0.8613  1.5905
16167TIP3   OH269915   0.824   1.422   0.559 -0.2894 -0.7060  0.2985
16167TIP3    H169916   0.822   1.331   0.588  1.9987 -0.6901  0.6721
16167TIP3    H269917   0.858   1.471   0.634 -0.7816  0.3470 -0.1472
16168TIP3   OH269918   3.416   1.679  16.535  0.0496 -0.0651 -0.9404
16168TIP3    H169919   3.371   1.615  16.480 -1.7648 -0.0483  0.4141
16168TIP3    H269920   3.346   1.737  16.566  1.4675  1.8225 -1.1223
16169TIP3   OH269921   3.966   1.697  13.659 -0.0052 -0.1504 -0.0175
16169TIP3    H169922   3.947   1.697  13.753 -0.3471  2.1766 -0.0479
16169TIP3    H269923   3.881   1.706  13.617  0.1232 -1.4291 -0.5964
16170TIP3   OH269924   4.592   5.268  13.730  0.0022  0.2004 -0.5251
16170TIP3    H169925   4.583   5.221  13.647  0.2485  0.6748 -0.8221
16170TIP3    H269926   4.661   5.332  13.715 -0.1342  0.4737 -0.0357
16171TIP3   OH269927   0.579   0.831  14.465 -0.3783  0.0170 -0.1266
16171TIP3    H169928   0.596   0.924  14.452  1.8882 -0.1659  1.0121
16171TIP3    H269929   0.535   0.802  14.385 -0.0048  1.8026 -1.0130
16172TIP3   OH269930   3.607   4.641   1.397 -0.0162  0.3960  0.3561
16172TIP3    H169931   3.691   4.601   1.416  0.0758 -0.2999 -1.3575
16172TIP3    H269932   3.542   4.577   1.428 -0.0143  1.5723  3.0552
16173TIP3   OH269933   2.992   3.609   2.517  0.5050 -0.0255 -0.4085
16173TIP3    H169934   3.037   3.657   2.448 -1.5129 -0.4576 -2.1356
16173TIP3    H269935   2.950   3.535   2.471 -0.3025 -0.7475  1.3980
16174TIP3   OH269936   0.341   3.865  10.888  0.3541  0.6653 -0.3428
16174TIP3    H169937   0.385   3.950  10.881 -1.0987  1.4681 -0.1068
16174TIP3    H269938   0.401   3.804  10.845  1.4522  1.7917 -0.4820
16175TIP3   OH269939   3.460   2.624   4.238  0.9469  0.3139 -0.0481
16175TIP3    H169940   3.409   2.632   4.319  0.4675  2.2370 -0.4877
16175TIP3    H269941   3.400   2.653   4.169  2.1752  1.2964 -0.7546
16176TIP3   OH269942   5.332   3.672   6.063  0.1255  0.0472  0.1395
16176TIP3    H169943   5.272   3.606   6.099 -1.5781  0.0473 -2.3863
16176TIP3    H269944   5.411   3.623   6.041  0.1452 -0.4594  1.2740
16177TIP3   OH269945   6.285   6.187   0.643  0.7955  0.2072 -0.0189
16177TIP3    H169946   6.275   6.273   0.602  0.0374  0.4525  0.6570
16177TIP3    H269947   6.225   6.189   0.717  1.0505 -0.7746  0.2227
16178TIP3   OH269948   1.902   1.060  12.180 -0.4349 -0.0469 -0.5185
16178TIP3    H169949   1.946   1.135  12.139 -1.2043  0.2840 -0.7508
16178TIP3    H269950   1.853   1.098  12.253 -0.0053 -0.4745  0.0004
16179TIP3   OH269951   6.306   3.263   5.851 -0.5083  0.1408  0.4642
16179TIP3    H169952   6.305   3.178   5.895  1.7250 -1.4706 -2.2551
16179TIP3    H269953   6.228   3.261   5.795  0.1575 -0.7129 -0.4793
16180TIP3   OH269954   1.227   4.101   1.489 -0.1416 -0.0346  0.1827
16180TIP3    H169955   1.263   4.021   1.527 -0.0810  0.1728  0.5647
16180TIP3    H269956   1.273   4.172   1.535  0.1754  0.2171 -0.5073
16181TIP3   OH269957   0.302   6.578  12.641 -0.7649  0.1594 -0.1623
16181TIP3    H169958   0.288   6.589  12.735  1.7354 -0.1650  0.3034
16181TIP3    H269959   0.227   6.526  12.612 -2.0320  0.9737  1.4487
16182TIP3   OH269960   2.908   6.640   0.336 -0.2803 -0.3163 -0.5936
16182TIP3    H169961   2.841   6.702   0.305 -2.0647 -1.7494  0.2218
16182TIP3    H269962   2.897   6.563   0.280 -2.2096 -2.1711  2.0825
16183TIP3   OH269963   0.923   5.194  13.158  0.0929  0.0218  0.4029
16183TIP3    H169964   0.894   5.252  13.228 -0.3022 -0.0708  0.3165
16183TIP3    H269965   0.860   5.207  13.087  0.4721  0.0915  0.0721
16184TIP3   OH269966   1.934   6.096  12.452  0.0283  0.7545  0.3464
16184TIP3    H169967   1.877   6.161  12.411  2.2939  2.6642 -0.0140
16184TIP3    H269968   1.981   6.056  12.379  0.1827  0.2475  0.7186
16185TIP3   OH269969   0.987   5.403   1.623  0.0927 -0.5652  0.0080
16185TIP3    H169970   1.027   5.389   1.537  0.8534  0.5999  0.1606
16185TIP3    H269971   0.935   5.483   1.613 -0.6255 -0.9701  0.3712
16186TIP3   OH269972   3.635   3.809   1.673 -0.2060  0.0295  0.1342
16186TIP3    H169973   3.631   3.796   1.767 -0.8645  1.0023  0.2466
16186TIP3    H269974   3.572   3.746   1.638  1.1791 -1.4598  0.2007
16187TIP3   OH269975   4.555   0.761  14.920  0.1811  0.9465 -0.1668
16187TIP3    H169976   4.557   0.751  14.825  0.5846  1.0077 -0.1654
16187TIP3    H269977   4.464   0.784  14.940 -0.2154 -0.3809 -0.3953
16188TIP3   OH269978   2.234   3.013  16.273  0.3122 -0.2757  0.1523
16188TIP3    H169979   2.214   3.042  16.184 -0.4851  1.5659  0.8862
16188TIP3    H269980   2.175   2.939  16.287  0.2393 -0.4063 -0.7362
16189TIP3   OH269981   4.921   0.158  12.178 -0.4019  0.3929 -0.0559
16189TIP3    H169982   4.908   0.233  12.235  0.6882 -1.3112  2.6189
16189TIP3    H269983   4.973   0.192  12.105 -2.2080  2.7409 -0.3566
16190TIP3   OH269984   5.793   0.930   2.356 -0.7014 -0.6572 -0.5045
16190TIP3    H169985   5.778   1.024   2.342  0.9300 -0.0668  1.2169
16190TIP3    H269986   5.740   0.887   2.289 -0.5326  1.5336 -2.1795
16191TIP3   OH269987   5.204   4.404  15.069  0.3700  0.4890  0.1630
16191TIP3    H169988   5.117   4.366  15.059  0.0213  1.1904  0.3987
16191TIP3    H269989   5.264   4.330  15.066 -0.3858 -0.2798  2.2406
16192TIP3   OH269990   5.241   1.408   0.635  0.2412  0.1252  1.0383
16192TIP3    H169991   5.302   1.457   0.579  1.1775  0.4302  2.2734
16192TIP3    H269992   5.167   1.468   0.646 -0.8066 -0.6239 -1.2652
16193TIP3   OH269993   1.461   4.248  12.230  0.1350  0.4112 -0.5204
16193TIP3    H169994   1.501   4.165  12.205 -0.3025  0.4071 -1.2282
16193TIP3    H269995   1.412   4.276  12.153  0.7933  1.6546 -0.5207
16194TIP3   OH269996   4.630   1.912   0.505  0.1323 -0.0507  0.9377
16194TIP3    H169997   4.606   1.994   0.462  2.7979  0.2557 -0.1966
16194TIP3    H269998   4.558   1.853   0.487 -0.1930  0.9672 -1.4843
16195TIP3   OH269999   2.161   0.727   5.447  0.2141  0.1417  0.3564
16195TIP3    H170000   2.240   0.779   5.457  0.3091 -0.1969  1.4679
16195TIP3    H270001   2.117   0.733   5.532 -0.6898 -0.1034 -0.0812
16196TIP3   OH270002   1.393   3.660  12.886 -0.5631  0.1792 -0.3647
16196TIP3    H170003   1.395   3.565  12.901  0.8445  0.3034  0.3877
16196TIP3    H270004   1.407   3.699  12.972  0.0048  1.0490 -0.8342
16197TIP3   OH270005   2.444   4.714   3.342  0.1231 -0.6027 -0.0671
16197TIP3    H170006   2.357   4.698   3.305  0.1125  0.1912 -0.4119
16197TIP3    H270007   2.441   4.805   3.372  0.8321 -0.5759 -0.0629
16198TIP3   OH270008   6.554   2.923   2.519  0.4694 -0.8273 -0.5069
16198TIP3    H170009   6.495   2.982   2.567 -2.2984 -1.6957 -2.5872
16198TIP3    H270010   6.615   2.892   2.586  0.5211  2.3995  1.1863
16199TIP3   OH270011   6.472   2.651   1.648  0.6262 -0.0277  0.5708
16199TIP3    H170012   6.385   2.623   1.678  0.6274 -0.6910 -0.0138
16199TIP3    H270013   6.463   2.659   1.553  0.4432  2.6766  0.7490
16200TIP3   OH270014   0.597   6.384  14.353 -0.0256  0.1677 -0.8007
16200TIP3    H170015   0.501   6.380  14.356 -0.3108  2.7078 -2.8829
16200TIP3    H270016   0.622   6.417  14.439 -1.3561  2.3347 -1.1548
16201TIP3   OH270017   2.438   0.988   2.222  0.2189  0.5043 -0.7174
16201TIP3    H170018   2.450   0.939   2.140 -0.1949 -1.3976  0.2970
16201TIP3    H270019   2.343   0.987   2.236  0.2283  1.4253 -0.5545
16202TIP3   OH270020   3.550   1.662  14.451  0.1675 -0.8141  0.3005
16202TIP3    H170021   3.635   1.673  14.494 -0.1085  1.3328  0.3773
16202TIP3    H270022   3.560   1.582  14.399  2.8100  0.2322 -0.9698
16203TIP3   OH270023   5.952   3.913  11.492 -0.3302  0.0465  0.1466
16203TIP3    H170024   6.003   3.858  11.551  0.6401  0.6627 -0.0978
16203TIP3    H270025   6.007   3.923  11.415 -0.2490  1.8010  0.4002
16204TIP3   OH270026   2.397   2.232  15.790 -0.5514  0.2587  0.1295
16204TIP3    H170027   2.388   2.160  15.852 -1.0369  0.6724  0.5567
16204TIP3    H270028   2.355   2.307  15.834 -1.0501  0.5204 -0.7504
16205TIP3   OH270029   4.618   4.478  11.721 -0.1179  0.1472 -0.1060
16205TIP3    H170030   4.550   4.439  11.776  0.7244  1.7512  2.2605
16205TIP3    H270031   4.694   4.485  11.779  0.8617  1.8604 -1.5141
16206TIP3   OH270032   6.019   2.998   2.388  0.0328  0.1551  0.0000
16206TIP3    H170033   5.937   2.950   2.401 -1.0886  2.2595  1.2356
16206TIP3    H270034   6.074   2.939   2.335 -1.9317 -1.6601 -0.1266
16207TIP3   OH270035   4.160   1.019  14.588 -0.3318  0.0168 -0.4585
16207TIP3    H170036   4.254   1.003  14.595  0.1048  0.8445 -3.0573
16207TIP3    H270037   4.120   0.959  14.650  1.8568 -1.2216 -0.1424
16208TIP3   OH270038   2.529   6.715   2.975 -0.0046  0.0574 -0.0355
16208TIP3    H170039   2.486   6.788   2.931 -2.0996 -0.9635  0.1919
16208TIP3    H270040   2.552   6.655   2.905 -1.1870 -0.4918  0.0319
16209TIP3   OH270041   0.318   3.200  10.818 -0.0967 -0.3956 -0.5043
16209TIP3    H170042   0.286   3.115  10.790 -1.7625  0.0459 -0.0622
16209TIP3    H270043   0.255   3.262  10.781  0.6622  0.5802 -0.1937
16210TIP3   OH270044   2.376   3.344  14.964  0.0353  0.3663  0.1443
16210TIP3    H170045   2.351   3.388  14.883 -1.6766 -0.2602  0.2858
16210TIP3    H270046   2.296   3.297  14.991  0.1626  1.5199  2.8374
16211TIP3   OH270047   0.516   5.291  16.153 -0.2449 -0.3405  0.1327
16211TIP3    H170048   0.432   5.292  16.199 -0.5176 -1.1666 -0.3453
16211TIP3    H270049   0.558   5.209  16.180  0.3160 -0.0430  0.1890
16212TIP3   OH270050   5.332   1.727   4.494  0.4873  0.2317  0.1257
16212TIP3    H170051   5.265   1.794   4.498  0.6461  0.3492  1.2471
16212TIP3    H270052   5.355   1.710   4.586  1.5072 -0.2824 -0.2010
16213TIP3   OH270053   3.530   2.228  11.795  0.0000 -0.1290 -0.3773
16213TIP3    H170054   3.510   2.248  11.887  0.7339  0.8225 -0.4136
16213TIP3    H270055   3.449   2.248  11.748  0.6201  2.7860 -0.3955
16214TIP3   OH270056   1.218   6.496  15.114  0.4943  0.4856  0.0022
16214TIP3    H170057   1.259   6.581  15.130  0.9351 -0.1767  3.1408
16214TIP3    H270058   1.271   6.435  15.165  0.0449 -1.6789 -1.9846
16215TIP3   OH270059   3.473   6.323  17.078  0.0339  0.6620 -0.8407
16215TIP3    H170060   3.555   6.292  17.037  0.9401  0.3283  1.1236
16215TIP3    H270061   3.406   6.264  17.045  1.5099 -2.8765  1.8457
16216TIP3   OH270062   5.842   3.416  12.432  0.3473 -0.5284 -0.0746
16216TIP3    H170063   5.822   3.509  12.440 -0.4128 -0.4449 -2.2465
16216TIP3    H270064   5.771   3.372  12.480  0.8038 -0.0308  1.1070
16217TIP3   OH270065   0.004   3.401  14.708 -0.3076  0.0195  0.0711
16217TIP3    H170066   0.099   3.405  14.715 -0.2355 -0.0669 -0.7715
16217TIP3    H270067  -0.025   3.492  14.714 -0.2240 -0.0062  0.9387
16218TIP3   OH270068   1.998   4.772  13.672 -0.0459  0.5396  0.2132
16218TIP3    H170069   1.951   4.824  13.607  1.0812  0.9495 -0.2928
16218TIP3    H270070   2.066   4.831  13.705  2.5586 -1.1545 -1.7967
16219TIP3   OH270071   6.037   0.774   1.278  0.2608 -0.4244 -0.3265
16219TIP3    H170072   6.093   0.819   1.341  1.2873 -2.0754  0.0006
16219TIP3    H270073   5.967   0.735   1.330 -0.0146 -0.1319 -0.4728
16220TIP3   OH270074   4.632   4.262  16.301  0.1533  0.2473  0.0626
16220TIP3    H170075   4.539   4.255  16.280  0.0434  1.8275 -0.0724
16220TIP3    H270076   4.649   4.188  16.361 -1.3034  0.2513  0.5090
16221TIP3   OH270077   0.233   5.729   1.529  0.1858 -0.0961  0.0551
16221TIP3    H170078   0.182   5.780   1.467  0.8481  1.1536  0.5084
16221TIP3    H270079   0.170   5.697   1.593 -0.0518  1.5267  0.6784
16222TIP3   OH270080   5.988   3.959   4.499  0.3907  0.1175 -0.8428
16222TIP3    H170081   5.945   4.026   4.552  0.6990  0.1130 -0.5848
16222TIP3    H270082   5.950   3.877   4.529  0.2247  0.1498 -0.9582
16223TIP3   OH270083   2.798   6.643  16.571 -0.7305  0.4803 -0.3366
16223TIP3    H170084   2.765   6.576  16.631  0.4303  0.4298  0.2798
16223TIP3    H270085   2.726   6.659  16.510 -1.2279 -0.8944 -0.1356
16224TIP3   OH270086   6.209   4.814  15.896 -0.3768  0.3208  0.1316
16224TIP3    H170087   6.231   4.742  15.838 -0.4202  0.0618  0.4340
16224TIP3    H270088   6.265   4.801  15.973  1.4580  1.9878 -0.8025
16225TIP3   OH270089   2.349   2.786   6.518 -0.0694 -0.7587  0.2341
16225TIP3    H170090   2.340   2.835   6.436  2.6032 -0.1724  0.2189
16225TIP3    H270091   2.434   2.812   6.553 -0.7507 -1.6575  2.7851
16226TIP3   OH270092   5.552   6.253   0.571  0.8013 -0.4505 -0.5301
16226TIP3    H170093   5.546   6.172   0.622  0.0817 -0.3310 -0.4186
16226TIP3    H270094   5.525   6.322   0.632 -2.0164 -0.5088 -1.5625
16227TIP3   OH270095   4.386   1.239   0.940 -0.4756  0.3429  0.0747
16227TIP3    H170096   4.319   1.179   0.972 -0.8385  0.0081 -1.2179
16227TIP3    H270097   4.469   1.200   0.967 -0.7509 -0.1506  0.2210
16228TIP3   OH270098   5.582   2.474  14.097 -0.3863  0.7624 -0.2371
16228TIP3    H170099   5.615   2.386  14.111 -2.2680 -0.1803 -1.3649
16228TIP3    H270100   5.635   2.529  14.156 -0.8874 -1.4353  2.4792
16229TIP3   OH270101   3.761   6.497  12.793 -0.4981 -0.0092 -0.0557
16229TIP3    H170102   3.734   6.406  12.782 -0.6419 -0.0625  0.6902
16229TIP3    H270103   3.774   6.529  12.704  1.3011 -1.2778 -0.3066
16230TIP3   OH270104   1.012   0.884  16.241 -0.0631 -0.0354 -0.2649
16230TIP3    H170105   1.055   0.928  16.314 -0.0592  2.0913 -1.4786
16230TIP3    H270106   1.081   0.832  16.201  1.0818  2.0726 -1.2114
16231TIP3   OH270107   2.346   1.416   1.442  0.5843  0.0972  0.1923
16231TIP3    H170108   2.358   1.502   1.483 -0.4023  0.6266 -0.5769
16231TIP3    H270109   2.271   1.378   1.488  0.1696  0.2314 -0.3566
16232TIP3   OH270110   6.445   4.046  11.714  0.3312  0.7157  0.3042
16232TIP3    H170111   6.438   3.953  11.690  0.9133  0.7400  0.0161
16232TIP3    H270112   6.517   4.079  11.660 -0.1165  1.4305  0.1299
16233TIP3   OH270113   5.865   5.751  15.811  0.4524 -0.4954 -0.4955
16233TIP3    H170114   5.814   5.709  15.741 -0.2967 -1.1440  0.4076
16233TIP3    H270115   5.800   5.778  15.875  1.2195 -1.2017  0.6179
16234TIP3   OH270116   5.018   3.720  15.708 -0.0677  0.3556  0.4011
16234TIP3    H170117   4.976   3.646  15.663 -0.3313  0.0857  1.0750
16234TIP3    H270118   5.111   3.710  15.687 -0.1686  0.1628  0.0190
16235TIP3   OH270119   6.575   2.341   1.511  0.1797  0.7494 -0.4211
16235TIP3    H170120   6.544   2.387   1.590 -0.1991  0.3628 -0.3431
16235TIP3    H270121   6.506   2.355   1.447 -0.8075 -1.2058  0.1519
16236TIP3   OH270122   4.468   0.146  13.311 -0.3574 -0.1201 -0.3575
16236TIP3    H170123   4.390   0.114  13.355 -0.3728 -0.9431 -0.9650
16236TIP3    H270124   4.435   0.204  13.242 -0.5827 -1.8979 -1.8291
16237TIP3   OH270125   2.561   5.115   0.885 -0.2267 -0.3738  0.2245
16237TIP3    H170126   2.631   5.085   0.825  2.1827  1.8783  1.6983
16237TIP3    H270127   2.565   5.054   0.958  0.8443  0.2317  0.6924
16238TIP3   OH270128   6.073   3.549  13.078 -0.0803 -0.0165  0.2778
16238TIP3    H170129   6.063   3.478  13.141  0.7930  0.7240  1.2813
16238TIP3    H270130   6.155   3.591  13.102  1.1899 -0.7506 -2.4148
16239TIP3   OH270131   6.771   1.176   4.378  0.3463 -0.3237  0.1920
16239TIP3    H170132   6.837   1.109   4.359 -2.0208 -1.9674 -3.1124
16239TIP3    H270133   6.752   1.165   4.471  3.0386 -1.2860  0.7321
16240TIP3   OH270134   4.311   3.355   0.647 -0.6670 -0.3162  0.3357
16240TIP3    H170135   4.378   3.413   0.684 -0.4943 -0.3821  0.1251
16240TIP3    H270136   4.353   3.314   0.572 -0.7128 -0.8893  0.6170
16241TIP3   OH270137   3.565   0.888  14.326  0.1790  0.0541  0.5323
16241TIP3    H170138   3.624   0.903  14.253 -0.3858  2.2798  0.4379
16241TIP3    H270139   3.508   0.817  14.298  2.1076 -1.4395  0.2209
16242TIP3   OH270140   3.784   3.320   5.486 -0.4744 -0.4855  0.3077
16242TIP3    H170141   3.807   3.231   5.515 -0.7941  0.2028  2.8339
16242TIP3    H270142   3.849   3.376   5.527 -0.8423  0.5696 -0.5049
16243TIP3   OH270143   6.158   6.663  16.253  0.0155  0.2404  0.6107
16243TIP3    H170144   6.217   6.592  16.279 -1.0135 -0.4388  1.1753
16243TIP3    H270145   6.070   6.627  16.265 -0.5383  0.8753 -1.1635
16244TIP3   OH270146   6.399   6.141   3.769  0.2299  0.3900 -0.3563
16244TIP3    H170147   6.435   6.054   3.782  1.3065  0.9744  0.8261
16244TIP3    H270148   6.311   6.126   3.732  0.3481 -1.1689 -0.0647
16245TIP3   OH270149   6.689   1.967  13.594 -0.2077 -0.6113  0.3930
16245TIP3    H170150   6.682   1.952  13.500  2.0288 -0.2965  0.1234
16245TIP3    H270151   6.599   1.982  13.623 -1.0368 -1.5143 -1.5343
16246TIP3   OH270152   6.098   3.198  14.310 -0.3264 -0.1360 -0.9230
16246TIP3    H170153   6.025   3.137  14.311 -0.2462 -0.2636 -1.7898
16246TIP3    H270154   6.157   3.163  14.243 -0.7869  1.4678 -2.2239
16247TIP3   OH270155   3.269   2.265   6.274 -0.1269  0.4780  0.1097
16247TIP3    H170156   3.333   2.335   6.287 -0.8033  0.9923  0.8179
16247TIP3    H270157   3.292   2.199   6.340 -1.4072  1.4906  1.6338
16248TIP3   OH270158   1.990   6.225   4.352 -0.1113 -0.8525 -0.7621
16248TIP3    H170159   1.955   6.245   4.265  0.6251  0.6163 -0.7564
16248TIP3    H270160   2.053   6.295   4.369  2.1719 -2.8848 -0.3773
16249TIP3   OH270161   3.998   0.345   3.018 -0.2359  0.0383 -0.2729
16249TIP3    H170162   4.082   0.332   2.974 -0.2093  1.2358 -0.6006
16249TIP3    H270163   3.946   0.269   2.993  0.4752 -0.3098 -0.7201
16250TIP3   OH270164   0.454   6.307   2.031  0.2280  0.5208 -0.1724
16250TIP3    H170165   0.408   6.346   1.956  0.1884  0.2518 -0.2889
16250TIP3    H270166   0.468   6.216   2.006  0.3005  0.4531  0.1095
16251TIP3   OH270167   6.363   2.159   2.617  0.3948  0.5814 -0.0289
16251TIP3    H170168   6.305   2.234   2.633  0.2545  0.2683  0.9882
16251TIP3    H270169   6.450   2.191   2.641  0.3151  0.3816  0.5324
16252TIP3   OH270170   6.550   6.508   3.338 -0.0699  0.1923  0.4910
16252TIP3    H170171   6.457   6.487   3.341 -0.0037 -0.1274  0.3590
16252TIP3    H270172   6.553   6.600   3.312 -0.3584  0.3198  0.8971
16253TIP3   OH270173   3.628   2.013   3.550  0.1042  0.1860 -0.3236
16253TIP3    H170174   3.608   1.920   3.535  0.5436  0.3458 -2.1244
16253TIP3    H270175   3.592   2.058   3.474  0.4254  1.4405  0.2381
16254TIP3   OH270176   6.096   2.477   4.413 -0.1403 -0.1649  0.0791
16254TIP3    H170177   6.093   2.405   4.349 -1.6723  0.2622 -0.3744
16254TIP3    H270178   6.117   2.554   4.361  2.4586 -0.3687  0.7020
16255TIP3   OH270179   1.905   4.947  13.438  0.1525 -0.6163  0.6748
16255TIP3    H170180   1.936   5.023  13.487  0.0379 -0.5066  0.5771
16255TIP3    H270181   1.985   4.909  13.400  0.1939 -0.4648  0.6092
16256TIP3   OH270182   2.298   2.475  13.027 -0.2272  0.1824  0.2950
16256TIP3    H170183   2.364   2.538  13.056  0.5190 -0.4682  0.0428
16256TIP3    H270184   2.245   2.457  13.105  0.3154  0.1877  0.6666
16257TIP3   OH270185   3.952   2.414  12.170  0.7090  0.2071  0.1274
16257TIP3    H170186   3.870   2.419  12.120  1.6427  0.1665 -1.4854
16257TIP3    H270187   3.930   2.364  12.248 -0.7060 -0.1775 -0.4916
16258TIP3   OH270188   3.142   0.267  11.727 -0.5271 -0.3995  0.5995
16258TIP3    H170189   3.063   0.267  11.673  0.1569  1.8442 -0.5323
16258TIP3    H270190   3.126   0.333  11.793 -0.2931 -1.2498  1.5253
16259TIP3   OH270191   5.907   1.349  12.983 -0.4843 -0.0429  0.0330
16259TIP3    H170192   5.854   1.306  13.049  1.8051 -1.2253  1.2242
16259TIP3    H270193   5.910   1.286  12.910  0.7748 -0.8284  0.7368
16260TIP3   OH270194   0.769   3.837   0.666  0.0420  0.2011 -0.2621
16260TIP3    H170195   0.783   3.910   0.606 -0.7642  0.7505  0.2092
16260TIP3    H270196   0.855   3.821   0.706  1.2379 -1.7157 -3.2297
16261TIP3   OH270197   5.026   2.566  12.441  0.2021  0.1156  0.1780
16261TIP3    H170198   5.110   2.558  12.396  0.8527 -0.8068  1.4802
16261TIP3    H270199   5.011   2.660  12.448  1.1147  0.2940 -0.1185
16262TIP3   OH270200   1.208   4.302   5.101 -0.9302 -0.0229  0.4075
16262TIP3    H170201   1.153   4.229   5.072  1.0931 -2.3161  1.8649
16262TIP3    H270202   1.157   4.347   5.168 -0.8024 -2.7184  2.4886
16263TIP3   OH270203   2.317   0.464   3.965 -0.5248 -0.4691  0.0127
16263TIP3    H170204   2.305   0.534   4.030 -3.2024 -1.1307  0.3480
16263TIP3    H270205   2.231   0.454   3.925  0.8901 -0.3581 -3.4659
16264TIP3   OH270206   0.272   4.990  12.768 -0.0052  0.3280  0.7993
16264TIP3    H170207   0.342   5.039  12.724 -2.2884  4.5893  1.3809
16264TIP3    H270208   0.279   5.017  12.860 -1.5656 -0.2585  1.1121
16265TIP3   OH270209   6.726   4.476   4.341 -0.8141  0.0187 -0.0475
16265TIP3    H170210   6.685   4.528   4.272  1.0177  1.6911  0.0408
16265TIP3    H270211   6.656   4.462   4.405 -2.6794 -1.9787 -2.3566
16266TIP3   OH270212   3.085   2.633  13.592  0.1381 -0.3822 -0.4456
16266TIP3    H170213   3.023   2.706  13.604  0.4026 -0.2203 -0.0267
16266TIP3    H270214   3.033   2.565  13.550 -0.5478 -0.5266  0.5846
16267TIP3   OH270215   1.571   4.192   1.791 -0.0980 -0.4825  0.0956
16267TIP3    H170216   1.569   4.185   1.695 -0.8976 -1.1697  0.1585
16267TIP3    H270217   1.585   4.286   1.807  0.3595 -0.4063 -0.6922
16268TIP3   OH270218   1.641   3.483   1.265  0.4172 -1.0183 -0.3184
16268TIP3    H170219   1.638   3.544   1.340 -1.2023  0.5942 -1.5883
16268TIP3    H270220   1.670   3.400   1.303  2.5741  0.4650  1.5496
16269TIP3   OH270221   5.695   2.650   4.450  0.0604 -0.1924  0.1577
16269TIP3    H170222   5.694   2.698   4.533 -0.0144  1.0888 -0.5550
16269TIP3    H270223   5.757   2.579   4.463 -0.4671 -0.4186  1.5363
16270TIP3   OH270224   5.351   3.820  16.194 -0.2266 -0.2384 -0.5059
16270TIP3    H170225   5.374   3.727  16.198 -0.4975 -0.2578  1.2041
16270TIP3    H270226   5.255   3.820  16.186 -0.3590 -0.1184  0.9022
16271TIP3   OH270227   1.087   6.438   1.453  0.1485 -0.7162 -0.1457
16271TIP3    H170228   1.111   6.348   1.428  0.2256 -0.7744  0.1340
16271TIP3    H270229   1.125   6.449   1.540  0.6521 -0.2070 -0.4253
16272TIP3   OH270230   6.387   2.647   5.788  0.3918  0.4669 -0.1638
16272TIP3    H170231   6.317   2.596   5.829 -0.2664 -1.1399 -3.0248
16272TIP3    H270232   6.348   2.732   5.771  0.4903  0.9663  1.8032
16273TIP3   OH270233   1.036   1.094   5.102  0.1948 -0.1961 -0.4736
16273TIP3    H170234   0.998   1.072   5.017  0.2371 -0.9261 -0.3032
16273TIP3    H270235   1.125   1.060   5.098 -0.2461 -1.5178  0.3910
16274TIP3   OH270236   4.426   5.541  13.485  0.2718 -0.3205  0.5750
16274TIP3    H170237   4.508   5.490  13.477 -0.7350 -1.9048 -0.2088
16274TIP3    H270238   4.395   5.549  13.395  0.0964  1.2276  0.7563
16275TIP3   OH270239   4.179   0.534  10.528 -0.1840 -0.1744 -0.1900
16275TIP3    H170240   4.237   0.458  10.528  1.4357  0.9577 -1.8679
16275TIP3    H270241   4.144   0.536  10.438 -0.6626  0.7295  0.0123
16276TIP3   OH270242   4.069   2.933   4.498 -1.1877 -0.4111  0.3936
16276TIP3    H170243   4.054   2.922   4.592 -1.0763 -2.0889  0.2451
16276TIP3    H270244   3.981   2.936   4.460 -1.2333 -0.8517  0.4546
16277TIP3   OH270245   6.453   3.719  13.977  0.3459  0.1657  0.0621
16277TIP3    H170246   6.379   3.738  13.919  1.2756 -1.0969 -1.5932
16277TIP3    H270247   6.527   3.765  13.938  1.4019 -2.1921 -0.8867
16278TIP3   OH270248   3.389   1.201  16.312  0.4741  0.4773  0.3233
16278TIP3    H170249   3.313   1.177  16.365 -0.5006  1.4278 -0.5781
16278TIP3    H270250   3.414   1.120  16.268  0.4149 -0.0028  1.1528
16279TIP3   OH270251   2.737   5.459  16.388  0.0277 -0.3284  0.3017
16279TIP3    H170252   2.655   5.484  16.346  0.2579 -0.5142 -0.2554
16279TIP3    H270253   2.745   5.365  16.373  0.9997 -0.0866 -0.8098
16280TIP3   OH270254   5.136   4.638  14.118 -0.0752  0.0651  0.2861
16280TIP3    H170255   5.040   4.632  14.115 -0.1137  0.6330  0.2294
16280TIP3    H270256   5.154   4.732  14.110  0.4598  0.0323  0.9945
16281TIP3   OH270257   3.166   4.206   5.764 -0.2906 -0.1321 -0.0514
16281TIP3    H170258   3.246   4.163   5.795 -1.4230 -0.9947  1.9246
16281TIP3    H270259   3.182   4.299   5.776  0.8902 -0.2060 -0.9481
16282TIP3   OH270260   5.074   1.548  11.939  0.2139  0.2679  0.3894
16282TIP3    H170261   5.166   1.557  11.916 -0.1245  0.5597 -0.9415
16282TIP3    H270262   5.037   1.636  11.926 -0.9926 -0.5512 -2.7662
16283TIP3   OH270263   4.792   3.401   3.258  0.2396 -0.3878 -0.2366
16283TIP3    H170264   4.882   3.396   3.225  0.3385 -0.9857  0.1046
16283TIP3    H270265   4.751   3.471   3.207  1.1368  0.4649  0.1880
16284TIP3   OH270266   5.036   0.059  16.489  0.0961 -0.0143 -0.1443
16284TIP3    H170267   4.984   0.138  16.508 -0.0665 -0.2894  0.6016
16284TIP3    H270268   4.988  -0.012  16.532 -0.6424 -0.8059 -2.1421
16285TIP3   OH270269   3.983   3.511   2.826 -0.1289  0.0723 -0.4328
16285TIP3    H170270   3.933   3.592   2.822  1.5226  1.1209 -0.5580
16285TIP3    H270271   4.028   3.506   2.742 -0.2003 -0.9902 -0.4223
16286TIP3   OH270272   5.116   2.092   2.775 -0.2153 -0.1286  0.4614
16286TIP3    H170273   5.030   2.071   2.811 -1.1658  1.0843 -0.9798
16286TIP3    H270274   5.130   2.184   2.795  0.2370 -0.0169 -0.3156
16287TIP3   OH270275   0.139   3.539  16.835 -0.0635 -0.2511  0.2305
16287TIP3    H170276   0.078   3.486  16.886 -0.5013 -1.5745 -1.5693
16287TIP3    H270277   0.225   3.516  16.870 -0.3121 -1.5596  0.0343
16288TIP3   OH270278   6.736   5.472  12.379 -0.4570  0.5889 -0.3405
16288TIP3    H170279   6.764   5.416  12.306 -1.6775 -1.2130  0.5102
16288TIP3    H270280   6.812   5.527  12.397  0.8449 -0.8571 -1.1622
16289TIP3   OH270281   2.755   6.459  16.759  0.2337  0.0402  0.4760
16289TIP3    H170282   2.711   6.374  16.764  1.3400 -0.5973 -0.3333
16289TIP3    H270283   2.800   6.468  16.843 -1.1861  0.5904  1.2166
16290TIP3   OH270284   0.336   4.582   3.848 -0.2039 -0.7726  0.1365
16290TIP3    H170285   0.305   4.632   3.772 -3.7622 -1.1765  1.1251
16290TIP3    H270286   0.373   4.648   3.907 -0.3682 -0.0055 -0.6051
16291TIP3   OH270287   6.741   0.765   2.569 -0.5988 -0.4188 -0.4528
16291TIP3    H170288   6.758   0.727   2.483 -0.8770  0.8882 -1.1084
16291TIP3    H270289   6.655   0.807   2.560 -0.7375 -0.4745  0.5348
16292TIP3   OH270290   5.520   1.094   0.068 -0.4803  1.0547 -0.8110
16292TIP3    H170291   5.556   1.074  -0.018 -0.5802 -1.0531 -0.3990
16292TIP3    H270292   5.588   1.067   0.130 -0.9013  1.4058 -0.1830
16293TIP3   OH270293   5.688   2.274   0.183  0.6853 -0.1738  0.0105
16293TIP3    H170294   5.695   2.180   0.170  1.8036 -0.1700  0.4159
16293TIP3    H270295   5.616   2.302   0.126 -1.0326 -1.5523  1.4005
16294TIP3   OH270296   1.928   0.292   1.119 -0.4466 -0.1663 -0.1284
16294TIP3    H170297   1.984   0.255   1.188  1.7061  2.1528 -0.4820
16294TIP3    H270298   1.842   0.255   1.136  0.3448 -0.9256  2.8659
16295TIP3   OH270299   0.566   6.044  11.550  0.2871 -0.0704 -0.1918
16295TIP3    H170300   0.650   5.997  11.548  0.0379 -0.6303  1.1634
16295TIP3    H270301   0.553   6.066  11.642 -0.0595  1.8873 -0.6727
16296TIP3   OH270302   4.236   2.025  12.421  0.1596  0.1720  0.0242
16296TIP3    H170303   4.164   2.088  12.426  0.1829  0.2920 -0.9555
16296TIP3    H270304   4.240   2.001  12.329 -1.2519 -2.9588  0.6656
16297TIP3   OH270305   2.253   2.393   0.934 -0.1427 -0.0507  0.0377
16297TIP3    H170306   2.226   2.304   0.913 -0.9401  0.4743 -1.2166
16297TIP3    H270307   2.175   2.435   0.972  0.0082  0.3369 -0.0682
16298TIP3   OH270308   1.599   4.314  16.731 -0.6538  0.7437  0.1033
16298TIP3    H170309   1.621   4.355  16.815  0.6342 -0.8913  0.6285
16298TIP3    H270310   1.627   4.378  16.665  1.2986  0.7920  0.8820
16299TIP3   OH270311   6.124   0.300  13.219 -0.1040  0.6087  0.7734
16299TIP3    H170312   6.156   0.211  13.224  1.1357  1.0000  0.1733
16299TIP3    H270313   6.033   0.295  13.250 -0.0390 -0.8343  0.7817
16300TIP3   OH270314   6.535   2.512   0.791 -0.5946 -0.1557  0.7505
16300TIP3    H170315   6.450   2.548   0.819 -0.6349 -1.4257  2.4166
16300TIP3    H270316   6.599   2.573   0.827 -0.7706  0.4971 -0.0214
16301TIP3   OH270317   3.949   4.015  16.132 -0.3559  0.5406  0.1583
16301TIP3    H170318   4.018   4.046  16.074 -0.2711  0.6323  0.3083
16301TIP3    H270319   3.876   3.994  16.073 -0.0780  0.1013 -0.0332
16302TIP3   OH270320   4.916   0.321  14.145  0.1231  0.3490 -0.3990
16302TIP3    H170321   4.920   0.258  14.074 -0.0488  0.9942 -0.9926
16302TIP3    H270322   4.858   0.280  14.210 -0.7930  0.3169 -1.2110
16303TIP3   OH270323   0.339   4.003   4.425 -0.8654 -0.1287  0.3924
16303TIP3    H170324   0.270   4.047   4.376 -0.4663 -0.6767 -0.6843
16303TIP3    H270325   0.293   3.957   4.495 -1.8505 -2.0714 -1.4295
16304TIP3   OH270326   2.988   4.481  16.210 -0.1180 -0.6903 -0.3560
16304TIP3    H170327   3.018   4.463  16.299 -0.7290 -2.2404 -0.4281
16304TIP3    H270328   2.942   4.565  16.216 -0.3888 -0.9116  0.8380
16305TIP3   OH270329   4.725   4.173  13.354  0.5204  0.1824 -0.0687
16305TIP3    H170330   4.718   4.166  13.259  0.8135  0.4647 -0.1170
16305TIP3    H270331   4.647   4.221  13.381  0.3493 -0.0546 -0.1498
16306TIP3   OH270332   5.342   1.537   1.075  0.4136  0.4231 -0.3812
16306TIP3    H170333   5.399   1.497   1.141  0.9222 -1.7502 -1.9985
16306TIP3    H270334   5.254   1.509   1.099  0.1670  2.2531  1.0746
16307TIP3   OH270335   3.590   3.489  14.429 -1.1210 -0.3656 -0.7502
16307TIP3    H170336   3.614   3.408  14.474 -0.0943 -0.7876 -1.9995
16307TIP3    H270337   3.523   3.463  14.366 -1.2027 -0.1276 -0.7625
16308TIP3   OH270338   2.712   5.391   0.999 -0.4654 -0.0481  0.0025
16308TIP3    H170339   2.770   5.349   1.063 -0.0212  0.5065 -0.0306
16308TIP3    H270340   2.651   5.442   1.052  0.6505  1.3844 -0.0248
16309TIP3   OH270341   3.689   0.066  15.597  0.0008 -0.1314 -0.1820
16309TIP3    H170342   3.687   0.149  15.644 -0.5747 -1.1619  1.7224
16309TIP3    H270343   3.701   0.090  15.505  2.7457  1.9243  0.6081
16310TIP3   OH270344   1.644   4.498   2.115 -0.2721 -0.3570  0.2491
16310TIP3    H170345   1.579   4.472   2.180  0.1168  1.1443  1.2864
16310TIP3    H270346   1.637   4.593   2.111  0.2549 -0.3568 -1.3580
16311TIP3   OH270347   4.287   3.787  16.376 -0.3727 -0.7387 -0.1366
16311TIP3    H170348   4.337   3.852  16.327 -0.4311  1.2025  2.2157
16311TIP3    H270349   4.196   3.802  16.350 -0.1930 -1.4042 -1.2248
16312TIP3   OH270350   0.297   1.438  15.409 -0.5673 -0.4772  0.4809
16312TIP3    H170351   0.319   1.479  15.326  2.0184 -0.4865  1.0605
16312TIP3    H270352   0.242   1.502  15.454 -1.5530 -0.2513 -0.9911
16313TIP3   OH270353   1.990   3.753   2.573  0.6999 -0.3801 -0.2609
16313TIP3    H170354   1.949   3.776   2.490  2.3669 -2.2131 -1.6999
16313TIP3    H270355   2.015   3.837   2.612  1.0555  0.5062 -2.2687
16314TIP3   OH270356   2.245   2.482  15.916 -0.7020  0.1979  0.3940
16314TIP3    H170357   2.216   2.552  15.974  0.0856 -0.3315  1.4638
16314TIP3    H270358   2.213   2.401  15.958 -0.4027 -0.1740 -0.0825
16315TIP3   OH270359   0.269   4.878   4.204 -0.3588 -0.3127  0.6669
16315TIP3    H170360   0.196   4.906   4.149 -0.1484 -2.0057 -0.5648
16315TIP3    H270361   0.251   4.786   4.223  1.3168 -0.6872  0.5650
16316TIP3   OH270362   5.424   2.338  14.464  0.5454  0.2842  0.1151
16316TIP3    H170363   5.506   2.294  14.487  0.9776  1.3373  0.6841
16316TIP3    H270364   5.373   2.272  14.416  1.4668 -0.5763  0.2938
16317TIP3   OH270365   1.675   5.958  14.298 -0.2028  0.0854 -0.0990
16317TIP3    H170366   1.750   5.905  14.270 -0.8849 -1.7108  1.2970
16317TIP3    H270367   1.628   5.978  14.217  1.1327  0.2548 -0.8658
16318TIP3   OH270368   3.546   2.741   3.953  0.3729  0.0909 -0.2492
16318TIP3    H170369   3.526   2.681   3.881 -0.4623 -0.8171  0.6892
16318TIP3    H270370   3.611   2.694   4.006  1.9180  1.2684 -1.0314
16319TIP3   OH270371   0.541   5.278  11.487 -0.0498  0.4097  0.0107
16319TIP3    H170372   0.602   5.351  11.491  1.9411 -1.1914  1.1023
16319TIP3    H270373   0.577   5.214  11.549 -3.0941 -0.4699  1.0293
16320TIP3   OH270374   2.456   6.172  13.410  0.2068 -0.2168  0.3103
16320TIP3    H170375   2.384   6.135  13.461 -0.3471  1.7241  1.0215
16320TIP3    H270376   2.421   6.253  13.373  1.3416 -0.3724 -1.2197
16321TIP3   OH270377   5.624   0.100   3.572 -0.0878 -0.7525  0.0500
16321TIP3    H170378   5.695   0.050   3.612  0.8435  1.1148  0.8575
16321TIP3    H270379   5.546   0.047   3.585  0.6867 -1.5173  1.7973
16322TIP3   OH270380   0.863   0.262  11.730  0.1758 -0.0238 -0.0326
16322TIP3    H170381   0.951   0.300  11.725  0.9891 -1.8117 -0.1479
16322TIP3    H270382   0.877   0.167  11.723 -1.7545 -0.3688  0.1130
16323TIP3   OH270383   3.789   3.547   6.972  0.2211 -0.1221 -0.3932
16323TIP3    H170384   3.713   3.555   6.914  1.2706  0.2978 -1.7880
16323TIP3    H270385   3.832   3.633   6.966  0.6642 -0.2665  0.5910
16324TIP3   OH270386   4.628   4.483   6.082 -0.0088  0.0711 -0.3690
16324TIP3    H170387   4.630   4.432   6.162 -0.0255 -0.6167 -0.8016
16324TIP3    H270388   4.680   4.433   6.019 -1.4017 -0.2759 -1.2978
16325TIP3   OH270389   0.272   5.407   1.736  0.3549 -0.1351  0.1004
16325TIP3    H170390   0.245   5.337   1.676  0.6812  1.0483 -1.4855
16325TIP3    H270391   0.212   5.479   1.717  1.7437  0.9654 -0.2694
16326TIP3   OH270392   0.928   3.893  13.949 -0.4231  0.6530 -0.0145
16326TIP3    H170393   0.854   3.833  13.934 -1.4678  2.0331 -0.5795
16326TIP3    H270394   0.902   3.944  14.026 -0.0844  1.2028 -0.2641
16327TIP3   OH270395   4.849   6.419   4.213 -0.0786  0.4706 -0.5948
16327TIP3    H170396   4.864   6.348   4.150 -0.4937  0.4692 -0.6985
16327TIP3    H270397   4.890   6.496   4.174  1.2086  0.0876 -0.0415
16328TIP3   OH270398   1.318   2.028  15.270  0.0605 -0.0497 -0.0002
16328TIP3    H170399   1.326   1.933  15.278 -0.6298 -0.3546 -2.3117
16328TIP3    H270400   1.369   2.050  15.192 -0.0471  1.4426  0.3254
16329TIP3   OH270401   0.864   2.519  12.476  0.1939 -0.0509  0.3333
16329TIP3    H170402   0.787   2.469  12.450 -0.2992  0.6884  0.3646
16329TIP3    H270403   0.847   2.543  12.567  0.4023  0.2243  0.2997
16330TIP3   OH270404   5.830   4.978   5.386 -0.4156  0.0524 -0.7613
16330TIP3    H170405   5.813   5.072   5.384  1.7617  0.4926 -1.0413
16330TIP3    H270406   5.920   4.969   5.355 -0.6070 -2.1464 -0.8418
16331TIP3   OH270407   4.385   4.655   5.506 -0.8931  0.2899 -0.9274
16331TIP3    H170408   4.376   4.641   5.412 -1.2334  1.6028 -1.1048
16331TIP3    H270409   4.371   4.568   5.544  2.9216 -1.1370 -2.2522
16332TIP3   OH270410   5.414   3.231   6.066 -0.2732 -0.3619  0.0718
16332TIP3    H170411   5.353   3.257   6.136  0.3955 -0.2118  0.6162
16332TIP3    H270412   5.483   3.298   6.070 -0.0158 -0.5972 -0.4547
16333TIP3   OH270413   6.289   3.648  15.806 -0.1934  0.2816 -0.2068
16333TIP3    H170414   6.207   3.696  15.817  0.2584  0.9947  0.1091
16333TIP3    H270415   6.271   3.562  15.844 -0.0978  1.1836  2.0026
16334TIP3   OH270416   3.120   5.942   0.534 -0.4711  0.1405 -0.2030
16334TIP3    H170417   3.160   5.998   0.467  0.8016 -0.2091  0.2370
16334TIP3    H270418   3.032   5.925   0.501  0.0444  0.1788 -1.6661
16335TIP3   OH270419   6.124   1.850  11.482 -0.3131  0.2347 -0.6176
16335TIP3    H170420   6.212   1.882  11.461 -0.6930  1.4821 -0.3723
16335TIP3    H270421   6.127   1.828  11.575 -0.3031  0.4139 -0.5760
16336TIP3   OH270422   4.312   5.987  13.584 -0.2318 -0.6806 -0.1225
16336TIP3    H170423   4.335   6.074  13.618 -0.2127 -0.6513 -0.2110
16336TIP3    H270424   4.321   5.995  13.489  0.1428 -0.8873 -0.1051
16337TIP3   OH270425   2.149   0.282  13.339  0.2412 -0.4029  0.5046
16337TIP3    H170426   2.211   0.355  13.336 -1.7048  1.3549  0.6026
16337TIP3    H270427   2.183   0.219  13.276  1.7780  0.7538  0.1042
16338TIP3   OH270428   0.025   2.873  14.779  0.5212  0.2258  0.4069
16338TIP3    H170429  -0.071   2.876  14.779  0.4611  4.6963  1.7743
16338TIP3    H270430   0.049   2.880  14.872  2.1841  0.2614 -0.0026
16339TIP3   OH270431   3.173   6.087   6.219  0.3817 -0.3732 -0.1780
16339TIP3    H170432   3.217   6.033   6.284  1.9725  0.8149 -0.2199
16339TIP3    H270433   3.085   6.101   6.255  1.7697  1.8367  2.7605
16340TIP3   OH270434   6.224   4.272   0.056 -0.7642  0.1838  0.3834
16340TIP3    H170435   6.201   4.206  -0.009  2.8460 -1.2180  0.2927
16340TIP3    H270436   6.237   4.352   0.005 -0.8257 -0.1520 -0.1680
16341TIP3   OH270437   1.994   6.082   3.638  0.0754 -0.2543 -0.0377
16341TIP3    H170438   1.910   6.074   3.593  1.3150  0.5103 -2.7001
16341TIP3    H270439   1.973   6.131   3.718 -1.8918  0.7883 -1.0990
16342TIP3   OH270440   1.345   3.963   3.286 -0.1055  0.3774 -0.0495
16342TIP3    H170441   1.276   3.967   3.219 -1.3794  1.8913  1.2776
16342TIP3    H270442   1.413   4.022   3.254 -1.2094  1.9815  0.4894
16343TIP3   OH270443   5.909   5.284  15.890 -0.7136 -0.1430 -0.3188
16343TIP3    H170444   5.814   5.282  15.902 -0.8276  0.3325 -1.0897
16343TIP3    H270445   5.937   5.366  15.929 -0.1914 -1.5556  2.5968
16344TIP3   OH270446   1.263   5.524   1.116  0.0805 -0.5409  0.2616
16344TIP3    H170447   1.317   5.570   1.180  0.7311 -1.4327  0.3720
16344TIP3    H270448   1.303   5.437   1.109 -0.0733 -0.5096 -1.2367
16345TIP3   OH270449   1.525   1.720   1.901  0.6207  0.0854 -0.1922
16345TIP3    H170450   1.480   1.772   1.835  3.1563  1.2902 -1.0898
16345TIP3    H270451   1.490   1.751   1.985 -0.7481  0.3914 -0.8568
16346TIP3   OH270452   5.777   5.695  11.197 -0.0223 -0.0729  0.2796
16346TIP3    H170453   5.761   5.706  11.291  0.4543  1.0858  0.2457
16346TIP3    H270454   5.787   5.785  11.165  0.6284 -0.5010 -0.7346
16347TIP3   OH270455   6.720   6.653   0.511  0.1580 -0.2318  0.2678
16347TIP3    H170456   6.637   6.606   0.518  0.2368 -0.4457 -0.1812
16347TIP3    H270457   6.763   6.614   0.436 -0.8833  2.2237 -1.7894
16348TIP3   OH270458   3.182   2.666  12.562 -0.4172 -0.1944 -0.1628
16348TIP3    H170459   3.090   2.669  12.538 -0.5870 -0.4690  0.4371
16348TIP3    H270460   3.214   2.754  12.545 -1.4164  0.6560  2.0422
16349TIP3   OH270461   5.982   2.336   0.469 -0.1489  0.2617  0.6392
16349TIP3    H170462   5.894   2.325   0.503  0.1176  1.1820  1.7070
16349TIP3    H270463   5.970   2.361   0.377 -0.9066 -1.5967  0.1944
16350TIP3   OH270464   0.247   3.729  13.849 -0.4379 -0.1840  0.2305
16350TIP3    H170465   0.323   3.744  13.905  0.4657  0.1752 -1.0486
16350TIP3    H270466   0.190   3.804  13.866 -0.6416 -0.5690  1.3638
16351TIP3   OH270467   5.827   4.673   5.647 -0.2433  0.0235 -0.6001
16351TIP3    H170468   5.777   4.598   5.680  1.6637 -1.7744 -1.5574
16351TIP3    H270469   5.853   4.647   5.559  0.2324  1.9749 -1.0742
16352TIP3   OH270470   6.223   5.398   2.363  0.5303 -0.2683  0.1644
16352TIP3    H170471   6.214   5.303   2.359  1.9676 -0.4603  0.9181
16352TIP3    H270472   6.217   5.419   2.457  2.4440  0.1075  0.2328
16353TIP3   OH270473   6.684   5.396   1.152  0.7450  0.4391  0.0908
16353TIP3    H170474   6.640   5.480   1.168 -1.3758 -0.5611 -0.1836
16353TIP3    H270475   6.717   5.370   1.238  1.1078  1.3652  0.2476
16354TIP3   OH270476   0.701   4.182  14.505 -0.6389  0.3286  0.3392
16354TIP3    H170477   0.762   4.117  14.539 -1.5916 -0.0568  1.3669
16354TIP3    H270478   0.633   4.131  14.461 -0.6294  0.7113 -0.1344
16355TIP3   OH270479   5.635   5.677  11.958 -0.0358 -0.1123  0.2212
16355TIP3    H170480   5.640   5.680  11.863  0.0803 -0.2091  0.2243
16355TIP3    H270481   5.703   5.738  11.988 -0.4812  0.3776  0.2370
16356TIP3   OH270482   5.152   4.537   1.228 -0.1012  0.1905 -0.5575
16356TIP3    H170483   5.217   4.580   1.173  1.6579 -2.9539 -1.1766
16356TIP3    H270484   5.073   4.533   1.173  0.6823 -0.1675 -1.6904
16357TIP3   OH270485   1.896   1.551  15.058  0.3766 -0.3290 -0.3888
16357TIP3    H170486   1.829   1.482  15.058 -0.5590  0.5699 -0.2166
16357TIP3    H270487   1.901   1.580  15.149  1.1804 -0.5295 -0.3515
16358TIP3   OH270488   2.919   4.822   1.305 -0.6652  0.1267  0.4088
16358TIP3    H170489   2.832   4.815   1.344  0.8456  0.3302  4.2522
16358TIP3    H270490   2.965   4.743   1.334  1.0684  1.0931  0.4453
16359TIP3   OH270491   4.175   4.484   1.946 -0.7434  0.6757  0.4133
16359TIP3    H170492   4.251   4.492   2.004 -0.7774  1.1218  0.4066
16359TIP3    H270493   4.195   4.411   1.888 -0.4021  0.6737  0.5346
16360TIP3   OH270494   5.201   4.286   4.903 -0.4709  0.1253 -0.7097
16360TIP3    H170495   5.135   4.355   4.911 -1.1759 -0.6059  0.1123
16360TIP3    H270496   5.174   4.237   4.825 -0.7404  0.0007 -0.5406
16361TIP3   OH270497   5.783   2.207  16.545 -0.1169  0.1043 -0.3056
16361TIP3    H170498   5.731   2.129  16.524 -0.0748 -0.2250  0.7442
16361TIP3    H270499   5.846   2.214  16.473  0.6107 -1.4929  0.1276
16362TIP3   OH270500   1.999   6.704  16.812 -0.4270  0.6967  0.2510
16362TIP3    H170501   1.982   6.625  16.863 -1.5584  0.3182 -0.6492
16362TIP3    H270502   1.941   6.696  16.736  2.1266  0.5496 -1.8534
16363TIP3   OH270503   1.448   0.949  12.415 -0.3837  0.5280 -0.0735
16363TIP3    H170504   1.497   0.974  12.493  0.6040  0.9357 -0.8100
16363TIP3    H270505   1.409   1.030  12.383 -0.9048  0.3387  0.0557
16364TIP3   OH270506   1.774   3.153  15.861  0.7651 -0.3357  0.0136
16364TIP3    H170507   1.841   3.216  15.835  0.4613 -0.6805 -1.7633
16364TIP3    H270508   1.693   3.204  15.864  0.5967 -0.5087 -0.9877
16365TIP3   OH270509   1.936   6.456   2.599 -0.7272 -0.0579 -0.5017
16365TIP3    H170510   1.950   6.526   2.663 -1.9229 -1.9741  1.9987
16365TIP3    H270511   1.854   6.480   2.556  0.0525  1.2132 -1.3668
16366TIP3   OH270512   1.129   2.046   4.445  0.0371 -0.4969 -0.1101
16366TIP3    H170513   1.119   2.055   4.350  0.7567 -1.5527 -0.2954
16366TIP3    H270514   1.083   1.964   4.466  1.0666 -0.9946  0.2404
16367TIP3   OH270515   6.287   2.012  14.362  0.1737 -0.3451  0.0935
16367TIP3    H170516   6.233   2.074  14.411  0.8862 -1.2967  2.2131
16367TIP3    H270517   6.368   2.060  14.344 -0.4499  0.3219 -1.0540
16368TIP3   OH270518   3.047   1.548   6.097  0.3871 -0.2012 -0.2795
16368TIP3    H170519   2.979   1.597   6.143  1.1062  0.4190  0.1364
16368TIP3    H270520   3.093   1.499   6.165  2.5694  2.0394  0.0032
16369TIP3   OH270521   0.781   3.747  16.058  0.0652 -0.4456  0.2639
16369TIP3    H170522   0.703   3.777  16.011  0.8026  1.7191  0.2926
16369TIP3    H270523   0.853   3.760  15.996  0.6917 -0.2141  1.0185
16370TIP3   OH270524   3.403   2.369   6.823  0.1261 -0.2375  0.5403
16370TIP3    H170525   3.401   2.417   6.906  0.2407 -0.2404  0.5446
16370TIP3    H270526   3.423   2.435   6.757  0.5793 -0.3302  0.5831
16371TIP3   OH270527   2.261   4.052   3.695  0.1693 -0.2703  0.0914
16371TIP3    H170528   2.304   4.122   3.646  1.6428 -0.0124  1.6641
16371TIP3    H270529   2.226   4.095   3.773 -1.3360 -0.8245 -0.2473
16372TIP3   OH270530   2.675   0.896  12.997 -0.1330 -0.1702 -0.1441
16372TIP3    H170531   2.633   0.952  13.061  2.1578  1.5509 -0.0451
16372TIP3    H270532   2.603   0.844  12.959 -1.7759  0.0620  2.4572
16373TIP3   OH270533   2.393   1.525  10.785 -0.0218 -0.3880  0.4541
16373TIP3    H170534   2.333   1.465  10.741  0.0018 -1.8375  2.2740
16373TIP3    H270535   2.337   1.596  10.816 -0.7536 -1.3726  1.5176
16374TIP3   OH270536   3.570   3.615   0.382 -0.5101  0.3082  0.2886
16374TIP3    H170537   3.596   3.707   0.389 -0.9854  0.5511 -0.9294
16374TIP3    H270538   3.620   3.582   0.307 -0.2648 -0.4705  0.7743
16375TIP3   OH270539   1.801   5.023   4.507  0.3829 -0.3254  0.3961
16375TIP3    H170540   1.800   5.014   4.412  2.1566  0.4117  0.2657
16375TIP3    H270541   1.725   5.077   4.527 -0.1228 -0.6621 -0.5775
16376TIP3   OH270542   1.974   1.120  16.045  0.4690 -0.2231  0.9453
16376TIP3    H170543   2.041   1.182  16.017  1.2006 -1.3068  0.2183
16376TIP3    H270544   1.898   1.142  15.990  0.7321  0.0005  0.6599
16377TIP3   OH270545   1.509   3.275   5.225  0.5329 -0.0059  0.2105
16377TIP3    H170546   1.429   3.226   5.245 -1.1501  2.6829  0.7093
16377TIP3    H270547   1.546   3.296   5.311  1.2185 -0.3823  0.0110
16378TIP3   OH270548   1.053   6.550   4.968 -0.2677  0.0411  0.1649
16378TIP3    H170549   1.146   6.533   4.984  0.1062 -0.0086 -1.7913
16378TIP3    H270550   1.009   6.519   5.047  1.4356  0.9319  1.5366
16379TIP3   OH270551   1.125   6.687   0.189 -0.5339  0.6112 -0.5244
16379TIP3    H170552   1.115   6.699   0.095  1.1069  0.5358 -0.7427
16379TIP3    H270553   1.049   6.731   0.227 -0.3093  2.2213 -1.8052
16380TIP3   OH270554   2.198   3.583   3.537 -0.1229 -0.9456 -0.3309
16380TIP3    H170555   2.159   3.542   3.615 -0.5805 -2.0332 -1.1016
16380TIP3    H270556   2.263   3.643   3.572 -1.0389 -0.6348  0.9301
16381TIP3   OH270557   6.533   0.966   5.754  0.1161  0.3471  0.1299
16381TIP3    H170558   6.461   0.964   5.692  0.0358 -0.4614  0.2421
16381TIP3    H270559   6.498   0.928   5.834 -0.3844  3.1260  1.3664
16382TIP3   OH270560   3.515   1.581  11.963  0.2863 -0.5968  0.8189
16382TIP3    H170561   3.525   1.517  12.034  0.6388 -2.2948 -0.6925
16382TIP3    H270562   3.422   1.575  11.939  0.3746 -0.7118  0.5108
16383TIP3   OH270563   1.603   5.059   3.872  0.1950 -0.5696  0.0409
16383TIP3    H170564   1.530   5.120   3.869  0.7017  0.0311 -0.7291
16383TIP3    H270565   1.564   4.973   3.859 -0.4637 -0.3457  0.5301
16384TIP3   OH270566   5.165   4.417  11.539 -0.3647  0.7118 -0.0746
16384TIP3    H170567   5.074   4.438  11.522 -0.4854  0.1733 -0.1216
16384TIP3    H270568   5.186   4.464  11.619 -1.5685 -1.4499  1.6232
16385TIP3   OH270569   1.420   5.667   2.588 -0.0831  0.0825  0.2126
16385TIP3    H170570   1.349   5.626   2.636 -0.7286  0.8818 -0.0308
16385TIP3    H270571   1.420   5.625   2.503  0.3511 -0.5686  0.5261
16386TIP3   OH270572   6.642   5.805  15.682  0.4648  0.5356 -0.1117
16386TIP3    H170573   6.661   5.789  15.774  1.2770  0.5380 -0.2665
16386TIP3    H270574   6.596   5.889  15.681 -0.1894  0.1861  0.3507
16387TIP3   OH270575   2.181   2.779   3.356 -0.2900 -0.1856  0.2494
16387TIP3    H170576   2.108   2.819   3.310 -2.1014 -1.5595  1.7713
16387TIP3    H270577   2.176   2.686   3.333  0.4682 -0.4371  1.0291
16388TIP3   OH270578   1.659   4.037   2.668 -0.2824 -0.4593  0.4259
16388TIP3    H170579   1.702   4.032   2.754  0.8518  0.1879 -0.0912
16388TIP3    H270580   1.626   4.127   2.664  0.1005 -0.3378 -0.0140
16389TIP3   OH270581   0.898   0.173  13.243 -0.5740  0.4369 -0.4622
16389TIP3    H170582   0.851   0.236  13.297 -0.9628  0.4156 -0.7663
16389TIP3    H270583   0.947   0.227  13.181  0.6719  0.4949  0.5352
16390TIP3   OH270584   5.912   3.974  15.618  0.1794 -0.5673  0.0186
16390TIP3    H170585   5.918   3.991  15.524 -0.5411  0.9180  0.1946
16390TIP3    H270586   6.002   3.980  15.650  0.0948  3.2298  0.0089
16391TIP3   OH270587   3.004   4.328  14.001  0.4096 -0.4721  0.0657
16391TIP3    H170588   3.034   4.412  13.968  2.4045 -0.7147  1.1443
16391TIP3    H270589   2.968   4.284  13.923 -0.2980  1.1669 -0.5814
16392TIP3   OH270590   0.708   4.362  16.530 -0.4957 -0.2119  0.5094
16392TIP3    H170591   0.665   4.433  16.483 -0.9917 -0.5190  0.4904
16392TIP3    H270592   0.692   4.285  16.475  0.3312 -0.2763  0.3563
16393TIP3   OH270593   2.060   0.475  11.821  0.0426  0.1408 -0.5558
16393TIP3    H170594   2.055   0.405  11.887  0.0214  1.8599  1.3683
16393TIP3    H270595   2.132   0.531  11.850 -1.2922  2.0828 -0.7999
16394TIP3   OH270596   1.053   5.019  13.643 -0.3205 -0.1852  0.1774
16394TIP3    H170597   1.132   5.041  13.594  0.6412  0.2895  1.8537
16394TIP3    H270598   0.981   5.049  13.588  0.6796 -0.3313 -1.2425
16395TIP3   OH270599   2.819   3.168  14.879  0.6486 -0.5661 -0.1411
16395TIP3    H170600   2.886   3.123  14.827 -0.1434 -0.6378 -1.1247
16395TIP3    H270601   2.748   3.186  14.817  0.9257  2.0605  0.1931
16396TIP3   OH270602   1.793   1.184  13.235  0.2075  0.7414 -0.5010
16396TIP3    H170603   1.725   1.251  13.238  0.2772  0.7697  1.8500
16396TIP3    H270604   1.874   1.230  13.259  0.2613 -0.1290  1.1136
16397TIP3   OH270605   4.159   0.299  10.750  0.0879 -0.4046 -0.1057
16397TIP3    H170606   4.207   0.310  10.668  1.2733  1.6172  0.7870
16397TIP3    H270607   4.069   0.284  10.723  0.4872  0.0157 -1.7843
16398TIP3   OH270608   6.739   1.946   4.454  0.1528 -0.4665  0.7675
16398TIP3    H170609   6.716   2.009   4.386 -0.6088 -0.8999  0.6197
16398TIP3    H270610   6.799   1.885   4.411 -0.8847 -1.1563  0.2737
16399TIP3   OH270611   4.594   1.221  16.461  0.3137  0.0573 -0.2948
16399TIP3    H170612   4.571   1.262  16.378 -2.1640  1.1472  0.8328
16399TIP3    H270613   4.683   1.187  16.447  0.5653  1.5058 -2.8668
16400TIP3   OH270614   6.358   2.902  15.478  0.6887 -0.0485  0.3594
16400TIP3    H170615   6.346   2.997  15.490 -2.3299  0.0477 -2.2915
16400TIP3    H270616   6.333   2.886  15.387 -0.4977 -3.6408  1.1868
16401TIP3   OH270617   4.224   6.109   2.512 -0.4529 -0.1430  0.3007
16401TIP3    H170618   4.166   6.149   2.576 -0.8631 -0.5247  0.1721
16401TIP3    H270619   4.198   6.147   2.428 -0.0378  0.2209  0.3347
16402TIP3   OH270620   2.025   2.821   0.302  0.3606 -0.0108 -0.7108
16402TIP3    H170621   1.938   2.830   0.339  0.3848 -0.1279 -0.6231
16402TIP3    H270622   2.066   2.906   0.316  0.5049 -0.1720 -0.1099
16403TIP3   OH270623   0.217   3.650  13.576 -0.0063 -0.3811 -0.1021
16403TIP3    H170624   0.234   3.641  13.670  0.5665  0.0347 -0.1609
16403TIP3    H270625   0.158   3.725  13.570  1.3968  0.7438 -0.2023
16404TIP3   OH270626   3.110   6.409  13.048  0.3972 -0.2759  0.4359
16404TIP3    H170627   3.089   6.336  12.990 -1.1961 -0.6149  1.3741
16404TIP3    H270628   3.205   6.404  13.059  0.9669  0.4594 -2.9229
16405TIP3   OH270629   3.090   5.969   4.179  0.3783 -0.2761 -0.0042
16405TIP3    H170630   3.175   5.955   4.219  0.2313 -0.8963  0.0914
16405TIP3    H270631   3.046   6.031   4.238  0.4190 -0.6570  0.4261
16406TIP3   OH270632   2.332   4.889  12.499 -0.2695 -0.2843  0.7041
16406TIP3    H170633   2.238   4.890  12.484  0.0370 -2.4639 -2.2894
16406TIP3    H270634   2.348   4.805  12.543  0.4032 -0.7231 -0.3494
16407TIP3   OH270635   5.586   3.352  16.778 -0.1088  0.4142  0.4037
16407TIP3    H170636   5.525   3.343  16.851  0.1216  1.2425  0.7220
16407TIP3    H270637   5.634   3.433  16.798  0.5076  0.2208 -0.2613
16408TIP3   OH270638   5.516   3.700  14.841  0.8319 -0.6033  0.3315
16408TIP3    H170639   5.452   3.771  14.838  0.8229 -0.6288 -0.2648
16408TIP3    H270640   5.485   3.637  14.775  0.6126 -1.3605  1.1295
16409TIP3   OH270641   5.243   4.773  16.010  0.0741  0.3159 -0.0390
16409TIP3    H170642   5.228   4.716  16.085  0.8330 -0.8470 -0.7235
16409TIP3    H270643   5.161   4.821  15.999 -0.3299 -0.1078  1.0103
16410TIP3   OH270644   3.204   6.721   0.230 -0.0823 -0.0380 -0.5269
16410TIP3    H170645   3.114   6.722   0.263 -0.4664 -1.9858 -1.3245
16410TIP3    H270646   3.209   6.796   0.172 -0.7885  0.8260  0.4902
16411TIP3   OH270647   6.360   2.028   5.322  0.4962  0.7876 -0.2111
16411TIP3    H170648   6.293   1.961   5.309  1.2792  0.0379 -0.5715
16411TIP3    H270649   6.313   2.111   5.321 -0.3089  0.3474 -1.4097
16412TIP3   OH270650   5.998   0.630  15.981  0.5221 -0.3145 -0.1215
16412TIP3    H170651   5.971   0.699  15.920  1.1393  0.5212  0.5151
16412TIP3    H270652   6.093   0.640  15.987  0.6802 -1.5299 -0.3609
16413TIP3   OH270653   6.256   2.011  14.863  0.4027 -0.1700  0.4206
16413TIP3    H170654   6.289   1.968  14.784 -0.9824 -0.6270  0.0543
16413TIP3    H270655   6.276   1.949  14.933  1.2231  0.0222  0.3597
16414TIP3   OH270656   2.992   3.581   1.472 -0.4949  0.1410 -0.1855
16414TIP3    H170657   3.025   3.670   1.460  1.1832 -0.3293  0.6678
16414TIP3    H270658   2.984   3.571   1.567 -0.7307 -0.6049 -0.2826
16415TIP3   OH270659   4.476   6.293  15.455 -0.1186 -0.1042 -0.2978
16415TIP3    H170660   4.560   6.318  15.494  0.5038  0.7169 -2.0777
16415TIP3    H270661   4.430   6.375  15.444 -0.1271 -0.2569 -1.5769
16416TIP3   OH270662   3.466   3.603  16.062  0.0560 -0.5496  0.0504
16416TIP3    H170663   3.399   3.640  16.005  0.5762  0.3104 -0.0205
16416TIP3    H270664   3.420   3.535  16.111 -1.3558  1.1255  1.2349
16417TIP3   OH270665   2.139   5.429  17.140 -0.0927 -0.2259  0.2577
16417TIP3    H170666   2.182   5.491  17.082  1.3196 -1.5174 -0.1381
16417TIP3    H270667   2.046   5.452  17.136  0.2270  0.9462 -0.9601
16418TIP3   OH270668   5.062   5.777   1.240  0.4593  0.0857 -0.1138
16418TIP3    H170669   5.102   5.690   1.242  0.6443  0.1470 -0.9545
16418TIP3    H270670   5.127   5.835   1.279  1.7690  0.3971 -2.5395
16419TIP3   OH270671   5.323   0.029  16.549  0.2040  0.6197  0.0738
16419TIP3    H170672   5.383  -0.007  16.484  0.1249  0.3581  0.1434
16419TIP3    H270673   5.236   0.014  16.513  0.0729 -1.0595  0.9871
16420TIP3   OH270674   0.926   3.805   3.372  0.1732  0.1643  0.3585
16420TIP3    H170675   0.905   3.892   3.407 -0.9643  0.0214  0.0631
16420TIP3    H270676   0.958   3.823   3.284  2.0630  0.4394  1.0485
16421TIP3   OH270677   5.427   3.945   0.198  0.5280 -0.0925 -0.5518
16421TIP3    H170678   5.473   4.013   0.150  0.2050 -0.0989 -0.8808
16421TIP3    H270679   5.348   3.989   0.231  0.0913 -0.4064 -1.1464
16422TIP3   OH270680   1.923   0.426   5.231  0.1909 -0.3627  0.0515
16422TIP3    H170681   1.976   0.375   5.170  0.6149 -1.6840  1.4415
16422TIP3    H270682   1.909   0.367   5.305 -3.5437 -0.2125 -0.3612
16423TIP3   OH270683   4.185   3.617  15.946  0.2895 -0.1179  0.3930
16423TIP3    H170684   4.107   3.666  15.922  1.0772  0.6394 -0.7203
16423TIP3    H270685   4.169   3.588  16.036 -0.4884  1.6342  0.8599
16424TIP3   OH270686   2.842   1.230   5.330  0.0574  0.4065 -0.1021
16424TIP3    H170687   2.818   1.294   5.264 -1.7452 -0.1075  0.0005
16424TIP3    H270688   2.761   1.214   5.379  1.2333  0.4586  1.9625
16425TIP3   OH270689   1.757   4.443  16.252 -0.0783  0.4356  0.2389
16425TIP3    H170690   1.698   4.379  16.213 -0.0807  1.1987 -1.0478
16425TIP3    H270691   1.842   4.428  16.209 -0.2455  1.7237 -0.6086
16426TIP3   OH270692   2.923   2.859  13.630  0.0921  0.1467  0.6749
16426TIP3    H170693   2.856   2.830  13.692  0.1547 -0.7501  0.3348
16426TIP3    H270694   2.978   2.919  13.680 -1.4029  1.5407  0.7622
16427TIP3   OH270695   4.478   2.786  15.177  0.1646  0.2956 -0.2360
16427TIP3    H170696   4.547   2.851  15.161 -1.5571  2.5361  0.8725
16427TIP3    H270697   4.525   2.710  15.212  2.1912  1.2040 -0.7988
16428TIP3   OH270698   5.637   1.261   1.171  0.1818  0.0606  0.0301
16428TIP3    H170699   5.670   1.253   1.081  0.5310 -1.7981  0.2819
16428TIP3    H270700   5.709   1.302   1.219  1.0345 -1.3167 -0.0272
16429TIP3   OH270701   6.421   1.013  13.303 -0.0484 -0.2812  0.2810
16429TIP3    H170702   6.500   1.047  13.261 -0.5391  0.9505  0.3080
16429TIP3    H270703   6.387   0.947  13.242  1.0059 -0.8482  0.2889
16430TIP3   OH270704   0.207   0.564  13.263  0.3111 -0.4885  0.0380
16430TIP3    H170705   0.209   0.558  13.358  1.8057  0.3337  0.0974
16430TIP3    H270706   0.118   0.539  13.239 -0.5404  0.6715  1.7508
16431TIP3   OH270707   3.126   5.467  16.882 -0.1693  0.2537  0.2119
16431TIP3    H170708   3.180   5.478  16.961 -0.2289  0.0458  0.2823
16431TIP3    H270709   3.067   5.394  16.903 -0.5568  0.5510  0.1818
16432TIP3   OH270710   1.703   2.229  10.850 -0.2043  0.4437 -0.0643
16432TIP3    H170711   1.683   2.316  10.815  0.9700  0.2670 -1.2525
16432TIP3    H270712   1.755   2.187  10.782 -0.1826 -0.9556  0.7723
16433TIP3   OH270713   4.937   4.879   0.003 -0.3686 -0.1737 -0.1062
16433TIP3    H170714   4.973   4.905  -0.082 -1.3406 -0.6105 -0.6778
16433TIP3    H270715   4.847   4.910   0.001 -0.1213  0.7204  1.2065
16434TIP3   OH270716   3.368   3.785   5.510 -0.3854  0.0461 -0.1381
16434TIP3    H170717   3.361   3.794   5.605  0.5040  0.2789 -0.0883
16434TIP3    H270718   3.395   3.694   5.496 -0.1303  0.1258 -0.1525
16435TIP3   OH270719   1.078   6.411   5.428 -0.1407 -0.0306 -0.4980
16435TIP3    H170720   1.081   6.475   5.357 -1.5042 -0.0095 -0.5545
16435TIP3    H270721   1.011   6.443   5.487 -0.1664 -0.9126 -0.0310
16436TIP3   OH270722   4.605   4.970  11.886 -0.6128  0.1204  0.0157
16436TIP3    H170723   4.562   4.885  11.882 -2.3179  0.9433 -0.0410
16436TIP3    H270724   4.666   4.970  11.812 -2.2018 -0.2435 -1.3615
16437TIP3   OH270725   2.120   1.187  14.882 -0.2845  0.1868 -0.1254
16437TIP3    H170726   2.053   1.124  14.909  0.7639 -0.8060  0.2053
16437TIP3    H270727   2.071   1.269  14.869 -1.1736  0.2641  2.9251
16438TIP3   OH270728   2.736   4.268  12.215 -0.5044 -0.1789 -0.0373
16438TIP3    H170729   2.665   4.249  12.276 -0.3802 -1.3492 -0.2296
16438TIP3    H270730   2.751   4.185  12.170 -0.2880  0.5558 -1.3443
16439TIP3   OH270731   2.526   1.320  16.502  0.1209  0.3670  0.2263
16439TIP3    H170732   2.492   1.372  16.574  0.3299  0.5410  0.1995
16439TIP3    H270733   2.452   1.310  16.442 -0.0034  0.3701  0.3817
16440TIP3   OH270734   5.879   4.127  10.680 -0.0111  0.0747  0.2460
16440TIP3    H170735   5.832   4.192  10.732  0.2675  3.1308 -2.9681
16440TIP3    H270736   5.819   4.105  10.609  1.6658  0.6095 -1.4068
16441TIP3   OH270737   4.621   4.157  14.571  0.0689  0.0144 -0.2343
16441TIP3    H170738   4.678   4.081  14.582  2.1508  1.7884  3.0134
16441TIP3    H270739   4.601   4.185  14.661 -1.9361  2.3832 -1.2908
16442TIP3   OH270740   6.064   5.548  15.351  0.6017  0.5942  0.2530
16442TIP3    H170741   6.002   5.529  15.422 -0.4633  1.3204 -0.4331
16442TIP3    H270742   6.150   5.535  15.390  0.0263 -0.6008  1.2104
16443TIP3   OH270743   2.730   5.565  11.576  0.2495 -0.6547  0.1706
16443TIP3    H170744   2.755   5.529  11.490  1.1527  0.3295  0.0048
16443TIP3    H270745   2.638   5.540  11.586  0.9814 -3.7008  0.4428
16444TIP3   OH270746   1.092   1.800  12.970  0.0653  0.5599 -0.2607
16444TIP3    H170747   1.002   1.802  13.001  0.0775  0.9850 -0.2487
16444TIP3    H270748   1.094   1.728  12.906  0.3164 -1.0756  1.5001
16445TIP3   OH270749   1.256   4.295   4.815  0.1645  0.2043  0.2828
16445TIP3    H170750   1.171   4.335   4.835 -0.2991 -0.7212  0.2344
16445TIP3    H270751   1.307   4.304   4.895  0.8990  2.8254 -0.3624
16446TIP3   OH270752   3.011   4.610  15.425  0.4001  1.0924  0.0855
16446TIP3    H170753   2.957   4.608  15.504 -1.1895 -1.4089 -0.9592
16446TIP3    H270754   3.082   4.548  15.442 -2.3812 -3.0951 -1.8325
16447TIP3   OH270755   1.075   6.174   1.005  0.1408  0.3206 -0.6917
16447TIP3    H170756   1.030   6.236   1.062  0.3343 -0.4647  0.3386
16447TIP3    H270757   1.017   6.165   0.930 -1.3216 -0.4560  0.4780
16448TIP3   OH270758   4.739   3.100   4.082 -0.2007 -0.0578 -0.4465
16448TIP3    H170759   4.727   3.110   4.176 -1.9417 -1.6846 -0.4284
16448TIP3    H270760   4.805   3.166   4.058 -0.1954  0.8079  1.7747
16449TIP3   OH270761   2.233   4.178   4.936 -0.2213  0.1407  0.3401
16449TIP3    H170762   2.161   4.238   4.957  1.4994  1.6434  2.2798
16449TIP3    H270763   2.226   4.109   5.001 -0.9284 -0.7217 -0.6012
16450TIP3   OH270764   4.655   3.068  11.653 -0.0120  0.4995 -0.2016
16450TIP3    H170765   4.721   3.019  11.604  0.5418 -0.1842  1.1889
16450TIP3    H270766   4.691   3.157  11.659 -0.3667  0.7624 -1.5062
16451TIP3   OH270767   1.865   1.542   3.796 -0.0109 -0.1586 -0.2166
16451TIP3    H170768   1.938   1.496   3.756 -0.7619 -1.3395 -0.2627
16451TIP3    H270769   1.836   1.485   3.867  1.7025  2.1695  2.5963
16452TIP3   OH270770   0.066   1.924   3.216  0.7210 -0.5384 -0.0897
16452TIP3    H170771   0.042   1.831   3.216  1.5180 -0.7537  0.5286
16452TIP3    H270772   0.025   1.959   3.137 -0.6436 -1.1365  0.3221
16453TIP3   OH270773   4.187   2.475   6.111 -0.1750  0.8275 -0.5299
16453TIP3    H170774   4.119   2.411   6.131  0.4070 -1.2381 -4.1376
16453TIP3    H270775   4.261   2.450   6.165 -0.1233 -1.4116 -1.5102
16454TIP3   OH270776   1.401   4.337  11.596 -0.6597 -0.0702  0.5422
16454TIP3    H170777   1.437   4.250  11.578 -0.0186  0.2735  0.1069
16454TIP3    H270778   1.476   4.396  11.584 -0.9627  0.4908  1.3343
16455TIP3   OH270779   1.412   6.400  15.535  0.8174 -0.0518 -0.3520
16455TIP3    H170780   1.400   6.495  15.537 -0.5482 -0.0806  4.4146
16455TIP3    H270781   1.506   6.388  15.524  1.0539  1.8042 -0.7610
16456TIP3   OH270782   1.490   3.437  11.234 -0.1051  0.5012  0.0176
16456TIP3    H170783   1.445   3.519  11.255  0.0460  0.5924 -0.0169
16456TIP3    H270784   1.575   3.444  11.277  0.0944  0.5656 -0.3802
16457TIP3   OH270785   4.994   3.823   6.656 -0.1327  0.4114 -0.0426
16457TIP3    H170786   4.942   3.743   6.661 -1.0271  0.7769 -2.3156
16457TIP3    H270787   4.944   3.888   6.705 -0.5667  0.1541 -0.1431
16458TIP3   OH270788   5.301   5.741  15.576  0.2823  0.6857 -0.1861
16458TIP3    H170789   5.337   5.803  15.640  1.9390  1.3149 -1.6270
16458TIP3    H270790   5.377   5.715  15.524 -0.8802 -0.4193 -1.3783
16459TIP3   OH270791   0.151   3.687   4.428  0.4427 -0.5070 -0.0092
16459TIP3    H170792   0.063   3.678   4.392  0.6686  1.0365 -1.0428
16459TIP3    H270793   0.146   3.765   4.484  1.0157 -0.7589  0.4035
16460TIP3   OH270794   4.144   2.031   4.081  0.2120 -0.2283  0.2717
16460TIP3    H170795   4.157   1.946   4.124  1.6506 -0.7922 -1.1545
16460TIP3    H270796   4.232   2.061   4.060 -0.3070  1.3459  0.1991
16461TIP3   OH270797   2.705   5.211  10.571  0.0201 -0.2882 -0.3528
16461TIP3    H170798   2.798   5.227  10.586 -0.4453  1.8277  0.7013
16461TIP3    H270799   2.678   5.154  10.642  0.3628 -0.2772 -0.2147
16462TIP3   OH270800   0.858   4.777  15.429  0.1363 -0.0518 -0.3952
16462TIP3    H170801   0.794   4.725  15.477  0.4123  0.0040  0.0350
16462TIP3    H270802   0.827   4.775  15.338 -1.0158  0.7949 -0.0395
16463TIP3   OH270803   4.297   1.454  11.204 -0.3428 -0.4648  0.6376
16463TIP3    H170804   4.338   1.373  11.237 -0.6516 -0.3536  1.3170
16463TIP3    H270805   4.277   1.435  11.112  0.4089 -0.8388  0.5395
16464TIP3   OH270806   5.771   4.696   5.118  0.5940 -0.6556  0.2938
16464TIP3    H170807   5.684   4.717   5.153 -0.3748 -2.5363 -0.8416
16464TIP3    H270808   5.769   4.728   5.028  1.2475 -0.3542  0.3781
16465TIP3   OH270809   2.342   5.412   0.626 -0.4263 -0.0697 -0.2410
16465TIP3    H170810   2.276   5.462   0.579 -2.4103 -1.0769  1.2924
16465TIP3    H270811   2.322   5.321   0.607  2.1875 -0.4268 -1.7784
16466TIP3   OH270812   0.797   3.324   1.914  0.0668 -0.5096  0.4603
16466TIP3    H170813   0.743   3.259   1.960  0.6391 -1.2500  0.1155
16466TIP3    H270814   0.763   3.408   1.942  0.1635 -0.9490  1.9577
16467TIP3   OH270815   5.631   2.994   3.463 -0.1005  0.0319 -0.0211
16467TIP3    H170816   5.598   2.994   3.552 -1.3109 -0.6399 -0.4454
16467TIP3    H270817   5.658   2.904   3.447  2.3358  0.6069  0.4078
16468TIP3   OH270818   4.474   3.756   4.621 -0.0348 -0.1433  0.4517
16468TIP3    H170819   4.423   3.817   4.674 -0.6984 -0.1885 -0.1198
16468TIP3    H270820   4.550   3.806   4.592 -0.0737  0.1128  0.7896
16469TIP3   OH270821   4.903   1.460   2.313  0.0184  0.3582 -0.5485
16469TIP3    H170822   4.944   1.413   2.386  2.6905  1.7610 -1.0485
16469TIP3    H270823   4.955   1.436   2.237 -2.0811 -0.2365 -1.8619
16470TIP3   OH270824   2.372   3.043   5.078  0.1351 -0.3641  0.1242
16470TIP3    H170825   2.364   3.017   5.169  0.7392 -0.8420  0.0446
16470TIP3    H270826   2.358   3.138   5.078  0.0748 -0.3752  0.7039
16471TIP3   OH270827   3.659   1.612   6.603 -0.0200 -0.1390 -0.7507
16471TIP3    H170828   3.750   1.596   6.575 -0.1801  0.1481 -1.4645
16471TIP3    H270829   3.662   1.695   6.650  0.3353 -0.8563  0.5197
16472TIP3   OH270830   2.578   3.208  14.384  0.2341  0.5355  0.0186
16472TIP3    H170831   2.541   3.197  14.296 -0.8540  0.1720  0.5031
16472TIP3    H270832   2.528   3.281  14.422  1.3681  1.3480  0.0039
16473TIP3   OH270833   1.058   2.495   5.726 -0.0278  0.9663  0.1321
16473TIP3    H170834   1.037   2.527   5.639 -0.3053  1.0265  0.2212
16473TIP3    H270835   1.093   2.571   5.772 -0.6732  1.1391  0.3393
16474TIP3   OH270836   2.906   4.713  13.766 -1.1383 -0.4358 -0.1103
16474TIP3    H170837   2.865   4.628  13.751 -1.7368 -0.1711 -0.0062
16474TIP3    H270838   2.841   4.777  13.736  0.0263 -0.0324 -1.9769
16475TIP3   OH270839   5.204   6.430   2.851  0.4870 -0.3092 -0.1256
16475TIP3    H170840   5.129   6.378   2.823 -0.1668 -0.0498  1.0901
16475TIP3    H270841   5.280   6.381   2.818 -0.1836 -0.6109 -1.3012
16476TIP3   OH270842   0.054   6.014  14.350 -0.5370  0.3983 -0.3848
16476TIP3    H170843   0.135   5.977  14.315 -0.0868  0.8454  0.1426
16476TIP3    H270844   0.066   6.109  14.342 -0.6240  0.4921  0.5187
16477TIP3   OH270845   4.540   2.446  12.144 -0.4294  0.0930  0.2755
16477TIP3    H170846   4.483   2.502  12.196  1.0453 -0.6386  2.8423
16477TIP3    H270847   4.627   2.458  12.182  0.3768 -1.9860 -0.7664
16478TIP3   OH270848   5.855   6.319   0.697 -0.0405  0.0605  0.2023
16478TIP3    H170849   5.814   6.320   0.611  1.4340  1.0095 -0.5361
16478TIP3    H270850   5.793   6.364   0.754  0.1016  1.8760 -0.9825
16479TIP3   OH270851   1.522   3.113   2.372 -0.8324 -0.1378  0.1657
16479TIP3    H170852   1.553   3.183   2.315 -1.5573  0.8182  0.9159
16479TIP3    H270853   1.594   3.049   2.373 -0.1217  0.6363 -0.4589
16480TIP3   OH270854   1.896   6.550   5.909 -0.5604 -0.6775 -0.9857
16480TIP3    H170855   1.983   6.585   5.925 -0.9355 -0.2208  0.1462
16480TIP3    H270856   1.846   6.624   5.876 -0.9429 -0.5277 -0.0825
16481TIP3   OH270857   0.076   3.674  13.097  0.0065  0.1099 -0.0896
16481TIP3    H170858   0.054   3.581  13.089 -0.0962  0.0464  0.8049
16481TIP3    H270859   0.159   3.683  13.052 -0.1109 -0.3647 -0.4105
16482TIP3   OH270860   6.022   3.139   0.513 -0.3508  0.2442  0.4755
16482TIP3    H170861   5.982   3.200   0.575  0.9480 -0.0069  1.6192
16482TIP3    H270862   6.039   3.060   0.565  1.1004  0.1532 -0.0821
16483TIP3   OH270863   6.609   1.321  15.580 -0.1310 -0.1428  0.5707
16483TIP3    H170864   6.602   1.297  15.672 -0.0502  0.5503  0.7596
16483TIP3    H270865   6.568   1.407  15.574 -0.5917 -0.3987 -0.1358
16484TIP3   OH270866   4.908   2.105   5.351  0.2833 -0.1741 -0.6486
16484TIP3    H170867   5.001   2.087   5.359  0.3949  0.1625 -1.1465
16484TIP3    H270868   4.904   2.190   5.307 -0.2496  0.1319 -0.0273
16485TIP3   OH270869   6.506   6.485   2.927  0.1085  0.8228 -0.2881
16485TIP3    H170870   6.479   6.576   2.942  2.2403  1.3035  1.1422
16485TIP3    H270871   6.424   6.439   2.907 -1.3797  2.6356  1.1425
16486TIP3   OH270872   2.750   2.517   1.379  0.0645 -0.1075  0.2611
16486TIP3    H170873   2.705   2.543   1.299 -0.1283 -0.4104  0.2719
16486TIP3    H270874   2.760   2.423   1.372 -0.6596 -0.2459  0.9451
16487TIP3   OH270875   3.887   0.963  12.114 -0.1823 -0.0215  0.2969
16487TIP3    H170876   3.900   0.907  12.191  0.0498  1.7786  1.6257
16487TIP3    H270877   3.975   0.987  12.086 -0.2722 -0.5413 -0.4718
16488TIP3   OH270878   3.652   3.861   0.410  0.0308  0.2418  0.1184
16488TIP3    H170879   3.726   3.923   0.408 -0.2147  0.5637  0.7308
16488TIP3    H270880   3.611   3.870   0.324 -0.2429  1.2248  0.3477
16489TIP3   OH270881   1.002   2.235  16.269 -0.2906 -0.7983  0.1324
16489TIP3    H170882   1.062   2.305  16.294 -0.3922 -0.4242 -0.6293
16489TIP3    H270883   0.955   2.214  16.349 -0.5877  0.3348  0.2765
16490TIP3   OH270884   1.009   4.174   4.610  0.0794  0.7450 -0.0917
16490TIP3    H170885   1.076   4.137   4.553 -0.1651  1.0860 -0.6034
16490TIP3    H270886   1.015   4.122   4.690 -0.2603 -0.4063 -0.7933
16491TIP3   OH270887   2.742   5.804   4.730  0.2867  0.2194 -0.1827
16491TIP3    H170888   2.706   5.741   4.792 -0.9888  1.0538 -0.0347
16491TIP3    H270889   2.708   5.888   4.759  0.9790  0.8256 -1.0805
16492TIP3   OH270890   5.373   5.947   2.644 -0.6522  0.3238 -0.8534
16492TIP3    H170891   5.387   5.865   2.596  0.8347 -0.9024  1.4949
16492TIP3    H270892   5.457   5.992   2.640 -0.8198  0.6935 -0.2685
16493TIP3   OH270893   3.056   6.138  14.735 -0.7870  0.2344 -0.4653
16493TIP3    H170894   3.083   6.221  14.697 -0.1056  0.3350  0.2115
16493TIP3    H270895   3.061   6.152  14.830  2.4573 -1.4874 -0.2451
16494TIP3   OH270896   3.134   0.687   0.389 -0.0135  0.2703 -0.1854
16494TIP3    H170897   3.152   0.780   0.371  0.4380  0.1246 -0.4936
16494TIP3    H270898   3.200   0.640   0.339 -0.4460 -0.2332 -0.2923
16495TIP3   OH270899   4.576   5.500  17.211  0.4166  0.2150  0.2847
16495TIP3    H170900   4.667   5.497  17.182  0.1551  1.3792 -0.7286
16495TIP3    H270901   4.582   5.523  17.304  1.2389 -3.1557  1.2134
16496TIP3   OH270902   3.582   1.805  12.790 -0.0999 -1.2008 -0.0332
16496TIP3    H170903   3.648   1.781  12.725 -0.3058 -2.1828  0.1062
16496TIP3    H270904   3.582   1.732  12.852 -1.1249 -1.0839  0.1146
16497TIP3   OH270905   1.951   2.419   4.340 -0.3757  0.7868  0.2384
16497TIP3    H170906   1.904   2.344   4.302 -0.7838  0.2284  1.7923
16497TIP3    H270907   1.911   2.495   4.297  0.2239  0.1529 -1.5616
16498TIP3   OH270908   2.509   1.978  10.408  0.3500 -0.2324 -0.1811
16498TIP3    H170909   2.441   2.035  10.374  0.2257 -0.0165  0.4125
16498TIP3    H270910   2.514   1.999  10.502  0.0810 -1.4159  0.1232
16499TIP3   OH270911   4.754   4.945  12.646 -0.2498 -0.0619 -0.3814
16499TIP3    H170912   4.765   4.982  12.559  3.2180  1.7438  0.6289
16499TIP3    H270913   4.748   4.851  12.632 -1.5071  0.2787 -2.5945
16500TIP3   OH270914   3.073   2.434   0.865  0.1780 -0.0593 -0.2192
16500TIP3    H170915   3.126   2.367   0.823  1.1069  1.0199 -0.8211
16500TIP3    H270916   2.989   2.392   0.881  0.0831 -0.7894 -2.3477
16501TIP3   OH270917   1.588   2.430   1.468  0.5374 -0.2749  0.6031
16501TIP3    H170918   1.557   2.497   1.407  0.0101  0.2171  1.4040
16501TIP3    H270919   1.587   2.349   1.416 -0.2702  0.0659  0.0547
16502TIP3   OH270920   3.169   5.662   1.595  0.4048  0.1163  0.1049
16502TIP3    H170921   3.186   5.655   1.689 -0.1479 -0.3494  0.1757
16502TIP3    H270922   3.120   5.744   1.585 -1.2376 -0.7834  0.4868
16503TIP3   OH270923   5.407   4.473   0.859 -0.2580  0.7252 -0.3521
16503TIP3    H170924   5.319   4.435   0.865 -0.6596  1.6963  0.0676
16503TIP3    H270925   5.425   4.479   0.765  0.6613 -2.3453 -0.5047
16504TIP3   OH270926   0.922   0.815  13.780  0.1952  0.4928 -0.2240
16504TIP3    H170927   0.873   0.865  13.846  0.3917  0.4633 -0.0528
16504TIP3    H270928   1.010   0.852  13.783  0.0808  0.8260 -0.8243
16505TIP3   OH270929   6.419   3.388  13.390  0.7080  0.7528 -0.0567
16505TIP3    H170930   6.384   3.299  13.397  0.5688  0.8368  0.3433
16505TIP3    H270931   6.513   3.375  13.380  0.8176  0.5897  1.1224
16506TIP3   OH270932   5.096   1.630   4.118 -0.1921  0.3595 -0.1388
16506TIP3    H170933   5.097   1.645   4.023 -0.7819  0.8786 -0.0712
16506TIP3    H270934   5.030   1.562   4.130  0.3798 -0.2053 -0.1629
16507TIP3   OH270935   1.899   1.967  13.895  0.2454 -0.3430  0.1775
16507TIP3    H170936   1.969   1.993  13.954 -0.0057  0.6740  0.0554
16507TIP3    H270937   1.819   1.980  13.946  0.0348  0.4380 -0.3254
16508TIP3   OH270938   5.308   4.414  11.822  0.0400  0.1205  0.7333
16508TIP3    H170939   5.292   4.334  11.873  0.6269 -0.3342  0.2206
16508TIP3    H270940   5.384   4.393  11.768 -0.6830  0.5210 -0.4736
16509TIP3   OH270941   5.441   2.561   3.542 -0.2185 -0.2868 -0.6611
16509TIP3    H170942   5.516   2.535   3.488 -0.4523 -0.5097 -0.8791
16509TIP3    H270943   5.382   2.486   3.540  0.6585 -1.1423  1.5672
16510TIP3   OH270944   0.314   6.252  12.996  0.6204 -0.7181 -0.0042
16510TIP3    H170945   0.399   6.232  12.955  0.3172 -0.6345 -0.6836
16510TIP3    H270946   0.336   6.314  13.066  1.0267 -0.0615 -0.6991
16511TIP3   OH270947   0.241   5.979  12.180 -0.3102  0.4134  0.0874
16511TIP3    H170948   0.303   5.986  12.253 -0.8837 -0.1645  0.6471
16511TIP3    H270949   0.296   5.975  12.102  0.4179 -1.1582  0.6454
16512TIP3   OH270950   5.427   2.024  12.316  0.4808 -0.0377  0.1699
16512TIP3    H170951   5.426   2.101  12.260 -0.4986 -1.0059 -1.2031
16512TIP3    H270952   5.336   1.996  12.321  0.7614 -0.8793  0.9900
16513TIP3   OH270953   1.012   5.237   4.394  0.1788 -0.6529 -0.0894
16513TIP3    H170954   0.934   5.287   4.371  0.0232 -0.2154  1.3272
16513TIP3    H270955   1.075   5.303   4.424 -0.0803 -1.2632  1.9571
16514TIP3   OH270956   3.130   5.968   5.099  0.0220 -0.0337 -0.2503
16514TIP3    H170957   3.116   6.062   5.083  2.5051  0.2215 -1.3291
16514TIP3    H270958   3.084   5.925   5.027 -0.5307  0.3859 -0.1577
16515TIP3   OH270959   0.923   2.350  12.810 -0.3666 -0.6134  0.4402
16515TIP3    H170960   0.939   2.441  12.784 -0.4855 -0.4156  1.0337
16515TIP3    H270961   0.827   2.343  12.815 -0.3466 -0.6469  0.8093
16516TIP3   OH270962   1.413   1.545   0.739 -0.4284  0.1873  0.3779
16516TIP3    H170963   1.448   1.587   0.817 -0.9535 -1.1831  1.3841
16516TIP3    H270964   1.486   1.494   0.704 -0.0175  1.2675 -0.4039
16517TIP3   OH270965   3.017   3.490  15.472 -0.0581 -0.0493 -0.6962
16517TIP3    H170966   3.085   3.451  15.528 -0.1336 -1.4883 -1.5590
16517TIP3    H270967   2.935   3.470  15.516 -0.0292  0.2387 -0.5057
16518TIP3   OH270968   5.245   3.964  14.463  0.1042  0.5285 -0.0950
16518TIP3    H170969   5.318   4.026  14.465 -0.8199  1.6350  0.3328
16518TIP3    H270970   5.180   4.002  14.522 -0.0740 -1.3907  1.0536
16519TIP3   OH270971   4.491   3.440  15.929 -0.3793  0.3207  0.2760
16519TIP3    H170972   4.557   3.394  15.981  0.1890  1.3092  0.4470
16519TIP3    H270973   4.508   3.533  15.944  1.0354  0.7648 -3.0808
16520TIP3   OH270974   4.362   5.048   4.956 -0.4803  0.5607 -0.5825
16520TIP3    H170975   4.321   5.130   4.983  0.6175  0.9454  0.0059
16520TIP3    H270976   4.293   4.983   4.963 -1.3154  1.3960 -0.8608
16521TIP3   OH270977   3.795   2.865   1.071 -0.0789  0.0754  0.3909
16521TIP3    H170978   3.716   2.867   1.017  1.6095 -0.8414 -2.3424
16521TIP3    H270979   3.865   2.892   1.012  2.0949 -2.0263  1.7979
16522TIP3   OH270980   0.082   6.703  14.350 -0.2935  0.0220  0.2567
16522TIP3    H170981   0.057   6.614  14.376 -0.2615  0.6356  2.5680
16522TIP3    H270982   0.178   6.702  14.351 -0.2334 -0.3660 -1.5484
16523TIP3   OH270983   5.848   0.252  13.079  0.1785  0.5287 -0.0800
16523TIP3    H170984   5.760   0.267  13.113 -1.1545  1.4563 -3.5548
16523TIP3    H270985   5.869   0.162  13.103 -2.8980 -0.6673 -1.4509
16524TIP3   OH270986   5.832   3.686   0.465 -0.1236 -0.1050  0.1147
16524TIP3    H170987   5.876   3.617   0.415 -1.1058 -1.4785  1.0771
16524TIP3    H270988   5.902   3.746   0.491  0.7672 -0.7985 -0.6212
16525TIP3   OH270989   4.607   6.673  13.492  0.2362 -0.3593  0.5895
16525TIP3    H170990   4.614   6.760  13.530 -1.8139  0.6555 -1.0958
16525TIP3    H270991   4.602   6.614  13.567  2.0968  0.8837  1.7687
16526TIP3   OH270992   5.296   3.079  12.349  0.0162 -0.2241 -0.0804
16526TIP3    H170993   5.312   3.156  12.294 -0.7226  0.0171  0.0412
16526TIP3    H270994   5.248   3.112  12.425 -1.0123 -0.9207 -0.4076
16527TIP3   OH270995   2.769   2.304  12.513 -0.2736  0.5372 -0.0880
16527TIP3    H170996   2.790   2.312  12.420 -0.0757  0.9110 -0.0149
16527TIP3    H270997   2.683   2.263  12.515  0.4200 -0.9983 -0.3970
16528TIP3   OH270998   1.975   2.208   1.872 -0.5478 -0.9374 -0.2351
16528TIP3    H170999   1.969   2.176   1.962  0.6063  1.1402  0.6653
16528TIP3    H271000   2.067   2.193   1.847 -0.3602  0.2114 -0.3203
16529TIP3   OH271001   6.317   1.725  16.435  0.2873  0.4134  0.9997
16529TIP3    H171002   6.332   1.733  16.529  2.4392  0.2861  0.7063
16529TIP3    H271003   6.360   1.802  16.397  0.8173 -0.3540  0.0004
16530TIP3   OH271004   5.057   6.413  11.204  0.5049  0.0030  0.0268
16530TIP3    H171005   5.029   6.367  11.283  0.7914 -1.0208 -0.4443
16530TIP3    H271006   4.977   6.418  11.150  0.9831 -2.2704 -1.0065
16531TIP3   OH271007   2.202   0.042   2.076 -0.3465 -0.4278 -0.7012
16531TIP3    H171008   2.150   0.118   2.101 -0.9260 -0.5258 -1.5634
16531TIP3    H271009   2.256   0.073   2.003 -1.0012 -0.9716 -1.4404
16532TIP3   OH271010   0.865   2.079  11.443 -0.4348 -0.4490  0.6442
16532TIP3    H171011   0.950   2.122  11.443 -0.3602 -0.5573  1.7721
16532TIP3    H271012   0.825   2.103  11.359  0.6035 -0.2089  0.2125
16533TIP3   OH271013   2.623   0.110  11.918 -0.2019 -0.3871 -0.3303
16533TIP3    H171014   2.635   0.107  12.013 -0.4856 -0.5979 -0.2990
16533TIP3    H271015   2.712   0.108  11.883 -0.0958 -0.3211 -0.0687
16534TIP3   OH271016   5.020   5.924   0.989 -0.0114  0.2569  1.2238
16534TIP3    H171017   5.035   5.877   1.071  2.4651 -1.6706 -0.1953
16534TIP3    H271018   5.012   5.856   0.922 -2.4933  1.7382 -0.1658
16535TIP3   OH271019   0.914   0.512   3.109 -0.4376  0.3769  0.8954
16535TIP3    H171020   0.915   0.454   3.185 -0.3094 -1.2559 -0.3042
16535TIP3    H271021   0.824   0.508   3.076  0.1967 -1.3759 -0.7918
16536TIP3   OH271022   2.313   3.872  15.170  0.2074  0.0253  0.0285
16536TIP3    H171023   2.241   3.809  15.162  0.0359  0.3328 -0.9656
16536TIP3    H271024   2.347   3.881  15.081  0.5473  0.9789  0.2483
16537TIP3   OH271025   5.721   6.669  16.110  0.0174  0.1791 -0.1818
16537TIP3    H171026   5.721   6.672  16.014  0.2585  1.1030 -0.1646
16537TIP3    H271027   5.641   6.715  16.135 -1.7266 -2.7267  0.0476
16538TIP3   OH271028   5.970   6.733   4.497  0.3196  0.1391  0.2299
16538TIP3    H171029   5.921   6.800   4.450  0.8655 -0.0313 -0.6213
16538TIP3    H271030   6.060   6.741   4.463  0.7021 -0.0843  1.1540
16539TIP3   OH271031   5.579   6.248   4.760 -0.4333  0.3141  0.3451
16539TIP3    H171032   5.568   6.340   4.782  1.7281  0.9665 -1.0149
16539TIP3    H271033   5.506   6.227   4.702 -0.3139  1.5334 -0.2663
16540TIP3   OH271034   1.045   0.092   1.114 -0.7600  0.5232 -0.3223
16540TIP3    H171035   1.011   0.153   1.049 -0.8154  0.1342 -0.6636
16540TIP3    H271036   1.018   0.128   1.198 -1.5571  0.4999 -0.5661
16541TIP3   OH271037   1.234   2.281   4.743  0.4978 -0.5953  0.0575
16541TIP3    H171038   1.291   2.356   4.722  1.0333 -0.9764  0.1320
16541TIP3    H271039   1.145   2.317   4.738  0.5655 -0.6318 -2.7783
16542TIP3   OH271040   6.631   2.377   0.541 -0.7605 -0.1182 -0.0042
16542TIP3    H171041   6.693   2.423   0.484 -0.1485  0.1088  0.8330
16542TIP3    H271042   6.628   2.429   0.621 -1.1592 -0.7562  0.4028
16543TIP3   OH271043   1.551   5.185  14.161 -0.0352 -0.1054  0.0897
16543TIP3    H171044   1.573   5.153  14.248 -2.3649 -1.8370  0.1259
16543TIP3    H271045   1.605   5.133  14.102 -0.4172 -0.8862  0.4050
16544TIP3   OH271046   2.175   4.663  16.057 -0.2639 -0.5032 -0.1119
16544TIP3    H171047   2.211   4.709  16.132 -1.4453  0.5537 -0.1594
16544TIP3    H271048   2.122   4.729  16.012  1.0407 -0.8574 -2.3403
16545TIP3   OH271049   1.695   5.864   2.682  0.4387 -0.1024 -0.2370
16545TIP3    H171050   1.756   5.805   2.637  1.0903  0.6275 -0.3380
16545TIP3    H271051   1.626   5.880   2.617  0.4315 -0.4709 -0.3284
16546TIP3   OH271052   3.416   6.635   3.414  0.0626 -0.2813 -0.6144
16546TIP3    H171053   3.335   6.685   3.415 -0.3863 -0.9565  1.4884
16546TIP3    H271054   3.393   6.551   3.374  0.5509  0.6367 -3.0449
16547TIP3   OH271055   1.297   2.061   3.375 -0.7917 -0.1977  0.0487
16547TIP3    H171056   1.279   1.968   3.392  0.6586 -0.2550  1.5934
16547TIP3    H271057   1.336   2.063   3.288 -0.0543 -1.1528  0.3448
16548TIP3   OH271058   4.461   0.170  15.798 -0.0182 -0.1500  0.3002
16548TIP3    H171059   4.464   0.220  15.880  0.1752  1.4953 -0.6656
16548TIP3    H271060   4.538   0.201  15.749  0.1279 -1.4571 -0.3191
16549TIP3   OH271061   5.393   6.740  15.278 -0.0519 -0.8588  0.2628
16549TIP3    H171062   5.335   6.726  15.352 -0.4043  0.0843  0.1732
16549TIP3    H271063   5.340   6.785  15.213  0.2450 -1.7129 -0.5834
16550TIP3   OH271064   4.732   0.844  10.869  0.0835 -0.1641  0.3226
16550TIP3    H171065   4.765   0.926  10.905  0.7001 -0.9189  1.5231
16550TIP3    H271066   4.673   0.871  10.798 -0.2309  1.3284  1.1124
16551TIP3   OH271067   4.772   4.534  17.176 -0.3167 -0.1020  0.3430
16551TIP3    H171068   4.735   4.562  17.259 -0.7280  0.2951  0.0236
16551TIP3    H271069   4.777   4.439  17.183  2.0116  0.0295  1.8278
16552TIP3   OH271070   1.772   3.598  15.965 -0.7282  0.0720  0.1480
16552TIP3    H171071   1.734   3.514  15.991 -1.5745  0.2532 -0.4798
16552TIP3    H271072   1.730   3.662  16.024  0.7432 -0.0521  1.3960
16553TIP3   OH271073   0.471   0.382  14.481  0.2225  0.0159  0.5192
16553TIP3    H171074   0.404   0.322  14.513  0.7988  0.5415  2.8668
16553TIP3    H271075   0.443   0.403  14.392 -1.1398 -2.0260  0.3969
16554TIP3   OH271076   4.957   4.293  15.061 -0.3350  0.0327  0.1134
16554TIP3    H171077   4.920   4.285  14.974  2.5358 -1.8379 -1.0955
16554TIP3    H271078   4.905   4.233  15.115 -0.4387 -0.9114 -1.0014
16555TIP3   OH271079   6.092   2.746  15.289  0.0637 -0.3853  0.3066
16555TIP3    H171080   6.075   2.749  15.384  1.0912 -1.4980  0.5611
16555TIP3    H271081   6.073   2.655  15.265  1.2646 -0.5136 -0.2320
16556TIP3   OH271082   0.644   1.331   6.117  0.0197 -0.1136 -0.5375
16556TIP3    H171083   0.715   1.395   6.119 -2.2571  2.5897  0.2316
16556TIP3    H271084   0.642   1.299   6.026  0.8825  1.3837 -1.1137
16557TIP3   OH271085   0.833   3.489  14.003  0.3136 -0.5247 -0.9319
16557TIP3    H171086   0.914   3.441  13.989 -0.1186 -1.6176  0.1399
16557TIP3    H271087   0.842   3.526  14.091 -0.2913 -0.5519 -0.8508
16558TIP3   OH271088   1.699   4.686  12.709  0.0596  0.5063 -0.2073
16558TIP3    H171089   1.779   4.641  12.732 -1.3929 -1.8304  0.5792
16558TIP3    H271090   1.659   4.710  12.793 -0.3223  1.1776 -0.5678
16559TIP3   OH271091   0.786   1.762   0.448 -0.1257  0.6064 -0.4694
16559TIP3    H171092   0.866   1.738   0.495 -1.0984 -0.7880  0.5462
16559TIP3    H271093   0.803   1.739   0.357  0.6555  0.3895 -0.2753
16560TIP3   OH271094   2.804   0.129  13.060  0.5551 -0.1152 -0.4582
16560TIP3    H171095   2.831   0.167  13.143 -0.9178 -1.2370  0.5718
16560TIP3    H271096   2.793   0.205  13.002 -1.6466  1.0819  1.3504
16561TIP3   OH271097   5.326   1.154   3.370  0.6241  0.0404  0.0714
16561TIP3    H171098   5.360   1.174   3.283  0.4737 -0.9643 -0.2345
16561TIP3    H271099   5.314   1.240   3.412 -1.2202  0.6959 -1.6242
16562TIP3   OH271100   2.635   2.295  16.088  0.2117 -0.0572 -0.2102
16562TIP3    H171101   2.636   2.297  15.992 -1.8851 -0.7947 -0.2990
16562TIP3    H271102   2.692   2.221  16.111 -1.1291 -1.4027 -1.0255
16563TIP3   OH271103   1.488   5.940  16.825 -0.5680 -0.0114  0.3732
16563TIP3    H171104   1.508   5.921  16.733 -0.4235  0.9119  0.2088
16563TIP3    H271105   1.564   5.987  16.858 -1.5127  1.5898  0.3516
16564TIP3   OH271106   2.468   4.005   4.280 -0.1875  0.1902 -0.3440
16564TIP3    H171107   2.439   3.920   4.249  1.4032  0.0447 -1.5754
16564TIP3    H271108   2.485   4.055   4.200 -1.4397  1.8315  0.3359
16565TIP3   OH271109   1.488   5.672  14.558  0.0150  0.1477  0.1856
16565TIP3    H171110   1.466   5.604  14.494 -0.1764  1.8802 -1.6857
16565TIP3    H271111   1.432   5.746  14.534  0.8230  1.2610  1.6220
16566TIP3   OH271112   1.022   2.084  13.916 -0.2331 -0.2352 -0.6774
16566TIP3    H171113   1.061   2.159  13.871  0.1878  0.3119  0.5493
16566TIP3    H271114   1.097   2.027  13.938 -0.1027  0.6225  1.3274
16567TIP3   OH271115   2.198   3.361  16.364  0.2069  0.4695  0.5548
16567TIP3    H171116   2.250   3.335  16.439  1.5526  0.9310 -0.1926
16567TIP3    H271117   2.114   3.317  16.377  0.7481 -0.2424  1.8139
16568TIP3   OH271118   0.811   5.421  13.578  0.1079  0.2115  0.2552
16568TIP3    H171119   0.721   5.423  13.545  0.0265 -0.3522  0.4340
16568TIP3    H271120   0.852   5.498  13.538 -0.1556 -0.1255 -0.6816
16569TIP3   OH271121   4.448   0.341  16.726  0.4111  0.2930 -0.0005
16569TIP3    H171122   4.475   0.258  16.688 -0.1034  0.0398  0.1754
16569TIP3    H271123   4.435   0.323  16.819 -0.1820  0.4422 -0.0489
16570TIP3   OH271124   2.608   1.059  16.572  0.0875 -0.5230  0.4121
16570TIP3    H171125   2.521   1.026  16.550 -0.8729  1.3037  1.2456
16570TIP3    H271126   2.605   1.152  16.551  1.9694 -0.4762  0.1545
16571TIP3   OH271127   2.588   4.248   0.933 -0.0091  0.1236  0.1575
16571TIP3    H171128   2.614   4.157   0.914  0.1889  0.0551  0.7626
16571TIP3    H271129   2.635   4.300   0.868  0.0197 -0.1905 -0.0768
16572TIP3   OH271130   2.812   2.661  11.550 -0.3864 -0.1870 -0.2158
16572TIP3    H171131   2.738   2.608  11.582 -2.0330  1.1807 -1.5508
16572TIP3    H271132   2.792   2.750  11.580  0.7771  0.2057 -0.5577
16573TIP3   OH271133   5.141   6.530  16.856  0.0327 -0.7569 -0.4168
16573TIP3    H171134   5.058   6.543  16.901  0.2904  0.8770 -0.3315
16573TIP3    H271135   5.192   6.475  16.915  0.5134  1.6754  1.5999
16574TIP3   OH271136   5.953   2.466  16.682  0.2798 -0.1467  0.2020
16574TIP3    H171137   5.980   2.523  16.754  0.8115  0.6092 -0.5782
16574TIP3    H271138   5.933   2.526  16.610  1.2493 -0.9494 -0.7740
16575TIP3   OH271139   6.744   3.454  12.392  0.7784 -0.5562  0.2131
16575TIP3    H171140   6.689   3.384  12.357  0.6383  0.0685 -0.8727
16575TIP3    H271141   6.791   3.488  12.316  1.7442 -0.2601  0.9253
16576TIP3   OH271142   3.542   0.570   4.133  0.0079  0.2191  0.6453
16576TIP3    H171143   3.474   0.529   4.187  0.6188 -0.0363  1.2413
16576TIP3    H271144   3.581   0.497   4.085 -2.8929  0.7834 -3.0152
16577TIP3   OH271145   2.940   4.026  15.482  0.5084  0.3284  0.2938
16577TIP3    H171146   3.011   3.961  15.475  0.0422 -0.0736 -1.0060
16577TIP3    H271147   2.982   4.104  15.518  1.4951 -0.0878  0.0771
16578TIP3   OH271148   6.722   1.975   2.469 -0.7004  0.0546 -0.0983
16578TIP3    H171149   6.710   2.000   2.377 -0.2137  0.3350 -0.0886
16578TIP3    H271150   6.634   1.972   2.505 -0.8800  0.1434 -0.5229
16579TIP3   OH271151   6.234   3.589  16.669 -0.7356  0.3753 -0.9191
16579TIP3    H171152   6.280   3.507  16.651 -0.6351  0.0550  0.6447
16579TIP3    H271153   6.162   3.564  16.726  0.2479  1.5477  0.9430
16580TIP3   OH271154   0.359   0.805   3.639 -0.0526 -0.2521 -0.0206
16580TIP3    H171155   0.343   0.794   3.732  1.4617  0.6395  0.3777
16580TIP3    H271156   0.272   0.799   3.599 -0.5664 -2.1176  1.2619
16581TIP3   OH271157   5.982   4.030  13.290 -0.0801  0.4748  0.7801
16581TIP3    H171158   5.911   4.047  13.352  0.5211  2.0594  1.0627
16581TIP3    H271159   5.942   4.043  13.204 -0.3261  0.6099  0.9144
16582TIP3   OH271160   0.779   3.332  13.610 -0.1563 -0.6812 -0.1110
16582TIP3    H171161   0.800   3.425  13.625 -0.4727 -0.6958  0.4144
16582TIP3    H271162   0.782   3.323  13.514 -0.2047 -0.1086 -0.1709
16583TIP3   OH271163   4.782   4.746   4.260  0.2582  0.2340  0.3449
16583TIP3    H171164   4.832   4.826   4.246  1.4274 -0.6690 -0.8667
16583TIP3    H271165   4.698   4.762   4.217  0.8860  0.4267 -0.8404
16584TIP3   OH271166   6.736   5.785  13.778  0.5408  0.3340 -0.4551
16584TIP3    H171167   6.699   5.841  13.846  1.2817 -1.7264  1.8061
16584TIP3    H271168   6.785   5.718  13.826 -0.2088 -2.2117 -2.9596
16585TIP3   OH271169   0.146   0.677   2.794 -0.1982 -0.0105 -0.4888
16585TIP3    H171170   0.109   0.718   2.715  0.9758  0.7255 -0.6841
16585TIP3    H271171   0.116   0.734   2.865 -1.7144 -0.9799 -0.3047
16586TIP3   OH271172   4.331   4.225  16.392  0.4418  0.0895 -0.3567
16586TIP3    H171173   4.371   4.166  16.456  0.1487 -0.0185 -0.2715
16586TIP3    H271174   4.343   4.313  16.430 -0.1452 -0.0095  0.0790
16587TIP3   OH271175   2.222   5.047  16.499  0.0179  0.2937  0.6868
16587TIP3    H171176   2.219   4.958  16.465 -1.9340  0.7542 -0.5161
16587TIP3    H271177   2.312   5.076  16.482  0.2303 -0.8985 -0.3908
16588TIP3   OH271178   1.611   0.980   4.689 -0.1394 -0.1510  0.5759
16588TIP3    H171179   1.704   0.980   4.710  0.2646  0.8962 -1.0212
16588TIP3    H271180   1.594   0.895   4.648  1.1227  1.0639 -2.8551
16589TIP3   OH271181   6.729   4.879   0.085 -0.6606 -0.0730  0.0287
16589TIP3    H171182   6.678   4.956   0.108 -1.8838 -0.3938 -1.4181
16589TIP3    H271183   6.671   4.805   0.104  0.5186 -0.6740  1.4606
16590TIP3   OH271184   0.864   6.364  16.836 -0.0932 -0.5587 -0.4723
16590TIP3    H171185   0.834   6.363  16.745 -1.5837 -0.3467 -0.0108
16590TIP3    H271186   0.800   6.311  16.883 -0.5691  1.0304  0.7869
16591TIP3   OH271187   0.469   1.139  13.297 -0.3000  0.8573 -0.1005
16591TIP3    H171188   0.381   1.102  13.303 -0.1318  0.1853 -1.5294
16591TIP3    H271189   0.460   1.212  13.236 -0.0541  1.4293  0.5307
16592TIP3   OH271190   6.131   0.161  14.181  0.6252  0.2181  0.1424
16592TIP3    H171191   6.147   0.080  14.131  0.7232  0.0399  0.4610
16592TIP3    H271192   6.145   0.136  14.272  0.0233  0.4425  0.2967
16593TIP3   OH271193   1.438   3.212   1.096  0.5882  0.2040 -0.2938
16593TIP3    H171194   1.527   3.177   1.105 -0.0399 -1.3749  0.1595
16593TIP3    H271195   1.443   3.275   1.024  2.2518  0.8010  0.3071
16594TIP3   OH271196   4.701   2.014  11.176 -0.3183  0.0356  0.0092
16594TIP3    H171197   4.770   1.960  11.138 -1.5846 -1.4760 -0.2140
16594TIP3    H271198   4.620   1.978  11.141 -1.3041  1.0896  1.1187
16595TIP3   OH271199   1.886   3.848   0.783  0.3829 -0.1130 -0.1404
16595TIP3    H171200   1.890   3.773   0.842 -0.6599 -0.5851 -0.6674
16595TIP3    H271201   1.848   3.815   0.702  0.5319  0.8355 -0.6225
16596TIP3   OH271202   0.843   5.350   4.611 -0.0951 -0.1892 -0.0104
16596TIP3    H171203   0.766   5.343   4.667 -0.7789  2.1855 -0.5312
16596TIP3    H271204   0.809   5.341   4.522 -0.3247  3.4340 -0.4192
16597TIP3   OH271205   3.205   2.237  17.081 -0.2403  0.2483 -0.1312
16597TIP3    H171206   3.254   2.251  17.000 -0.1709  0.5236 -0.0439
16597TIP3    H271207   3.190   2.325  17.115  0.3357  0.1045  0.5084
16598TIP3   OH271208   6.599   5.552  13.643  0.2788 -0.3454  0.0271
16598TIP3    H171209   6.655   5.495  13.590  0.5583  0.0807 -0.1308
16598TIP3    H271210   6.658   5.619  13.678  0.1608 -0.7821  1.1191
16599TIP3   OH271211   2.803   6.683   0.672 -0.1309 -0.3180 -0.4734
16599TIP3    H171212   2.794   6.758   0.613 -0.8266  0.6472  0.8045
16599TIP3    H271213   2.882   6.638   0.642  0.3900  1.0227 -1.1885
16600TIP3   OH271214   4.283   4.947  13.501 -0.0363  0.1917  0.0033
16600TIP3    H171215   4.323   4.862  13.484 -0.2553 -0.1944  1.3085
16600TIP3    H271216   4.206   4.950  13.446 -0.3909 -0.7489  0.4378
16601TIP3   OH271217   0.830   0.441  11.478 -0.4027 -0.0515  0.2496
16601TIP3    H171218   0.841   0.499  11.553  0.2816  0.1597  0.0024
16601TIP3    H271219   0.837   0.500  11.402  1.8758 -0.6299 -0.0593
16602TIP3   OH271220   1.998   5.364   2.241  0.2636 -0.0818  0.2805
16602TIP3    H171221   2.027   5.296   2.301 -0.8198  0.0098  0.9297
16602TIP3    H271222   1.949   5.317   2.173 -0.6368  0.0544  0.8248
16603TIP3   OH271223   1.479   1.794  12.175  0.3265 -0.3027 -0.2683
16603TIP3    H171224   1.440   1.871  12.134  2.6339  0.3202 -1.4537
16603TIP3    H271225   1.437   1.789  12.260 -1.6919  0.7678 -1.1294
16604TIP3   OH271226   2.497   1.087   0.796  0.1109  0.0622  0.1044
16604TIP3    H171227   2.439   1.096   0.721 -0.8348 -0.2926  0.7728
16604TIP3    H271228   2.569   1.148   0.778 -1.0418  1.3875 -0.2136
16605TIP3   OH271229   3.318   5.222  16.780 -0.1770  0.1234  0.3775
16605TIP3    H171230   3.269   5.203  16.860 -3.0425 -2.1265 -1.6958
16605TIP3    H271231   3.366   5.142  16.762  0.6468  0.6994 -0.0592
16606TIP3   OH271232   1.993   3.488  11.641  0.1426  0.5537 -0.4935
16606TIP3    H171233   2.056   3.441  11.586 -0.8463 -0.4862 -0.7626
16606TIP3    H271234   1.985   3.574  11.599  1.6290  0.8316 -0.2595
16607TIP3   OH271235   2.329   1.667  11.336 -0.4465  0.4200  0.8981
16607TIP3    H171236   2.346   1.661  11.242  1.7994  0.7764  1.2146
16607TIP3    H271237   2.280   1.588  11.356  0.3256 -0.4243 -0.3482
16608TIP3   OH271238   0.729   2.083  12.004  0.0323 -0.6585  0.0168
16608TIP3    H171239   0.823   2.086  12.021 -0.1513  0.8355  0.9557
16608TIP3    H271240   0.716   2.003  11.954  1.6907 -1.3096  0.5701
16609TIP3   OH271241   1.686   1.529  15.595 -0.5718 -0.3512  0.1899
16609TIP3    H171242   1.734   1.454  15.630 -0.2630 -0.0944  0.3212
16609TIP3    H271243   1.701   1.599  15.659  1.6422  0.7319 -1.3888
16610TIP3   OH271244   0.098   6.105   0.712 -1.1066  0.2068  0.1596
16610TIP3    H171245   0.079   6.020   0.674 -1.8417  0.9397 -1.1876
16610TIP3    H271246   0.193   6.113   0.706 -0.9290 -0.8908  1.1789
16611TIP3   OH271247   0.060   2.516  15.060  0.1990  1.2736 -0.3174
16611TIP3    H171248   0.089   2.574  15.131 -3.3704  1.7435  0.9726
16611TIP3    H271249   0.036   2.434  15.104  0.0024  0.7773 -1.3158
16612TIP3   OH271250   6.367   2.352   1.320  0.6177 -0.2635  0.5173
16612TIP3    H171251   6.434   2.367   1.254  1.5569 -1.9751  1.0254
16612TIP3    H271252   6.307   2.288   1.279 -0.2408  0.5957  0.3932
16613TIP3   OH271253   5.931   5.988  16.185 -0.0154 -0.7687  0.2360
16613TIP3    H171254   5.882   5.908  16.163 -1.6865 -0.0273  1.1414
16613TIP3    H271255   5.870   6.041  16.236  0.3118  2.0297 -2.0228
16614TIP3   OH271256   5.563   5.773   0.760  0.3481  0.4041 -0.0111
16614TIP3    H171257   5.541   5.819   0.680 -3.1129 -0.5845  0.1913
16614TIP3    H271258   5.650   5.736   0.744 -0.4422 -0.2912 -3.5850
16615TIP3   OH271259   0.417   6.174  11.989 -0.0177 -0.1247 -0.0028
16615TIP3    H171260   0.382   6.237  11.926 -1.5256 -0.2563  0.6598
16615TIP3    H271261   0.411   6.090  11.945  1.8258  0.1202 -0.8187
16616TIP3   OH271262   1.955   2.370   0.411 -0.1062  0.8207  0.1237
16616TIP3    H171263   2.012   2.426   0.358 -0.1662  0.1703 -0.6515
16616TIP3    H271264   2.015   2.311   0.456 -0.1039  0.8642  0.1782
16617TIP3   OH271265   4.693   4.596   3.794  0.1145 -0.0337  0.3547
16617TIP3    H171266   4.782   4.612   3.765  0.2801  0.7028  1.2242
16617TIP3    H271267   4.686   4.501   3.800  0.4285 -0.1546 -0.9402
16618TIP3   OH271268   0.578   4.701   4.685 -0.6102 -0.2936 -0.5309
16618TIP3    H171269   0.627   4.667   4.759 -1.2263 -0.0206  0.0099
16618TIP3    H271270   0.645   4.725   4.621  0.0078  0.7793  0.4901
16619TIP3   OH271271   4.094   2.533  11.448 -0.1580  0.1073  0.4686
16619TIP3    H171272   4.081   2.477  11.371 -1.2642  0.2692  0.5169
16619TIP3    H271273   4.048   2.614  11.426  1.0752  0.8694  0.5701
16620TIP3   OH271274   0.742   4.895   0.897  0.1511 -0.1029  0.1861
16620TIP3    H171275   0.678   4.966   0.907 -2.1468 -2.0425  0.0722
16620TIP3    H271276   0.739   4.848   0.980 -0.2010 -1.4904 -0.5854
16621TIP3   OH271277   1.568   3.137  11.926  0.1342  0.2344  0.0690
16621TIP3    H171278   1.483   3.119  11.967 -0.7982  0.3369 -1.6971
16621TIP3    H271279   1.633   3.114  11.992 -1.2330 -1.4299  0.9057
16622TIP3   OH271280   3.544   2.734  13.022 -0.5378 -0.3853  0.1990
16622TIP3    H171281   3.471   2.794  13.008 -1.3642 -1.6237 -1.1978
16622TIP3    H271282   3.565   2.701  12.934  0.7140 -1.1839  0.7706
16623TIP3   OH271283   2.198   0.906  12.998 -0.3304  0.0902 -0.5009
16623TIP3    H171284   2.142   0.918  12.921 -1.0448  0.9740  0.1465
16623TIP3    H271285   2.139   0.869  13.064  0.6185 -2.1734 -0.8081
16624TIP3   OH271286   5.919   2.452   4.012  0.0591 -0.2034 -0.1463
16624TIP3    H171287   5.961   2.376   4.054  0.4147  0.1719  0.1904
16624TIP3    H271288   5.875   2.498   4.084 -0.1833 -0.1085 -0.3543
16625TIP3   OH271289   2.729   2.164   1.986  0.0437 -0.1559 -0.1776
16625TIP3    H171290   2.649   2.206   2.019  0.0546 -0.0083 -0.3414
16625TIP3    H271291   2.798   2.194   2.046  0.2793  1.0728 -1.0387
16626TIP3   OH271292   3.133   6.564  11.333 -0.1949 -0.2008 -0.1985
16626TIP3    H171293   3.163   6.508  11.405  0.9488 -0.2379 -0.6852
16626TIP3    H271294   3.154   6.515  11.254  0.8629  0.8986 -0.6353
16627TIP3   OH271295   0.690   5.521  16.072 -0.0673 -0.0473  0.0971
16627TIP3    H171296   0.780   5.495  16.051 -0.8525 -0.7413 -2.8632
16627TIP3    H271297   0.644   5.438  16.085 -1.1032  0.0353 -2.5243
16628TIP3   OH271298   6.137   5.997   0.292 -0.8560 -0.0274  0.0953
16628TIP3    H171299   6.136   5.966   0.201 -0.9714  0.1900  0.0223
16628TIP3    H271300   6.217   5.960   0.329 -0.5823  0.2442 -0.2187
16629TIP3   OH271301   0.897   1.953  13.702 -0.2095 -0.1735 -0.0769
16629TIP3    H171302   0.928   2.012  13.771  0.2470  0.0680 -0.4801
16629TIP3    H271303   0.921   1.997  13.620 -0.0969 -0.7953 -0.3842
16630TIP3   OH271304   2.911   1.270  12.333  0.2299 -0.5474 -0.3343
16630TIP3    H171305   2.981   1.214  12.300  1.3392 -1.2403  2.8438
16630TIP3    H271306   2.831   1.222  12.312  0.9203 -1.4561 -1.0047
16631TIP3   OH271307   3.402   5.594  15.107 -0.4652 -0.0349 -0.1303
16631TIP3    H171308   3.314   5.561  15.126 -1.3830  1.7979 -0.9453
16631TIP3    H271309   3.429   5.547  15.028  0.0520 -1.8447  1.0599
16632TIP3   OH271310   5.332   1.402  15.505 -0.3785  0.4848 -0.3399
16632TIP3    H171311   5.272   1.359  15.443 -1.6460  0.5222  0.8044
16632TIP3    H271312   5.275   1.453  15.562  0.5034 -1.0983  2.1088
16633TIP3   OH271313   1.553   2.478   0.130  0.0901  0.4263 -0.2365
16633TIP3    H171314   1.566   2.474   0.035 -0.7188 -1.9787 -0.3095
16633TIP3    H271315   1.610   2.409   0.165 -0.6267  0.3678  0.8802
16634TIP3   OH271316   1.492   6.034  13.654 -0.5950 -0.2456 -0.4281
16634TIP3    H171317   1.418   6.091  13.676  0.0471  1.0358 -1.4448
16634TIP3    H271318   1.464   5.989  13.574  0.4443  1.8242 -2.0698
16635TIP3   OH271319   5.197   6.104   4.122 -0.2913 -0.1259 -0.3520
16635TIP3    H171320   5.256   6.077   4.052  0.8607  1.1109  0.1034
16635TIP3    H271321   5.112   6.116   4.080  0.2528  0.0486 -1.4208
16636TIP3   OH271322   1.578   0.498   0.830 -0.4485  0.1620 -0.5245
16636TIP3    H171323   1.654   0.442   0.809 -2.5452 -3.0340 -0.2693
16636TIP3    H271324   1.602   0.539   0.913  1.1883 -0.3807 -0.6717
16637TIP3   OH271325   5.719   2.476  12.386 -0.5464 -1.0669 -0.4674
16637TIP3    H171326   5.625   2.462  12.377 -0.3881 -2.0955 -0.6873
16637TIP3    H271327   5.728   2.537  12.459 -1.3402 -1.9882  0.4355
16638TIP3   OH271328   5.408   3.532   0.074 -0.3710  0.3429  0.4481
16638TIP3    H171329   5.429   3.554   0.165 -0.1512  2.0592  0.0154
16638TIP3    H271330   5.357   3.606   0.043 -0.9663 -0.5049 -0.6725
16639TIP3   OH271331   2.742   2.980   2.395 -0.0997 -0.3239 -0.1955
16639TIP3    H171332   2.713   2.920   2.327  0.9799  0.5674 -1.5048
16639TIP3    H271333   2.668   3.039   2.409 -1.4051 -2.2499  1.5561
16640TIP3   OH271334   4.715   0.690  13.790 -0.3371 -0.1168  0.0709
16640TIP3    H171335   4.651   0.735  13.735 -0.1411 -0.7305 -0.6790
16640TIP3    H271336   4.693   0.716  13.879  0.2170  2.0566 -0.3601
16641TIP3   OH271337   2.912   1.500  12.678  0.2614  0.1066 -0.1642
16641TIP3    H171338   2.875   1.551  12.751  0.5733  0.1414 -0.0275
16641TIP3    H271339   3.000   1.535  12.667  0.3771 -0.2127 -0.2590
16642TIP3   OH271340   4.302   1.265   4.496  0.3712  0.0099  0.7653
16642TIP3    H171341   4.379   1.291   4.446 -0.6354 -0.6796 -1.2347
16642TIP3    H271342   4.297   1.170   4.484 -1.0932  0.1147  0.3812
16643TIP3   OH271343   1.307   2.559  11.092 -0.5691  0.0868 -0.7261
16643TIP3    H171344   1.387   2.576  11.043  0.5880 -0.0911  1.0128
16643TIP3    H271345   1.274   2.646  11.116  0.5089  0.1448  0.6644
16644TIP3   OH271346   2.288   2.392  12.405 -0.2392 -0.3104  0.2955
16644TIP3    H171347   2.245   2.452  12.345  0.0892  0.2074  0.5750
16644TIP3    H271348   2.232   2.392  12.483  0.8217  1.2154  1.0925
16645TIP3   OH271349   5.305   1.209  12.416  0.7151  0.8936  0.1736
16645TIP3    H171350   5.323   1.167  12.332 -2.4661  1.5100 -0.9349
16645TIP3    H271351   5.314   1.302  12.398 -1.3918  1.1092  0.0675
16646TIP3   OH271352   4.236   5.295  16.428  0.1186  0.1270  0.5887
16646TIP3    H171353   4.291   5.371  16.410  0.0392  0.0280 -0.0955
16646TIP3    H271354   4.148   5.322  16.399 -0.0230 -0.0224  0.8775
16647TIP3   OH271355   1.725   1.659  17.100 -0.5583  0.3951  0.0512
16647TIP3    H171356   1.638   1.684  17.130  0.1794  2.2803  0.7500
16647TIP3    H271357   1.759   1.603  17.170 -0.4824  1.2649  0.7269
16648TIP3   OH271358   5.386   5.180   4.911 -0.3276 -0.6846  0.1731
16648TIP3    H171359   5.453   5.171   4.980  1.3046  0.5672 -1.1644
16648TIP3    H271360   5.306   5.149   4.952  1.3035 -3.8616  1.3971
16649TIP3   OH271361   5.266   0.601   4.824 -0.2364 -0.1133  0.4400
16649TIP3    H171362   5.259   0.508   4.803 -1.2365 -0.3906  1.8428
16649TIP3    H271363   5.236   0.645   4.745  1.2811 -0.9223 -0.6353
16650TIP3   OH271364   2.506   6.624  15.250  0.0380  0.0164 -0.0084
16650TIP3    H171365   2.506   6.614  15.345  0.8495  1.6549  0.1921
16650TIP3    H271366   2.416   6.644  15.227  0.0749  0.8975  0.5843
16651TIP3   OH271367   4.789   0.072  16.798  0.3533  0.1584 -0.2047
16651TIP3    H171368   4.851   0.145  16.808  0.3468  0.2871 -1.0818
16651TIP3    H271369   4.796   0.024  16.881  2.9139 -0.8257 -0.8991
16652TIP3   OH271370   6.670   1.547   6.384  0.4143  0.2758  0.2310
16652TIP3    H171371   6.762   1.551   6.357  0.6306  0.1158  0.9171
16652TIP3    H271372   6.661   1.616   6.450  0.1581  0.0025  0.4865
16653TIP3   OH271373   4.270   6.646  11.425  0.0643 -0.2834 -0.0391
16653TIP3    H171374   4.324   6.596  11.364  0.2580  1.6793 -1.5719
16653TIP3    H271375   4.282   6.737  11.398 -1.1298  0.5097  1.9421
16654TIP3   OH271376   0.928   2.239  12.223 -0.1625  0.5579 -0.0320
16654TIP3    H171377   0.971   2.187  12.155 -1.0241  1.4546 -1.3152
16654TIP3    H271378   0.998   2.264  12.282  1.0615  1.6568 -1.8561
16655TIP3   OH271379   4.316   6.490  16.905 -0.1778 -0.9067 -0.3209
16655TIP3    H171380   4.239   6.547  16.908  0.4061 -0.1019  1.8860
16655TIP3    H271381   4.390   6.551  16.906  0.6046 -1.6132 -3.4836
16656TIP3   OH271382   6.513   4.273   0.713  0.4318  0.2775  0.2217
16656TIP3    H171383   6.432   4.221   0.720  1.0858 -0.9021 -0.5875
16656TIP3    H271384   6.553   4.267   0.799  0.0270  0.2142  0.4070
16657TIP3   OH271385   0.787   3.435   2.725 -0.2988 -0.2613  0.4196
16657TIP3    H171386   0.755   3.383   2.799  1.3657 -1.9824  0.0047
16657TIP3    H271387   0.709   3.457   2.675 -1.1703 -1.3488  1.2627
16658TIP3   OH271388   0.687   2.651  15.016 -0.1693  0.0007  0.2640
16658TIP3    H171389   0.616   2.597  15.051  0.0646 -0.2821  0.3095
16658TIP3    H271390   0.669   2.657  14.922 -0.4585  0.2422  0.3349
16659TIP3   OH271391   0.101   0.186  16.286  0.2891 -0.4326  0.3242
16659TIP3    H171392   0.008   0.205  16.287 -0.2801 -2.3104 -2.6256
16659TIP3    H271393   0.143   0.270  16.308 -2.0777  1.3983 -1.4866
16660TIP3   OH271394   1.040   5.802  15.522  0.4726  0.1633 -0.2726
16660TIP3    H171395   0.965   5.854  15.552  0.6657  0.5596 -0.4613
16660TIP3    H271396   1.006   5.713  15.516  0.6829 -0.1424  2.0880
16661TIP3   OH271397   3.987   2.732   0.243 -0.5636 -0.1223  0.3538
16661TIP3    H171398   3.914   2.726   0.304  0.5914  2.1509  2.1378
16661TIP3    H271399   3.965   2.807   0.187 -0.3000 -0.3831 -0.1047
16662TIP3   OH271400   5.256   0.720  12.227  0.3351 -0.5110 -0.4459
16662TIP3    H171401   5.209   0.765  12.297  1.6686 -0.4783  0.4541
16662TIP3    H271402   5.227   0.629  12.234  0.3454 -0.4773  0.0482
16663TIP3   OH271403   2.020   1.562  16.451 -0.3697  0.3191 -0.1648
16663TIP3    H171404   2.086   1.580  16.384 -0.9983 -0.8240 -1.1287
16663TIP3    H271405   1.986   1.648  16.475  1.2618  0.9230  0.1743
16664TIP3   OH271406   2.320   5.230   4.178 -0.0149  0.1470  0.3241
16664TIP3    H171407   2.318   5.307   4.122  0.1454  0.2822  0.5051
16664TIP3    H271408   2.395   5.244   4.236  1.2038 -1.0123 -0.8892
16665TIP3   OH271409   4.984   6.673   4.085  0.2873 -0.3055  0.1332
16665TIP3    H171410   5.005   6.623   4.006  0.1622  0.3830 -0.3368
16665TIP3    H271411   4.923   6.741   4.056  0.3621  0.0519  0.7924
16666TIP3   OH271412   3.375   1.317  12.647  0.1668 -0.1818 -0.1001
16666TIP3    H171413   3.338   1.402  12.623 -0.3538 -0.3836 -0.0068
16666TIP3    H271414   3.408   1.281  12.565  1.1647  0.4813 -0.0077
16667TIP3   OH271415   0.862   0.306  17.098  0.0369  0.6095  0.1898
16667TIP3    H171416   0.891   0.365  17.168 -0.0435  0.3530  0.4368
16667TIP3    H271417   0.816   0.364  17.037  2.4711  1.3556 -1.0642
16668TIP3   OH271418   2.336   5.597  11.102 -0.0030  0.6431 -0.0177
16668TIP3    H171419   2.287   5.679  11.111  0.1801  0.6492  1.1511
16668TIP3    H271420   2.370   5.599  11.013 -1.3806  1.0513 -0.5526
16669TIP3   OH271421   3.642   1.732   6.353 -0.0630 -0.1668 -0.3608
16669TIP3    H171422   3.626   1.710   6.445 -1.3839 -0.7698 -0.7223
16669TIP3    H271423   3.635   1.649   6.306  0.5851  0.1362 -1.0241
16670TIP3   OH271424   3.307   0.039  15.594 -0.0848  0.9354  0.1436
16670TIP3    H171425   3.307   0.071  15.503 -0.4454  1.6854  0.3985
16670TIP3    H271426   3.351   0.108  15.643 -0.9493  1.0884  0.7239
16671TIP3   OH271427   5.629   1.854   3.792  0.2838  0.5748 -0.2091
16671TIP3    H171428   5.668   1.768   3.777 -0.2526 -0.0339  1.6218
16671TIP3    H271429   5.535   1.841   3.780 -0.0096  0.3963  1.9536
16672TIP3   OH271430   2.600   6.061  14.762  0.2367  0.4148  0.5101
16672TIP3    H171431   2.649   6.141  14.775  0.1261  0.2098  2.6248
16672TIP3    H271432   2.614   6.038  14.670  3.0985  0.9837  0.7181
16673TIP3   OH271433   2.726   4.452  11.537 -0.2200 -0.0761 -0.2799
16673TIP3    H171434   2.786   4.494  11.475  0.9483  1.9565  2.0744
16673TIP3    H271435   2.648   4.434  11.485  0.0896  2.9162 -2.0560
16674TIP3   OH271436   6.060   1.192   2.240 -0.3723  0.5550  0.2330
16674TIP3    H171437   6.014   1.265   2.281 -0.2927  1.3930 -1.0861
16674TIP3    H271438   6.029   1.193   2.149  1.8040  0.8092 -0.5658
16675TIP3   OH271439   3.110   0.899   1.896  0.1123 -0.0738  0.0383
16675TIP3    H171440   3.075   0.815   1.865 -0.6736  0.0604  0.5359
16675TIP3    H271441   3.186   0.915   1.840  1.8856 -2.3874  1.6264
16676TIP3   OH271442   6.162   0.903   0.536 -0.1360  0.2972  0.1911
16676TIP3    H171443   6.166   0.855   0.454  0.5388  1.5495 -0.5404
16676TIP3    H271444   6.112   0.846   0.595 -0.4772 -0.6979 -1.0175
16677TIP3   OH271445   0.307   5.156  15.411 -0.0458  0.0369 -0.3633
16677TIP3    H171446   0.381   5.204  15.448 -0.2785  0.2666 -0.1912
16677TIP3    H271447   0.338   5.066  15.404 -0.1289 -0.0999  0.7805
16678TIP3   OH271448   1.984   0.726  15.227  0.1627  0.4143  0.2798
16678TIP3    H171449   1.947   0.783  15.294 -2.1005 -0.6047 -0.0242
16678TIP3    H271450   2.041   0.783  15.175  0.5467  1.6099  1.9484
16679TIP3   OH271451   3.926   4.512  13.978  0.5308 -0.1536  0.3290
16679TIP3    H171452   3.881   4.491  13.896 -0.7955 -0.3852  1.0766
16679TIP3    H271453   3.857   4.549  14.033  1.3260 -0.3069  1.4545
16680TIP3   OH271454   3.001   5.705   3.782  0.0957  0.2525 -0.2262
16680TIP3    H171455   2.978   5.667   3.867  3.2762  0.5020  0.8952
16680TIP3    H271456   2.987   5.799   3.793 -0.9839  0.1418 -0.5533
16681TIP3   OH271457   5.915   5.405   0.404 -0.1255  0.0327 -0.1244
16681TIP3    H171458   5.919   5.474   0.338  2.2152 -1.2629 -1.4856
16681TIP3    H271459   5.985   5.425   0.465  2.8189 -2.5781 -2.2856
16682TIP3   OH271460   4.257   0.175   4.318 -0.5542 -0.6355  0.3162
16682TIP3    H171461   4.276   0.166   4.225 -1.2735 -2.6512  0.3256
16682TIP3    H271462   4.264   0.087   4.354 -1.7530 -0.1523  1.8838
16683TIP3   OH271463   5.338   5.064   0.805  0.1104  0.1217 -0.5481
16683TIP3    H171464   5.245   5.088   0.812  0.0900 -0.2279  0.8738
16683TIP3    H271465   5.353   5.007   0.881  1.0596 -1.3038 -1.7602
16684TIP3   OH271466   0.348   5.392   4.793  0.1032  0.1108 -0.2770
16684TIP3    H171467   0.267   5.419   4.750 -0.8848  1.3914  2.1926
16684TIP3    H271468   0.346   5.296   4.790 -1.7414  0.1044  0.0947
16685TIP3   OH271469   2.120   4.965   4.192 -0.8110 -0.1392 -0.2660
16685TIP3    H171470   2.111   5.010   4.276  0.9970  0.7588 -0.5125
16685TIP3    H271471   2.202   4.916   4.199 -0.4461  0.2292 -1.6255
16686TIP3   OH271472   5.924   0.245  11.748  0.3226 -0.3685  0.7513
16686TIP3    H171473   5.857   0.187  11.712 -0.9044  1.0723  0.6038
16686TIP3    H271474   5.963   0.196  11.821 -2.0492 -0.6377  1.9125
16687TIP3   OH271475   2.793   5.994   5.643  0.2652 -0.4986  0.8349
16687TIP3    H171476   2.868   5.970   5.698  0.6539 -0.0152  0.5295
16687TIP3    H271477   2.796   6.090   5.641  0.4151 -0.5141 -0.2351
16688TIP3   OH271478   1.896   3.164   0.974  0.0969 -0.2041 -0.0475
16688TIP3    H171479   1.937   3.091   1.020  0.5736 -0.1877 -0.4503
16688TIP3    H271480   1.959   3.191   0.908 -0.9177 -0.7616 -1.2861
16689TIP3   OH271481   4.597   5.241   4.975  0.1180 -0.2888  0.5022
16689TIP3    H171482   4.506   5.240   4.944 -0.0252 -0.1089  0.9177
16689TIP3    H271483   4.594   5.194   5.059  0.3778 -0.1253  0.6029
16690TIP3   OH271484   5.095   0.926  13.180 -0.3028 -0.2097  0.2357
16690TIP3    H171485   5.029   0.870  13.221  0.5440 -0.6964  0.9771
16690TIP3    H271486   5.177   0.903  13.224  0.1936  1.1074  0.0619
16691TIP3   OH271487   5.490   2.915  15.335  0.1025  0.3134 -0.0859
16691TIP3    H171488   5.498   2.911  15.239  1.6116 -2.7694  0.0374
16691TIP3    H271489   5.396   2.925  15.351 -0.4834 -1.4809 -1.9508
16692TIP3   OH271490   5.462   5.799  11.068  0.1271  0.7141  0.3490
16692TIP3    H171491   5.489   5.852  10.993 -1.1760  1.2756  0.2601
16692TIP3    H271492   5.455   5.863  11.140 -1.7721  0.7653  0.1678
16693TIP3   OH271493   2.360   0.035   1.669 -0.8748 -0.0814  0.5486
16693TIP3    H171494   2.449   0.041   1.704 -0.4083  3.2165 -0.8201
16693TIP3    H271495   2.317  -0.031   1.724  2.6243 -2.5659  0.5894
16694TIP3   OH271496   5.857   0.860   4.959 -0.2305  0.0001  0.1684
16694TIP3    H171497   5.923   0.912   5.005 -0.4499  0.5120 -0.0798
16694TIP3    H271498   5.876   0.874   4.866 -0.6196  0.0733  0.0958
16695TIP3   OH271499   0.391   0.223  15.198  0.0431 -0.1791  0.7571
16695TIP3    H171500   0.338   0.205  15.120  0.6977  0.4541  0.1586
16695TIP3    H271501   0.389   0.141  15.247 -2.3534  0.1108  1.2885
16696TIP3   OH271502   5.848   2.003  12.205 -0.2685  0.0297  0.2018
16696TIP3    H171503   5.835   2.089  12.245 -0.4068  0.0613  0.0887
16696TIP3    H271504   5.773   1.951  12.236 -0.1520 -0.0708  0.3228
16697TIP3   OH271505   1.309   1.284   1.429 -0.0299 -0.1016  0.3815
16697TIP3    H171506   1.380   1.295   1.366 -0.2754 -0.0728  0.1064
16697TIP3    H271507   1.310   1.364   1.480  0.6540 -0.4425  0.9118
16698TIP3   OH271508   5.895   2.425  14.461 -0.3856  0.1456 -0.6252
16698TIP3    H171509   5.886   2.429  14.366 -0.1166  1.5234 -0.6208
16698TIP3    H271510   5.978   2.380  14.476 -0.6227 -0.4257 -1.0315
16699TIP3   OH271511   0.917   0.122   2.825  0.1591  0.2096 -0.0469
16699TIP3    H171512   0.891   0.056   2.889 -1.2590  0.8262  0.0324
16699TIP3    H271513   0.884   0.205   2.861 -0.0744  0.6500 -1.2556
16700TIP3   OH271514   2.176   1.873  14.569  0.5255 -0.1636 -0.2129
16700TIP3    H171515   2.100   1.825  14.602  0.8550  0.9226  2.3485
16700TIP3    H271516   2.142   1.927  14.498  0.0009 -3.4426 -2.7222
16701TIP3   OH271517   4.924   4.314   5.091 -0.0901  0.1838  0.2857
16701TIP3    H171518   4.855   4.375   5.118 -1.1609 -0.7181 -0.3549
16701TIP3    H271519   4.943   4.337   5.000 -0.5777 -0.5043  0.0071
16702TIP3   OH271520   4.686   3.077  17.041 -0.0035  0.1840 -0.4936
16702TIP3    H171521   4.698   3.161  16.997 -0.7437  0.4839 -0.1375
16702TIP3    H271522   4.757   3.074  17.105  0.2518  0.3644 -0.7611
16703TIP3   OH271523   2.101   0.225  16.182 -0.2956 -0.1104  0.3254
16703TIP3    H171524   2.148   0.231  16.265  0.3017  1.4831 -0.0885
16703TIP3    H271525   2.085   0.315  16.157 -1.1157 -0.5825 -0.9466
16704TIP3   OH271526   0.372   0.626   5.352  0.0087 -0.0021 -0.4238
16704TIP3    H171527   0.411   0.539   5.366  3.1285  1.3035 -0.2186
16704TIP3    H271528   0.364   0.634   5.257 -0.6328 -0.5995 -0.4324
16705TIP3   OH271529   5.049   3.404   1.580 -0.1744 -0.3619  0.2427
16705TIP3    H171530   5.005   3.476   1.536  1.7579  0.9998  0.4325
16705TIP3    H271531   5.036   3.329   1.523  0.4756  0.8724 -1.6068
16706TIP3   OH271532   3.522   2.559  13.364 -0.5391  0.4495  0.3628
16706TIP3    H171533   3.550   2.650  13.357  1.5021 -0.1047  0.7935
16706TIP3    H271534   3.534   2.524  13.275  0.4434  0.1407  0.6091
16707TIP3   OH271535   6.356   3.039   1.225  0.1754 -0.1138  0.3846
16707TIP3    H171536   6.266   3.069   1.218  0.5897  0.9468 -0.9836
16707TIP3    H271537   6.371   3.028   1.319 -1.8557 -1.9733  0.5476
16708TIP3   OH271538   5.067   2.952   3.284 -0.3672  0.4964  0.2397
16708TIP3    H171539   5.104   3.034   3.316 -1.8336  0.8747  1.0853
16708TIP3    H271540   4.973   2.970   3.277 -0.9279 -1.5104  1.8081
16709TIP3   OH271541   2.470   4.606  11.626  0.7979 -0.2717  0.3723
16709TIP3    H171542   2.480   4.520  11.667 -1.3309 -0.4785  0.5769
16709TIP3    H271543   2.553   4.651  11.643  0.6475 -0.9601  3.3898
16710TIP3   OH271544   1.875   1.110   3.673 -0.0368  0.0164 -0.3353
16710TIP3    H171545   1.955   1.151   3.642 -0.6642  0.7087 -1.0841
16710TIP3    H271546   1.874   1.024   3.631  0.8479 -0.4545  0.5567
16711TIP3   OH271547   0.825   2.296  16.064 -0.4013  0.5791 -0.5284
16711TIP3    H171548   0.889   2.234  16.101 -2.3560 -0.5057  1.3080
16711TIP3    H271549   0.846   2.379  16.106 -0.5003  0.1071  0.5053
16712TIP3   OH271550   1.885   6.690  12.836  0.2875 -0.1283  0.0078
16712TIP3    H171551   1.802   6.669  12.880 -0.7879 -0.0006 -1.8468
16712TIP3    H271552   1.868   6.672  12.744  2.6450 -0.9565 -0.3190
16713TIP3   OH271553   3.236   6.085  14.049  0.1867 -0.3318 -0.1728
16713TIP3    H171554   3.184   6.111  14.126  2.1389 -0.2244  1.1725
16713TIP3    H271555   3.195   6.004  14.019 -1.4023  0.3072  0.1589
16714TIP3   OH271556   1.976   5.788   1.741 -0.8153  0.6290 -0.4359
16714TIP3    H171557   1.957   5.828   1.656 -0.6571  1.0127 -0.2941
16714TIP3    H271558   1.895   5.797   1.790 -0.7997  0.7220 -0.4262
16715TIP3   OH271559   6.430   5.673   1.988  0.3269  0.5425  0.2336
16715TIP3    H171560   6.372   5.724   1.930  0.0441  0.3694  0.3666
16715TIP3    H271561   6.371   5.630   2.049  0.5313 -0.2980 -0.1475
16716TIP3   OH271562   3.013   5.756   3.005 -0.2243  0.6464  0.3675
16716TIP3    H171563   2.924   5.792   3.012 -1.8972 -2.7613 -0.9008
16716TIP3    H271564   3.034   5.729   3.094 -1.3150 -0.2204  0.3904
16717TIP3   OH271565   0.880   1.178  13.485  0.2080 -0.5863 -0.6520
16717TIP3    H171566   0.966   1.166  13.525 -0.0731 -0.6386 -0.0608
16717TIP3    H271567   0.818   1.136  13.545 -0.2671 -0.2903 -0.9212
16718TIP3   OH271568   6.222   0.958   3.414 -0.5603 -0.1372  0.6964
16718TIP3    H171569   6.288   0.942   3.346 -0.0321 -1.9038  1.5950
16718TIP3    H271570   6.265   1.018   3.475 -0.7430  0.7974 -0.0684
16719TIP3   OH271571   3.137   6.261  15.354  0.5103  0.5061 -0.5112
16719TIP3    H171572   3.153   6.180  15.403  1.5337 -0.4488 -2.3198
16719TIP3    H271573   3.044   6.256  15.330  0.5490 -0.1202 -0.5501
16720TIP3   OH271574   4.852   6.467  10.987  0.8516 -0.0318  0.3216
16720TIP3    H171575   4.881   6.558  10.988 -0.5970  0.4532  0.1467
16720TIP3    H271576   4.907   6.426  10.920  0.9528  0.9192 -0.2045
16721TIP3   OH271577   4.489   4.117   2.487 -0.4458 -0.0831 -0.1396
16721TIP3    H171578   4.412   4.076   2.525 -1.9610  1.9477 -0.7814
16721TIP3    H271579   4.539   4.149   2.561 -0.7357 -0.5642  0.2658
16722TIP3   OH271580   5.126   0.651   2.756 -0.1760  0.1141 -0.3226
16722TIP3    H171581   5.197   0.715   2.744 -0.2878  0.4856  0.8346
16722TIP3    H271582   5.165   0.584   2.812 -0.1237 -0.7548 -1.3714
16723TIP3   OH271583   2.751   1.234  12.002  0.1214 -0.0231 -0.2589
16723TIP3    H171584   2.772   1.325  12.021  1.1642 -0.2197 -0.4306
16723TIP3    H271585   2.707   1.237  11.916  0.0916  0.3217 -0.2332
16724TIP3   OH271586   3.582   2.496   5.976 -0.0384  1.0432 -0.0478
16724TIP3    H171587   3.594   2.477   5.883 -1.4380 -1.3526  0.1729
16724TIP3    H271588   3.642   2.437   6.021  1.0976  2.6261  0.6199
16725TIP3   OH271589   1.396   4.943   1.941  0.6886 -0.3567  0.1948
16725TIP3    H171590   1.317   4.943   1.887  0.1274  1.3154  0.9191
16725TIP3    H271591   1.466   4.970   1.881 -0.0683  2.3102  0.3943
16726TIP3   OH271592   5.866   0.509  15.600 -0.1961 -0.2650 -0.1099
16726TIP3    H171593   5.802   0.532  15.666 -0.6682  2.1247 -1.2866
16726TIP3    H271594   5.861   0.580  15.536  3.0739 -0.3793 -0.6558
16727TIP3   OH271595   6.292   0.038  15.031 -0.0629 -0.2999 -0.2249
16727TIP3    H171596   6.262  -0.053  15.032 -0.9708 -0.0575  2.4057
16727TIP3    H271597   6.229   0.084  14.977 -1.3305 -0.7579  0.8159
16728TIP3   OH271598   1.344   2.986  14.652  0.0409 -0.2595  0.6658
16728TIP3    H171599   1.381   2.898  14.661 -1.4945 -0.8046  2.4210
16728TIP3    H271600   1.258   2.979  14.693 -0.4876  1.8570  0.0152
16729TIP3   OH271601   0.860   0.661  11.647 -0.4421  0.1191  0.0132
16729TIP3    H171602   0.834   0.609  11.723  1.2646  1.1905  1.4089
16729TIP3    H271603   0.807   0.740  11.652 -1.8340 -0.6879 -1.1615
16730TIP3   OH271604   5.813   1.055  11.069  0.0490  0.0561  0.3788
16730TIP3    H171605   5.873   0.982  11.084 -0.6926 -0.4683  0.8797
16730TIP3    H271606   5.868   1.133  11.075  0.5752 -0.3796  1.4584
16731TIP3   OH271607   4.857   2.446   3.535 -0.4738 -0.0288 -0.1693
16731TIP3    H171608   4.882   2.356   3.514  0.1183 -0.3932  1.8169
16731TIP3    H271609   4.864   2.494   3.453  2.9844 -0.9805 -0.5582
16732TIP3   OH271610   1.613   3.368   0.525  0.2489  0.4312  0.1027
16732TIP3    H171611   1.563   3.305   0.472 -0.1583 -0.5153  1.5591
16732TIP3    H271612   1.618   3.328   0.612  1.0615  1.8603  0.7510
16733TIP3   OH271613   5.946   1.431  15.758 -0.5512 -0.2677  0.0120
16733TIP3    H171614   5.974   1.357  15.812 -0.3266  0.2651  0.6461
16733TIP3    H271615   5.857   1.451  15.788 -0.5858 -0.2360 -0.1097
16734TIP3   OH271616   5.558   2.311   1.858 -0.0853 -0.3240 -0.5257
16734TIP3    H171617   5.521   2.266   1.783  0.7354 -3.6763  0.8887
16734TIP3    H271618   5.523   2.265   1.934  1.8288  0.6148  1.0412
16735TIP3   OH271619   4.019   0.096   4.919  0.1843 -0.3179 -0.4484
16735TIP3    H171620   4.005   0.172   4.976 -1.4294  0.6474 -2.0190
16735TIP3    H271621   3.976   0.024   4.964 -1.0693  0.4260 -0.3929
16736TIP3   OH271622   6.618   0.492  15.442  0.4625 -0.3519 -0.1556
16736TIP3    H171623   6.689   0.553  15.462  2.6700 -2.2535 -1.7533
16736TIP3    H271624   6.576   0.476  15.527  2.1695  0.5433  0.9168
16737TIP3   OH271625   4.891   4.267  16.180 -0.1519 -0.2279  0.0691
16737TIP3    H171626   4.876   4.350  16.135 -0.3490 -0.4399 -0.2559
16737TIP3    H271627   4.807   4.247  16.221 -0.1817 -0.4062 -0.0803
16738TIP3   OH271628   3.512   0.066  12.248  0.2528  0.7632  0.2912
16738TIP3    H171629   3.481  -0.005  12.191 -0.4199 -0.0862  1.6591
16738TIP3    H271630   3.582   0.108  12.198  1.0259 -1.1850 -0.3891
16739TIP3   OH271631   6.323   2.402   3.875  0.0594 -0.0172  0.0109
16739TIP3    H171632   6.353   2.414   3.965 -1.5257 -2.2123  0.9400
16739TIP3    H271633   6.236   2.441   3.874  0.0861  0.0254 -0.5816
16740TIP3   OH271634   6.702   0.624   0.633  0.6662 -0.1126 -0.1942
16740TIP3    H171635   6.670   0.569   0.561 -0.1671 -0.8234  0.6846
16740TIP3    H271636   6.792   0.594   0.648  0.7520 -0.1444 -0.7677
16741TIP3   OH271637   3.215   0.421  16.752  0.0034 -0.3836 -0.4202
16741TIP3    H171638   3.192   0.415  16.844 -0.1103 -2.6410 -0.5584
16741TIP3    H271639   3.173   0.346  16.711  1.4943 -0.4142 -2.0146
16742TIP3   OH271640   4.409   4.710  15.617 -0.1159 -0.0856 -0.1754
16742TIP3    H171641   4.474   4.648  15.650 -0.2054  0.4910  1.1355
16742TIP3    H271642   4.426   4.715  15.523 -0.4103 -2.4457 -0.4201
16743TIP3   OH271643   5.906   6.668  13.714  0.0635 -0.8240 -0.6083
16743TIP3    H171644   5.985   6.687  13.664  1.0467 -1.0165  0.8057
16743TIP3    H271645   5.913   6.575  13.736 -1.3470 -1.2390 -1.7642
16744TIP3   OH271646   5.235   2.713  11.634 -0.8083  0.1676  0.2383
16744TIP3    H171647   5.235   2.688  11.542  1.0143 -0.5940  0.4116
16744TIP3    H271648   5.225   2.631  11.681 -0.0059  0.3502  0.7427
16745TIP3   OH271649   6.246   3.141   6.702  0.5374 -0.0626 -0.3975
16745TIP3    H171650   6.192   3.190   6.639 -0.2538 -0.0098  0.2981
16745TIP3    H271651   6.330   3.186   6.702  0.2764  0.4383 -0.8078
16746TIP3   OH271652   4.783   3.175   3.688  0.2177  0.3055 -0.2572
16746TIP3    H171653   4.762   3.258   3.645  1.3117 -0.1968 -1.8532
16746TIP3    H271654   4.855   3.139   3.637 -0.5296 -1.8575  0.0935
16747TIP3   OH271655   2.952   0.432   0.642 -0.0610  0.0334  0.4660
16747TIP3    H171656   2.890   0.499   0.613  0.8684 -0.1743 -2.2880
16747TIP3    H271657   3.038   0.473   0.634  0.4880 -1.2647 -0.7954
16748TIP3   OH271658   6.184   0.634  12.653 -0.6114 -0.0920 -0.4013
16748TIP3    H171659   6.107   0.609  12.602  0.1007 -1.1325 -0.9816
16748TIP3    H271660   6.168   0.598  12.740  0.5864 -3.0978 -1.3195
16749TIP3   OH271661   3.467   0.827  12.762 -0.4208 -0.1634  0.0928
16749TIP3    H171662   3.464   0.922  12.767  1.4295 -0.1341  2.0484
16749TIP3    H271663   3.424   0.797  12.842  2.7158 -0.7657  1.7194
16750TIP3   OH271664   4.401   4.190  11.178 -0.3937  0.0554  0.1760
16750TIP3    H171665   4.336   4.187  11.108 -1.7617 -0.3607  1.4158
16750TIP3    H271666   4.395   4.279  11.212 -0.8149 -0.1826  0.7349
16751TIP3   OH271667   5.012   4.994  13.054 -0.3597  0.0586 -0.0311
16751TIP3    H171668   4.975   4.910  13.077 -0.4446  0.2162  0.4283
16751TIP3    H271669   5.059   5.022  13.134 -1.9870  1.3502  0.5241
16752TIP3   OH271670   4.301   0.415  13.795 -0.0332 -0.0441  0.7551
16752TIP3    H171671   4.257   0.496  13.822 -1.3506 -0.5149  0.1619
16752TIP3    H271672   4.260   0.347  13.848 -1.2742 -0.7137 -0.9532
16753TIP3   OH271673   0.666   5.970   2.910  0.3338 -0.1207  0.1764
16753TIP3    H171674   0.629   6.040   2.857  0.9360  0.7018  0.8141
16753TIP3    H271675   0.589   5.920   2.940 -0.4131  1.9705  2.0638
16754TIP3   OH271676   0.605   2.633  12.259 -0.6855  0.3728 -0.2244
16754TIP3    H171677   0.674   2.573  12.227  0.8379  2.2149 -0.5761
16754TIP3    H271678   0.564   2.585  12.331  1.1451 -0.7119  0.1715
16755TIP3   OH271679   4.160   3.955   0.311 -0.0763  0.4937  0.1833
16755TIP3    H171680   4.250   3.963   0.281 -0.4568  2.9394 -0.5423
16755TIP3    H271681   4.166   3.905   0.393  1.8508  0.1983 -0.0853
16756TIP3   OH271682   1.859   6.351  11.631  0.2750  0.1810 -0.7889
16756TIP3    H171683   1.933   6.347  11.691 -0.3861 -1.1876 -0.0118
16756TIP3    H271684   1.897   6.332  11.545  0.9318  0.1944 -0.5065
16757TIP3   OH271685   2.849   6.311   1.250  0.5739  0.6495  0.1901
16757TIP3    H171686   2.831   6.365   1.174  2.2682  0.9675 -0.0235
16757TIP3    H271687   2.829   6.222   1.221  2.2213  0.6312 -1.0143
16758TIP3   OH271688   1.382   1.284   5.632  1.0794  0.1391  0.5569
16758TIP3    H171689   1.347   1.289   5.721  1.5831  0.5490  0.7413
16758TIP3    H271690   1.463   1.235   5.641 -0.0794 -2.0113 -0.0875
16759TIP3   OH271691   1.593   3.700   4.219  0.1866  0.8578  0.3271
16759TIP3    H171692   1.622   3.747   4.141  0.9524  0.8422  0.5906
16759TIP3    H271693   1.673   3.657   4.252  0.2355  2.1517  2.0250
16760TIP3   OH271694   4.469   0.185   3.443  0.0286 -0.3494 -0.2931
16760TIP3    H171695   4.424   0.110   3.404 -2.2028  0.2941  0.9092
16760TIP3    H271696   4.463   0.170   3.538  0.8864  0.6359 -0.0605
16761TIP3   OH271697   1.774   1.509  16.653 -0.0502 -0.4525 -0.1123
16761TIP3    H171698   1.712   1.489  16.723  0.5522  0.5002  0.7206
16761TIP3    H271699   1.798   1.601  16.668  1.0523 -0.6111 -0.8137
16762TIP3   OH271700   1.561   0.004  11.037  0.2242 -0.1426  0.3995
16762TIP3    H171701   1.487  -0.031  10.987 -0.1883 -0.0276  0.9191
16762TIP3    H271702   1.630   0.016  10.972  0.7270 -2.7775  0.3174
16763TIP3   OH271703   2.193   2.165   3.476  0.3544 -0.7027  0.3273
16763TIP3    H171704   2.162   2.132   3.560  1.5604  1.1588  1.5808
16763TIP3    H271705   2.288   2.155   3.480  0.4900  0.1233 -0.4734
16764TIP3   OH271706   1.036   5.217  12.532  0.0416 -0.1640 -0.0000
16764TIP3    H171707   0.948   5.210  12.494  0.1541 -0.7681 -0.1636
16764TIP3    H271708   1.054   5.129  12.566  0.2411  0.1772  0.7935
16765TIP3   OH271709   6.166   4.388  12.952  0.0715  0.1433  0.4064
16765TIP3    H171710   6.119   4.466  12.983  1.1491  0.5263  1.1339
16765TIP3    H271711   6.203   4.414  12.868  0.8107  0.5948  0.8543
16766TIP3   OH271712   1.155   1.731  12.100  0.1004 -0.2951 -0.1351
16766TIP3    H171713   1.079   1.767  12.054  1.8247  0.8336 -2.3175
16766TIP3    H271714   1.209   1.807  12.121  1.1622 -1.1521  0.3388
16767TIP3   OH271715   3.084   4.241  11.036 -0.3722  0.8015 -0.2985
16767TIP3    H171716   3.049   4.327  11.059 -0.4413  0.5583  0.5202
16767TIP3    H271717   3.174   4.257  11.010 -0.5089  1.1721 -0.5564
16768TIP3   OH271718   2.692   3.713  15.078 -0.4557 -0.5440 -0.0223
16768TIP3    H171719   2.660   3.763  15.004  2.0198 -0.2444 -0.9867
16768TIP3    H271720   2.718   3.778  15.143 -1.9717 -0.7903  0.9010
16769TIP3   OH271721   5.121   6.029   2.687 -0.2461  0.2042  0.0014
16769TIP3    H171722   5.215   6.017   2.673 -0.5314 -2.4518 -0.1443
16769TIP3    H271723   5.092   5.947   2.726 -2.7846  0.3222 -1.4107
16770TIP3   OH271724   4.231   5.365   1.806  0.1713  0.0899 -0.7497
16770TIP3    H171725   4.286   5.425   1.757 -1.6445  1.6626 -0.9605
16770TIP3    H271726   4.223   5.405   1.893  0.3556 -0.7565 -0.3336
16771TIP3   OH271727   1.765   5.109  15.196  0.0813  0.8501 -0.1840
16771TIP3    H171728   1.801   5.055  15.266 -1.9117 -0.1886  0.1235
16771TIP3    H271729   1.836   5.168  15.172  1.8700 -0.9463  0.4496
16772TIP3   OH271730   0.869   1.586  10.336 -0.3480  0.7504 -0.2769
16772TIP3    H171731   0.903   1.565  10.423  0.0640 -0.4746 -0.7248
16772TIP3    H271732   0.931   1.650  10.301  0.6800 -0.3592 -0.5041
16773TIP3   OH271733   4.934   4.471  13.119 -0.0932  0.2322  0.5406
16773TIP3    H171734   4.983   4.472  13.201 -1.1871 -2.2788  1.3368
16773TIP3    H271735   4.950   4.383  13.083 -1.6578  0.3875 -0.6382
16774TIP3   OH271736   2.478   4.992  16.684 -0.0456 -0.8180  0.1579
16774TIP3    H171737   2.574   4.992  16.677 -0.1159 -0.4045 -0.9846
16774TIP3    H271738   2.455   5.080  16.714 -0.0685 -0.9369  0.4928
16775TIP3   OH271739   6.781   3.380   2.917  0.0031  0.7424  0.0414
16775TIP3    H171740   6.789   3.435   2.839  0.8067 -0.9650 -1.1545
16775TIP3    H271741   6.862   3.328   2.919 -1.3762 -1.5724  0.1153
16776TIP3   OH271742   3.146   6.517  15.173  0.8848  0.1576 -0.0276
16776TIP3    H171743   3.065   6.566  15.182  1.4425  0.9274  1.0490
16776TIP3    H271744   3.126   6.449  15.109 -0.6599  0.2102  0.3587
16777TIP3   OH271745   1.809   1.833  11.549  0.2988 -1.0881 -0.5960
16777TIP3    H171746   1.871   1.765  11.525  1.1266 -0.1492 -1.2013
16777TIP3    H271747   1.794   1.820  11.643  2.3172 -0.6327 -0.1787
16778TIP3   OH271748   1.000   4.848   0.106  0.7852  0.4195 -0.3319
16778TIP3    H171749   0.999   4.755   0.126 -2.8106 -0.0019 -1.6995
16778TIP3    H271750   1.052   4.887   0.176  2.2865 -2.5542  0.3541
16779TIP3   OH271751   4.380   3.026  11.650  0.2912 -0.1689  0.3159
16779TIP3    H171752   4.333   3.100  11.688  1.2218  0.2153  0.7638
16779TIP3    H271753   4.473   3.051  11.656  0.5503 -0.8329 -0.6696
16780TIP3   OH271754   4.704   6.555  11.347 -0.4193 -0.1812 -0.2272
16780TIP3    H171755   4.634   6.569  11.283  0.3335  1.3901 -0.7899
16780TIP3    H271756   4.742   6.642  11.359 -0.3456 -0.4762  2.1908
16781TIP3   OH271757   2.032   2.220   5.238  0.3235  0.0634  0.2417
16781TIP3    H171758   2.018   2.274   5.160  1.7147  0.4734  0.2615
16781TIP3    H271759   2.111   2.255   5.278  0.1149 -0.7081  1.3725
16782TIP3   OH271760   0.337   4.685  16.614 -0.7448  0.7773  0.0350
16782TIP3    H171761   0.345   4.624  16.687 -1.7444 -0.6732 -1.0081
16782TIP3    H271762   0.360   4.633  16.537  0.7827  2.4061 -0.6567
16783TIP3   OH271763   3.987   1.030   0.981 -0.0201 -0.4530  0.8292
16783TIP3    H171764   3.923   1.087   1.024  0.5705  0.5509  0.4018
16783TIP3    H271765   3.939   0.949   0.964  0.0275 -1.3856  4.4076
16784TIP3   OH271766   3.643   6.555   0.785 -0.0219  0.2230  0.2424
16784TIP3    H171767   3.619   6.482   0.729 -0.7079 -0.5357  1.4905
16784TIP3    H271768   3.562   6.604   0.797 -0.0283  0.0259  1.0651
16785TIP3   OH271769   2.270   2.505  12.741  0.2642  0.2605  0.6439
16785TIP3    H171770   2.254   2.479  12.832 -0.0230  1.5156  0.9764
16785TIP3    H271771   2.187   2.545  12.714  1.2209  2.4546  0.7810
16786TIP3   OH271772   6.557   2.455   1.105 -0.0877  0.7123  1.0817
16786TIP3    H171773   6.650   2.435   1.101  0.0123  1.3278 -0.2472
16786TIP3    H271774   6.553   2.543   1.143 -0.0380  1.1030  0.2167
16787TIP3   OH271775   0.357   6.478  16.218 -0.4592 -0.6447 -0.7194
16787TIP3    H171776   0.294   6.441  16.156 -2.8958  0.3773  0.9342
16787TIP3    H271777   0.305   6.542  16.268  2.1553  0.8678  0.2348
16788TIP3   OH271778   0.728   2.971   3.243 -0.1924 -0.2088 -0.3225
16788TIP3    H171779   0.636   2.970   3.272 -0.5608  1.1311 -1.3388
16788TIP3    H271780   0.775   3.011   3.315 -0.5314 -0.2033 -0.1000
16789TIP3   OH271781   0.734   6.680  13.549  0.5143 -0.3763  0.3111
16789TIP3    H171782   0.764   6.643  13.466  0.5797  1.4531 -0.5270
16789TIP3    H271783   0.638   6.674  13.545  0.4106  1.4704 -0.8050
16790TIP3   OH271784   6.568   2.240   3.932 -0.3557 -0.5037  0.2173
16790TIP3    H171785   6.600   2.196   3.853 -0.9850 -0.4658 -0.0642
16790TIP3    H271786   6.475   2.257   3.914 -0.2409  0.5067  0.5061
16791TIP3   OH271787   2.723   5.840   2.604 -0.2205  0.0534  0.2631
16791TIP3    H171788   2.782   5.914   2.592  1.5344 -1.0640  1.5035
16791TIP3    H271789   2.682   5.855   2.689 -3.8369  2.1066 -1.5925
16792TIP3   OH271790   0.914   1.406  11.585  0.2205 -0.2781 -0.2334
16792TIP3    H171791   0.988   1.435  11.532 -0.6868 -0.0387 -1.4228
16792TIP3    H271792   0.939   1.426  11.675  1.3267  0.3663 -0.6633
16793TIP3   OH271793   3.080   2.348   5.956 -0.4271  0.3034 -1.0074
16793TIP3    H171794   3.156   2.404   5.966  0.7790 -1.5446  1.1704
16793TIP3    H271795   3.026   2.365   6.034  0.2124 -1.7798 -0.0235
16794TIP3   OH271796   1.466   6.200   5.643  0.2461  0.0207  0.0999
16794TIP3    H171797   1.386   6.235   5.604  1.4108  1.0222 -1.5038
16794TIP3    H271798   1.499   6.137   5.579  1.7934  1.1408 -0.2671
16795TIP3   OH271799   5.171   3.128  15.737  0.1846  0.2283 -0.4101
16795TIP3    H171800   5.185   3.125  15.832 -0.7283 -1.3440 -0.2876
16795TIP3    H271801   5.232   3.064  15.701  0.7736  1.0689 -0.9430
16796TIP3   OH271802   1.640   2.789   2.982  0.2129 -0.3260 -0.2355
16796TIP3    H171803   1.560   2.841   2.990  0.4980  0.0036  0.6416
16796TIP3    H271804   1.682   2.820   2.902  0.2162  0.5636  0.1068
16797TIP3   OH271805   6.054   1.796  14.685 -0.1713 -0.2814  0.4359
16797TIP3    H171806   6.025   1.709  14.713  3.1119 -1.4620  0.5314
16797TIP3    H271807   6.005   1.856  14.741 -3.3163 -1.9043 -0.3230
16798TIP3   OH271808   0.474   0.049  16.182  0.6001 -0.3335 -0.1054
16798TIP3    H171809   0.415   0.001  16.124 -1.0265  1.8382 -0.3602
16798TIP3    H271810   0.553   0.062  16.131 -0.2816  0.3072 -1.3457
16799TIP3   OH271811   5.556   3.316   3.065  0.4667  0.2058 -0.4793
16799TIP3    H171812   5.588   3.236   3.106  1.5130  0.8118 -0.0751
16799TIP3    H271813   5.539   3.291   2.974 -3.2007 -1.5199  0.4832
16800TIP3   OH271814   3.929   0.020   1.686  0.1835 -0.1653 -0.5293
16800TIP3    H171815   3.884  -0.031   1.620  1.8820 -0.5578 -1.4409
16800TIP3    H271816   3.951  -0.042   1.755 -0.4227 -0.0266 -0.2063
16801TIP3   OH271817   0.716   3.742   6.472 -0.4938  0.2972 -0.5381
16801TIP3    H171818   0.637   3.762   6.523 -0.4591 -0.4267 -0.1786
16801TIP3    H271819   0.683   3.698   6.393 -0.3784 -2.8840  1.0027
16802TIP3   OH271820   5.618   1.013   4.762  0.3658 -0.0415  0.1828
16802TIP3    H171821   5.686   0.999   4.697  0.5466 -0.6177  0.4891
16802TIP3    H271822   5.553   0.945   4.745 -0.1251  0.4904 -0.0917
16803TIP3   OH271823   2.449   1.406  14.677 -0.0265  0.1823  0.3803
16803TIP3    H171824   2.398   1.329  14.651  1.0720 -0.3804 -0.1656
16803TIP3    H271825   2.399   1.444  14.750 -1.5297  0.0005 -0.5045
16804TIP3   OH271826   0.553   2.247  14.325  0.0778  0.5796 -0.0414
16804TIP3    H171827   0.596   2.314  14.272 -0.2545  1.0741  0.3045
16804TIP3    H271828   0.540   2.289  14.410  1.3077 -0.4566  0.6964
16805TIP3   OH271829   0.698   1.159   6.385 -0.3763  0.0917  0.3663
16805TIP3    H171830   0.730   1.104   6.456  0.0639 -0.4939 -0.2703
16805TIP3    H271831   0.685   1.099   6.312 -0.6946  0.7028 -0.0885
16806TIP3   OH271832   5.958   3.450   0.373 -0.2638  0.0602 -0.0222
16806TIP3    H171833   6.050   3.439   0.399 -0.3437  1.1904  0.8196
16806TIP3    H271834   5.946   3.387   0.302  0.9718 -0.5885  0.3049
16807TIP3   OH271835   4.751   1.213  14.863  0.3639  0.5574 -0.4817
16807TIP3    H171836   4.692   1.247  14.796 -0.0972  1.0652  0.1661
16807TIP3    H271837   4.717   1.248  14.945  0.4093 -0.7234  0.1192
16808TIP3   OH271838   1.236   3.933  12.377  0.1408 -0.7238 -0.3507
16808TIP3    H171839   1.297   3.947  12.450  1.8557 -0.6030 -1.7380
16808TIP3    H271840   1.181   4.011  12.376  0.5308 -0.4276  0.3969
16809TIP3   OH271841   4.176   1.585   3.344  0.0314 -0.1989 -0.2081
16809TIP3    H171842   4.183   1.490   3.346 -2.0070 -0.3756  1.0920
16809TIP3    H271843   4.193   1.612   3.434 -0.1947  0.5864 -0.3938
16810TIP3   OH271844   5.789   5.225  16.460  0.2820  0.6128 -0.8860
16810TIP3    H171845   5.812   5.310  16.497  1.1849  1.4160 -3.1123
16810TIP3    H271846   5.849   5.164  16.502  0.8138  1.3572 -0.5356
16811TIP3   OH271847   2.953   0.176   6.294  0.3069  0.0135 -0.2218
16811TIP3    H171848   2.886   0.128   6.246  0.7910 -0.6842 -0.2130
16811TIP3    H271849   3.036   0.146   6.256  0.7163 -0.7603  1.1988
16812TIP3   OH271850   1.796   6.092   2.344 -0.2023  0.5754 -0.4448
16812TIP3    H171851   1.869   6.110   2.403  1.2555  2.1128 -2.5645
16812TIP3    H271852   1.747   6.175   2.340 -0.4514  0.4009 -1.1496
16813TIP3   OH271853   3.270   0.555  14.728 -0.0174 -0.2060 -0.0008
16813TIP3    H171854   3.189   0.583  14.770  0.0449  1.5032 -0.9138
16813TIP3    H271855   3.333   0.549  14.799  0.2685  3.3064  0.2381
16814TIP3   OH271856   6.273   1.079  12.761  0.7161  0.4486 -0.0800
16814TIP3    H171857   6.196   1.107  12.710  0.3459 -0.8863 -0.2781
16814TIP3    H271858   6.247   1.091  12.852  0.2991  0.0761 -0.1485
16815TIP3   OH271859   0.368   3.066  16.626 -0.7813  0.1757  0.4907
16815TIP3    H171860   0.340   3.145  16.579 -2.9019 -0.5222  0.5174
16815TIP3    H271861   0.463   3.063  16.610 -0.5353  2.9368  0.8346
16816TIP3   OH271862   1.335   5.681  13.536  0.0810 -0.1138  0.1087
16816TIP3    H171863   1.294   5.669  13.451 -1.2424  2.6738  0.2583
16816TIP3    H271864   1.423   5.711  13.517  0.5140 -1.5035 -0.2148
16817TIP3   OH271865   2.066   6.273  15.052  0.1252  0.3531 -0.1718
16817TIP3    H171866   2.041   6.183  15.074  2.0818  0.1003  1.2214
16817TIP3    H271867   1.986   6.324  15.065 -0.8785 -1.0654 -0.4629
16818TIP3   OH271868   4.824   4.299   1.037  0.4754 -0.0789 -0.0204
16818TIP3    H171869   4.891   4.245   0.995 -1.3389 -2.6358  0.1325
16818TIP3    H271870   4.841   4.291   1.130  0.8586  0.5817 -0.0247
16819TIP3   OH271871   1.986   6.655   2.231  0.2017  0.4943 -0.2963
16819TIP3    H171872   1.945   6.717   2.291 -0.2613  0.5316 -0.6442
16819TIP3    H271873   2.055   6.705   2.188  0.7815  0.3651  0.4707
16820TIP3   OH271874   1.284   4.250  15.658  0.3570  0.0656 -0.2660
16820TIP3    H171875   1.316   4.337  15.679 -1.2514  0.4001  0.9454
16820TIP3    H271876   1.298   4.241  15.564  1.9418  1.0072 -0.1536
16821TIP3   OH271877   1.027   2.690   4.314 -0.5680  0.6102 -0.2107
16821TIP3    H171878   1.092   2.705   4.383 -1.7606  1.1187  0.8544
16821TIP3    H271879   1.069   2.721   4.234  0.0649  2.0496  0.6442
16822TIP3   OH271880   4.974   5.275   1.929  0.3004 -0.1913 -1.0149
16822TIP3    H171881   4.895   5.295   1.879  0.7381 -2.4678 -2.7766
16822TIP3    H271882   5.012   5.361   1.948 -2.2867  0.9442 -0.5422
16823TIP3   OH271883   2.992   0.704   0.066 -0.0443  0.1632  0.6830
16823TIP3    H171884   3.064   0.745   0.113  0.1144 -0.8303  1.3461
16823TIP3    H271885   2.915   0.755   0.091  0.4165  1.3310 -0.1575
16824TIP3   OH271886   1.068   3.311  13.989  0.0466  0.1593  0.7268
16824TIP3    H171887   1.149   3.344  14.028  0.0474  0.2977  0.6086
16824TIP3    H271888   1.047   3.232  14.040  1.0657 -0.7443 -0.2066
16825TIP3   OH271889   3.180   5.928  12.310  0.0615  0.0242  0.2803
16825TIP3    H171890   3.167   5.959  12.220 -0.4736 -1.2541 -0.1135
16825TIP3    H271891   3.166   6.005  12.365  1.7013  1.1444 -0.7765
16826TIP3   OH271892   4.394   0.538   4.634 -0.4090 -0.0097  0.4692
16826TIP3    H171893   4.431   0.542   4.722  0.2615  1.5129  0.1603
16826TIP3    H271894   4.302   0.514   4.647  0.2557 -2.3771  1.3595
16827TIP3   OH271895   1.328   3.797   0.602  0.5485  0.1466 -0.5085
16827TIP3    H171896   1.405   3.743   0.618 -1.7001 -3.5299 -0.9641
16827TIP3    H271897   1.281   3.799   0.685 -0.1481  0.1135 -0.8919
16828TIP3   OH271898   5.584   5.255   0.746  0.5397 -0.7051  0.1907
16828TIP3    H171899   5.658   5.264   0.687  0.0764  0.0111 -0.2951
16828TIP3    H271900   5.509   5.243   0.689  0.1695 -0.5983  0.6495
16829TIP3   OH271901   2.578   4.976  13.291 -0.0368  0.6763  0.4624
16829TIP3    H171902   2.665   5.010  13.270 -0.3653  0.1931 -1.9353
16829TIP3    H271903   2.595   4.901  13.348  1.1978  0.1293 -0.5658
16830TIP3   OH271904   5.180   0.564  14.808  0.6560 -0.2143 -0.2700
16830TIP3    H171905   5.126   0.607  14.874  0.3621 -0.8826 -0.0670
16830TIP3    H271906   5.270   0.590  14.830  0.4442  0.8071 -0.5377
16831TIP3   OH271907   2.948   6.421  12.647 -0.3431 -0.1707  0.2786
16831TIP3    H171908   2.911   6.346  12.693  1.0555 -0.1075  1.6091
16831TIP3    H271909   2.950   6.394  12.555 -0.4969 -1.4905  0.6402
16832TIP3   OH271910   4.097   5.353   1.224  0.3518  0.2300 -0.0182
16832TIP3    H171911   4.005   5.371   1.208  0.3557  0.0446 -0.2595
16832TIP3    H271912   4.113   5.269   1.182  0.3976 -0.2140  0.8635
16833TIP3   OH271913   1.121   0.065   6.239  0.6250  0.1710  0.3702
16833TIP3    H171914   1.149  -0.004   6.299  0.3444 -0.9798 -0.7717
16833TIP3    H271915   1.028   0.048   6.225  1.1160 -0.9394 -2.0262
16834TIP3   OH271916   2.105   1.466   0.418  0.0912  0.2682  0.0074
16834TIP3    H171917   2.168   1.471   0.346 -1.4018 -1.9442 -1.5650
16834TIP3    H271918   2.113   1.376   0.450 -1.7802  0.1481  0.2110
16835TIP3   OH271919   1.917   5.177  12.333  0.0409  0.1232  0.1464
16835TIP3    H171920   1.957   5.139  12.254  0.0320 -1.6277  0.9428
16835TIP3    H271921   1.827   5.197  12.306  1.0493  3.2071 -1.3759
16836TIP3   OH271922   2.056   4.127   2.150  0.2713  0.4925  0.9281
16836TIP3    H171923   2.061   4.142   2.245  1.1697  3.5730  0.4752
16836TIP3    H271924   1.989   4.188   2.120 -1.1320 -1.5246 -0.3282
16837TIP3   OH271925   4.932   3.511  15.504  0.1864  0.2726  0.2631
16837TIP3    H171926   4.892   3.578  15.448  0.8287  0.1369 -0.3825
16837TIP3    H271927   4.908   3.428  15.462  1.8292  0.2144 -0.6392
16838TIP3   OH271928   5.822   4.280  11.425  0.5450  0.2637 -0.8112
16838TIP3    H171929   5.880   4.355  11.419  0.7479  0.5857  3.0032
16838TIP3    H271930   5.864   4.222  11.488 -1.8456 -0.8555 -0.1278
16839TIP3   OH271931   4.936   1.057  12.985 -0.9533 -0.7671  0.0897
16839TIP3    H171932   5.001   1.111  12.941 -0.7085 -0.7485  0.4705
16839TIP3    H271933   4.984   1.011  13.054 -1.5518  0.2119  1.2146
16840TIP3   OH271934   1.190   6.650  12.470 -0.1365 -0.0084 -0.1191
16840TIP3    H171935   1.171   6.651  12.564 -0.5582  1.4931 -0.2008
16840TIP3    H271936   1.115   6.694  12.430 -0.0723 -0.8409 -1.1903
16841TIP3   OH271937   4.859   3.444  16.149  0.5456  0.0984 -0.4737
16841TIP3    H171938   4.944   3.439  16.192 -0.1738  2.0476  1.3857
16841TIP3    H271939   4.870   3.512  16.082  0.5058  0.2203 -0.3571
16842TIP3   OH271940   5.883   0.210  12.666 -0.1319 -0.4912  0.3503
16842TIP3    H171941   5.791   0.228  12.685  0.0663 -0.2029  1.0824
16842TIP3    H271942   5.930   0.246  12.741  0.5860 -0.5632 -0.0554
16843TIP3   OH271943   6.759   5.373   0.275 -0.3249 -0.0154  0.6754
16843TIP3    H171944   6.829   5.420   0.230 -1.0670  0.4604  0.0073
16843TIP3    H271945   6.801   5.293   0.307  0.4584  0.1309  0.0446
16844TIP3   OH271946   3.630   6.072  16.549  0.3225  0.0157  0.3403
16844TIP3    H171947   3.690   6.111  16.485 -0.0923 -0.1047 -0.1359
16844TIP3    H271948   3.546   6.117  16.533  0.2275  0.0227  0.8394
16845TIP3   OH271949   5.727   4.189   3.621 -0.3164  0.4462 -0.1657
16845TIP3    H171950   5.701   4.172   3.712 -0.2685  1.0508 -0.0306
16845TIP3    H271951   5.725   4.104   3.579  1.7097 -0.2078  0.9311
16846TIP3   OH271952   0.947   3.560  16.964  0.8064 -0.6089  0.0299
16846TIP3    H171953   0.937   3.475  17.008 -0.6077 -1.0203 -1.0170
16846TIP3    H271954   0.992   3.540  16.882  1.0305 -0.2557  0.0650
16847TIP3   OH271955   4.086   2.864   5.579  0.4445  0.8050 -0.0873
16847TIP3    H171956   4.053   2.833   5.495  1.3384  0.3441 -0.2778
16847TIP3    H271957   4.178   2.882   5.563  0.7351  0.2557  0.9195
16848TIP3   OH271958   1.352   1.886  14.881  0.8687 -0.4525  0.1351
16848TIP3    H171959   1.400   1.958  14.921  0.9985 -0.8473  0.7059
16848TIP3    H271960   1.413   1.812  14.884  0.6155 -0.6746 -0.1291
16849TIP3   OH271961   2.071   4.354  14.737 -0.0887 -0.0835 -0.1675
16849TIP3    H171962   2.163   4.332  14.722 -0.2713 -1.9283  1.1674
16849TIP3    H271963   2.073   4.446  14.764  1.2367  0.2047 -1.1452
16850TIP3   OH271964   3.291   3.407   5.587  0.3976 -0.7083 -0.2181
16850TIP3    H171965   3.282   3.409   5.682 -0.4362  1.9016 -0.2907
16850TIP3    H271966   3.382   3.431   5.571  0.9318 -2.4741 -0.1164
16851TIP3   OH271967   2.372   3.827   0.838  0.8461 -0.0711  0.6048
16851TIP3    H171968   2.361   3.739   0.802 -1.4790  0.3817  0.0484
16851TIP3    H271969   2.436   3.868   0.780  0.8692 -0.9283 -0.0064
16852TIP3   OH271970   2.561   1.609  14.556  0.2808 -0.0916  0.2001
16852TIP3    H171971   2.525   1.525  14.585 -1.1850  0.4923  0.1804
16852TIP3    H271972   2.485   1.656  14.522  1.3067  0.7186 -1.0660
16853TIP3   OH271973   4.098   5.687   2.300  0.3244  0.3508 -0.6588
16853TIP3    H171974   4.129   5.752   2.237  2.0990  0.0192 -0.1706
16853TIP3    H271975   4.058   5.618   2.245  1.7014  0.1407 -1.4385
16854TIP3   OH271976   2.037   5.836   3.964  0.2018 -0.5889 -0.4156
16854TIP3    H171977   2.107   5.900   3.953  0.3267 -0.3598  1.3676
16854TIP3    H271978   2.082   5.755   3.987 -0.0712 -0.7283 -0.3730
16855TIP3   OH271979   6.596   0.298   3.396 -0.3632  0.6974  0.6688
16855TIP3    H171980   6.550   0.343   3.467 -3.3447  1.8223 -1.7227
16855TIP3    H271981   6.528   0.245   3.354  1.3778 -0.2923 -1.0552
16856TIP3   OH271982   5.712   1.191  14.404 -0.2595 -0.2482 -0.1265
16856TIP3    H171983   5.687   1.272  14.449  0.1694 -0.2834  0.1863
16856TIP3    H271984   5.698   1.210  14.311 -1.9708 -0.4627  0.0514
16857TIP3   OH271985   6.620   6.569  15.806 -0.3803 -0.2206 -0.1802
16857TIP3    H171986   6.662   6.627  15.869  0.0747  0.8656 -1.4231
16857TIP3    H271987   6.643   6.606  15.720 -1.7836 -1.0692 -0.9671
16858TIP3   OH271988   5.393   3.297   0.643 -0.3117  0.2702  0.3048
16858TIP3    H171989   5.417   3.307   0.551  1.5911 -1.6845  0.5165
16858TIP3    H271990   5.371   3.386   0.671 -2.5977  0.7244 -2.3837
16859TIP3   OH271991   0.212   6.651   2.529  0.5498 -0.3148  0.0785
16859TIP3    H171992   0.211   6.559   2.502  0.3464 -0.8708  1.8581
16859TIP3    H271993   0.250   6.697   2.454 -0.1348 -1.7170 -1.1864
16860TIP3   OH271994   0.894   1.532   0.817  0.5012  0.1179  0.1206
16860TIP3    H171995   0.943   1.590   0.876 -0.6270  2.1095 -0.7798
16860TIP3    H271996   0.818   1.504   0.869  1.4901 -1.3361  0.8473
16861TIP3   OH271997   1.086   4.095   2.450  0.0721 -0.0939 -0.1360
16861TIP3    H171998   1.178   4.100   2.423 -0.1366  1.1313 -0.6671
16861TIP3    H271999   1.047   4.177   2.420 -1.5081 -1.1249 -1.0269
16862TIP3   OH272000   0.927   5.624   4.157  0.3722  0.7898 -0.2293
16862TIP3    H172001   0.897   5.703   4.200  0.8202  0.5515  0.5554
16862TIP3    H272002   0.861   5.604   4.091 -0.1260  1.3869  0.0913
16863TIP3   OH272003   5.962   1.149  14.785 -0.1020  0.4290 -0.0700
16863TIP3    H172004   5.891   1.094  14.817 -1.2363  1.4991 -0.6962
16863TIP3    H272005   6.027   1.087  14.751  0.2559 -0.6649  2.3818
16864TIP3   OH272006   3.798   2.184  12.322  0.4352  0.4347 -0.0705
16864TIP3    H172007   3.722   2.185  12.380  0.2437  2.4761 -0.2872
16864TIP3    H272008   3.767   2.136  12.245 -0.5070  0.8354  0.0337
16865TIP3   OH272009   6.290   2.256   3.665 -0.0906  0.2477 -0.2272
16865TIP3    H172010   6.347   2.302   3.603 -1.8213  1.4896 -0.9702
16865TIP3    H272011   6.300   2.304   3.747  0.6610 -0.1524 -0.0759
16866TIP3   OH272012   2.102   4.430   2.062  0.0612 -0.0993 -0.5571
16866TIP3    H172013   2.096   4.468   2.150  0.7440  0.3196 -0.6879
16866TIP3    H272014   2.020   4.382   2.052 -0.0430 -0.1250  0.2983
16867TIP3   OH272015   5.863   3.838   5.429  0.6367  0.0285 -0.2836
16867TIP3    H172016   5.901   3.831   5.517  0.6117 -0.3696 -0.3012
16867TIP3    H272017   5.937   3.865   5.374  0.4887  0.9907 -0.0226
16868TIP3   OH272018   5.100   2.012   3.567 -0.5897  0.9736 -0.1337
16868TIP3    H172019   5.164   2.065   3.520 -0.1285 -0.9341 -1.7865
16868TIP3    H272020   5.066   1.951   3.501 -1.4350 -0.4703  1.5558
16869TIP3   OH272021   1.747   0.252  12.795 -0.1518  0.3839  0.1716
16869TIP3    H172022   1.829   0.213  12.764 -0.3207  1.2621 -1.4378
16869TIP3    H272023   1.691   0.177  12.814 -0.0470 -0.2179 -1.7034
16870TIP3   OH272024   5.388   6.366  12.740  0.1820 -0.5740 -0.4673
16870TIP3    H172025   5.445   6.321  12.803  1.6477 -0.1586 -1.4412
16870TIP3    H272026   5.319   6.303  12.721 -0.1374 -0.8208  1.3102
16871TIP3   OH272027   2.463   4.224   4.070  0.1523 -0.3064 -1.0324
16871TIP3    H172028   2.476   4.306   4.023 -2.2761 -0.3552 -1.9290
16871TIP3    H272029   2.486   4.156   4.005 -0.1408 -0.3543 -1.0857
16872TIP3   OH272030   1.936   4.992  13.036  0.1899  0.6254  0.9694
16872TIP3    H172031   1.877   4.969  13.107  0.5765  1.8957  1.7494
16872TIP3    H272032   1.963   5.082  13.056 -0.1638  1.2566 -1.1112
16873TIP3   OH272033   2.019   4.929   2.030  0.3337  0.3848 -0.2327
16873TIP3    H172034   2.077   4.863   1.991  0.1802 -0.0957  0.3464
16873TIP3    H272035   2.072   4.968   2.100 -1.0802 -2.3655  2.5761
16874TIP3   OH272036   4.435   0.202   4.537  0.9167  0.0564  0.4515
16874TIP3    H172037   4.497   0.267   4.504  2.8142 -1.8469  0.0745
16874TIP3    H272038   4.364   0.203   4.473  1.4995  0.8972 -0.2122
16875TIP3   OH272039   1.295   3.130  16.373 -0.1446 -0.8617 -0.1689
16875TIP3    H172040   1.321   3.114  16.464 -2.8724 -1.1195  0.6366
16875TIP3    H272041   1.265   3.221  16.372  2.0556 -0.0403 -1.4617
16876TIP3   OH272042   4.748   5.465  16.032 -0.0020  0.2911 -0.0018
16876TIP3    H172043   4.737   5.432  15.943 -0.8688  0.2201  0.1236
16876TIP3    H272044   4.786   5.552  16.021  0.4671  0.0381 -0.4129
16877TIP3   OH272045   6.340   5.969   3.042  0.6206 -0.1714  0.3425
16877TIP3    H172046   6.428   5.934   3.049  1.0335  0.8180  0.2989
16877TIP3    H272047   6.335   6.035   3.112  0.2446  0.4334 -0.2431
16878TIP3   OH272048   3.047   0.971   0.418 -0.0540  0.4841 -0.1204
16878TIP3    H172049   2.989   1.034   0.376  1.4500  0.0496 -3.0736
16878TIP3    H272050   2.993   0.932   0.487 -2.2180  2.2906 -0.6656
16879TIP3   OH272051   3.175   5.053   3.498 -0.2134  0.4798  0.1435
16879TIP3    H172052   3.215   5.062   3.411  0.4119 -0.1452  0.3573
16879TIP3    H272053   3.249   5.060   3.559 -0.5706  0.3183  0.5970
16880TIP3   OH272054   4.132   4.504   6.691 -0.2871 -0.4286  0.0040
16880TIP3    H172055   4.049   4.474   6.655 -1.0218 -1.2356  2.2379
16880TIP3    H272056   4.128   4.600   6.684 -0.6987 -0.5116 -1.2822
16881TIP3   OH272057   0.231   4.344  14.524  0.1586 -0.4906 -0.6365
16881TIP3    H172058   0.255   4.335  14.432  2.5312 -1.0197 -0.0209
16881TIP3    H272059   0.273   4.270  14.568 -1.9264 -0.9412  0.7436
16882TIP3   OH272060   4.452   5.164  13.523  0.0385  0.0249 -0.3865
16882TIP3    H172061   4.378   5.220  13.545 -0.4038  0.8194 -3.5315
16882TIP3    H272062   4.414   5.077  13.513 -0.3511  0.2822 -1.2129
16883TIP3   OH272063   5.992   6.174  16.677 -0.3305 -0.5360  0.1920
16883TIP3    H172064   6.074   6.188  16.631 -1.0516 -0.2797 -1.0666
16883TIP3    H272065   5.967   6.262  16.708  1.0153 -0.9437  2.6844
16884TIP3   OH272066   4.966   3.870   6.298 -0.3403 -0.3995  0.3471
16884TIP3    H172067   5.006   3.796   6.344  0.2614  1.2344  2.5908
16884TIP3    H272068   5.040   3.928   6.277 -1.0778  0.9911  1.4140
16885TIP3   OH272069   3.829   1.503   2.805 -0.2178  0.3482  0.3454
16885TIP3    H172070   3.891   1.554   2.856 -0.4163  1.8007 -0.7940
16885TIP3    H272071   3.882   1.438   2.760  0.3273  0.8663  0.2327
16886TIP3   OH272072   3.395   2.136   5.370  0.1251  0.3459 -0.2832
16886TIP3    H172073   3.405   2.224   5.406 -0.4209  0.3696 -0.1774
16886TIP3    H272074   3.314   2.103   5.410  1.7682 -1.3019  1.9523
16887TIP3   OH272075   3.009   6.639   1.078  0.2726  0.4997  0.0762
16887TIP3    H172076   3.018   6.577   1.005 -2.0793 -0.3266  0.3857
16887TIP3    H272077   2.939   6.698   1.051 -1.0969 -0.2207  1.8768
16888TIP3   OH272078   2.391   1.629  11.829 -0.0627  0.1267  0.1511
16888TIP3    H172079   2.375   1.538  11.804  0.8035 -0.3723  1.3380
16888TIP3    H272080   2.310   1.675  11.808 -1.2313 -1.3046  1.3645
16889TIP3   OH272081   2.690   5.136  16.547  0.3746  0.3122  0.6683
16889TIP3    H172082   2.693   5.074  16.473 -0.7756  1.4368 -0.3694
16889TIP3    H272083   2.781   5.146  16.573  0.6454 -1.3644  0.4851
16890TIP3   OH272084   2.723   0.266   1.273 -0.1869  0.2883  0.0676
16890TIP3    H172085   2.721   0.194   1.210  0.5665  2.3695 -2.5365
16890TIP3    H272086   2.816   0.287   1.282 -0.3948  0.9635  0.7126
16891TIP3   OH272087   4.520   0.073   6.241 -0.4549  0.4679 -0.3081
16891TIP3    H172088   4.593   0.069   6.179  0.6707 -1.2114  1.0488
16891TIP3    H272089   4.517   0.165   6.269  0.5799  0.7320 -1.0047
16892TIP3   OH272090   3.434   1.089  12.772 -0.5323 -0.3282 -0.2279
16892TIP3    H172091   3.477   1.100  12.857 -2.4818  0.4086  0.7296
16892TIP3    H272092   3.421   1.178  12.740  2.2162 -0.5953 -2.4811
16893TIP3   OH272093   1.071   5.609  15.805  0.8307  0.0485 -0.6048
16893TIP3    H172094   1.033   5.690  15.771  1.3342  1.3289  1.6516
16893TIP3    H272095   1.038   5.603  15.895  3.2349 -0.5641  0.3182
16894TIP3   OH272096   6.525   6.201   4.075 -0.1847  0.8457  0.0622
16894TIP3    H172097   6.487   6.113   4.083 -0.0161  0.7046 -0.6350
16894TIP3    H272098   6.502   6.244   4.157  0.2568 -0.0534  0.6801
16895TIP3   OH272099   5.023   4.927  14.598 -0.7522  0.0888 -0.1026
16895TIP3    H172100   5.105   4.940  14.550 -0.9114 -2.0347 -1.0543
16895TIP3    H272101   4.965   4.883  14.535 -2.4376  1.0092  0.7400
16896TIP3   OH272102   1.789   0.091  16.543 -0.3040 -0.1125  0.3748
16896TIP3    H172103   1.864   0.071  16.488 -0.3244  0.6277  0.0722
16896TIP3    H272104   1.757   0.005  16.572 -2.2942 -0.8291 -3.3765
16897TIP3   OH272105   4.432   2.027  13.403  0.0459 -0.1602  0.4319
16897TIP3    H172106   4.419   2.104  13.347  1.5692  0.4185  0.8346
16897TIP3    H272107   4.441   2.062  13.491  1.9136 -0.6682  0.4784
16898TIP3   OH272108   4.364   2.146  10.702 -0.0856  0.1150 -0.0997
16898TIP3    H172109   4.329   2.218  10.650  0.7404  0.2159 -0.5441
16898TIP3    H272110   4.428   2.104  10.644 -0.2606 -0.7257  0.2965
16899TIP3   OH272111   0.722   3.586   1.590 -0.0594  0.1234  0.0072
16899TIP3    H172112   0.774   3.626   1.519 -0.8752 -1.1244 -1.3393
16899TIP3    H272113   0.636   3.628   1.583  0.1866  0.8535  1.0613
16900TIP3   OH272114   6.109   0.836  13.924  0.3299 -0.3942  0.0078
16900TIP3    H172115   6.080   0.809  14.012  0.0604  0.5561  0.2225
16900TIP3    H272116   6.183   0.895  13.940  1.3421 -1.5006 -0.4780
16901TIP3   OH272117   6.620   3.705  15.472  0.0759  0.0422  0.5061
16901TIP3    H172118   6.638   3.694  15.378  0.1657  2.7284  0.1207
16901TIP3    H272119   6.531   3.740  15.475  0.6111  1.4173  1.2743
16902TIP3   OH272120   4.295   2.655  10.604 -0.1598 -0.5260 -0.5900
16902TIP3    H172121   4.359   2.718  10.637 -0.5218 -0.0430 -0.7890
16902TIP3    H272122   4.222   2.709  10.573 -0.2083 -1.0152 -1.3561
16903TIP3   OH272123   4.749   1.735  13.728  0.4617 -0.4165  0.1978
16903TIP3    H172124   4.692   1.659  13.741  0.7324 -0.5238  0.7545
16903TIP3    H272125   4.707   1.805  13.779  1.5807 -0.8654  1.7776
16904TIP3   OH272126   0.487   0.414  13.225  0.5826 -0.3166  0.5220
16904TIP3    H172127   0.541   0.344  13.188  0.6567  0.5441 -1.0903
16904TIP3    H272128   0.402   0.404  13.183 -0.4320 -1.3475  2.6630
16905TIP3   OH272129   3.177   2.786   0.350 -0.1584  0.9252  0.1571
16905TIP3    H172130   3.122   2.826   0.282  0.3933 -0.2434 -1.0015
16905TIP3    H272131   3.226   2.717   0.305 -1.5810 -1.5939  2.1743
16906TIP3   OH272132   1.114   0.702   3.965 -0.1737  0.0351  0.2021
16906TIP3    H172133   1.076   0.659   3.889  0.9525 -0.8941  0.1370
16906TIP3    H272134   1.043   0.708   4.028 -0.9090  0.0738 -0.6099
16907TIP3   OH272135   3.178   0.158  12.071 -0.4402 -0.3912  0.1478
16907TIP3    H172136   3.172   0.197  12.158  3.0930 -0.5904  0.6493
16907TIP3    H272137   3.197   0.066  12.087 -0.2874 -0.5442 -0.8476
16908TIP3   OH272138   3.998   2.563   0.550 -0.1977  0.2664  0.4649
16908TIP3    H172139   3.993   2.486   0.495 -2.0604  1.4511 -1.1374
16908TIP3    H272140   4.092   2.581   0.557  0.5521 -3.4365  2.9726
16909TIP3   OH272141   0.449   6.216  15.444  0.0045 -0.2429  0.3648
16909TIP3    H172142   0.487   6.245  15.361  0.8383  0.3893  0.9596
16909TIP3    H272143   0.371   6.270  15.455  1.1453  1.3001  1.1046
16910TIP3   OH272144   4.011   3.614  13.221  0.6704 -0.1441  0.4529
16910TIP3    H172145   4.045   3.699  13.248  1.1493 -0.3025  0.3493
16910TIP3    H272146   4.043   3.553  13.287 -0.0156 -0.1866  0.7567
16911TIP3   OH272147   5.516   5.494  10.290 -0.0314  0.1351  0.5849
16911TIP3    H172148   5.492   5.403  10.304 -2.0895  0.6805  0.9923
16911TIP3    H272149   5.476   5.516  10.206 -1.6150  1.2761  1.5913
16912TIP3   OH272150   2.815   1.105  17.214 -0.7091  0.0877  0.6967
16912TIP3    H172151   2.892   1.153  17.245  0.3625  0.9602 -2.8020
16912TIP3    H272152   2.745   1.170  17.215 -0.5155  0.3013  0.6683
16913TIP3   OH272153   2.448   5.467  11.593 -0.4060 -0.3705 -0.1988
16913TIP3    H172154   2.427   5.426  11.509  2.8359 -1.3458 -0.6814
16913TIP3    H272155   2.432   5.399  11.658 -3.5834  0.5975  0.1941
16914TIP3   OH272156   2.258   6.732  14.454 -0.4709  0.2140 -0.1604
16914TIP3    H172157   2.193   6.673  14.416 -0.5687  0.3863 -0.2601
16914TIP3    H272158   2.213   6.774  14.527  0.2867 -1.5518  1.4080
16915TIP3   OH272159   1.696   2.199  16.754  0.0628 -0.2744 -0.3060
16915TIP3    H172160   1.668   2.168  16.840 -0.0459 -2.3798 -1.0391
16915TIP3    H272161   1.771   2.143  16.731 -0.1594 -0.0274 -1.7428
16916TIP3   OH272162   2.428   4.028  14.525  1.1192  0.3687  0.2857
16916TIP3    H172163   2.420   4.059  14.434  3.7113  2.0060  0.4989
16916TIP3    H272164   2.357   3.966  14.536 -0.7630  1.9205 -2.1168
16917TIP3   OH272165   3.786   1.473  14.646  0.4469 -0.4184  0.5630
16917TIP3    H172166   3.834   1.426  14.715  1.4618 -0.9578 -0.4839
16917TIP3    H272167   3.768   1.559  14.685  1.7842 -0.3934  1.2027
16918TIP3   OH272168   6.005   1.584  13.073  0.5495 -0.0792  0.3450
16918TIP3    H172169   5.950   1.510  13.047 -1.3994  0.6360  2.1043
16918TIP3    H272170   5.995   1.648  13.002 -0.3944 -0.2357  0.3206
16919TIP3   OH272171   3.513   0.801  13.625 -0.1079 -0.0856  0.0430
16919TIP3    H172172   3.517   0.777  13.717 -0.0369  1.8083  0.5787
16919TIP3    H272173   3.425   0.836  13.612  0.0685  0.1855 -0.4642
16920TIP3   OH272174   0.707   3.814   1.788  0.3928  0.3334 -0.2056
16920TIP3    H172175   0.722   3.905   1.765  0.1487  0.7319  1.1294
16920TIP3    H272176   0.629   3.789   1.737 -0.5436  1.3814  0.6629
16921TIP3   OH272177   6.196   0.601  13.217 -0.3020 -0.1041 -0.1064
16921TIP3    H172178   6.105   0.616  13.190 -0.3980  0.4655  0.5136
16921TIP3    H272179   6.219   0.517  13.176 -1.1901 -0.3896 -0.0584
16922TIP3   OH272180   2.618   6.516   5.782 -0.6358  0.1348 -0.0549
16922TIP3    H172181   2.626   6.603   5.742 -2.0352 -0.4006 -1.6037
16922TIP3    H272182   2.699   6.506   5.832  0.6714  1.3694 -1.7678
16923TIP3   OH272183   1.302   6.566   4.564  0.4207  0.5072 -0.5265
16923TIP3    H172184   1.350   6.564   4.646  0.9692 -0.4623 -0.8582
16923TIP3    H272185   1.282   6.659   4.550  0.3709  0.6806  0.6612
16924TIP3   OH272186   2.907   1.061   1.811  0.0146 -0.2982 -0.2614
16924TIP3    H172187   2.978   1.003   1.840  1.9389  1.2302 -1.5963
16924TIP3    H272188   2.895   1.038   1.718 -0.2882  0.3857 -0.3941
16925TIP3   OH272189   3.245   3.748   2.807  0.4159  0.8206  0.6533
16925TIP3    H172190   3.257   3.768   2.900 -0.1145 -0.5743  1.0521
16925TIP3    H272191   3.153   3.769   2.789  0.0362 -0.5251  0.9111
16926TIP3   OH272192   1.441   3.626  10.879  0.4842  0.0600  0.5315
16926TIP3    H172193   1.528   3.664  10.894  0.3100  0.3796  0.7483
16926TIP3    H272194   1.458   3.543  10.835  0.9443 -0.3215  1.4130
16927TIP3   OH272195   1.207   3.289  15.783  0.0250  0.5270  0.3719
16927TIP3    H172196   1.194   3.384  15.780 -0.2375  0.5243  1.0729
16927TIP3    H272197   1.123   3.254  15.815 -0.5138 -0.1190 -1.6430
16928TIP3   OH272198   0.481   1.314  16.246 -0.2639  0.1992 -0.1055
16928TIP3    H172199   0.510   1.402  16.271  2.0016 -0.3137 -0.6889
16928TIP3    H272200   0.500   1.260  16.323  1.7758 -0.3924 -0.9421
16929TIP3   OH272201   2.796   5.570   1.656  0.3424  0.3582 -0.1318
16929TIP3    H172202   2.772   5.630   1.585  0.2419 -2.0555 -2.3176
16929TIP3    H272203   2.733   5.588   1.725 -2.5785 -0.1368 -2.4564
16930TIP3   OH272204   2.302   3.193  13.415 -0.1263 -0.1403 -0.7804
16930TIP3    H172205   2.321   3.276  13.371 -0.5727  0.8591  0.8317
16930TIP3    H272206   2.342   3.127  13.359 -1.4684  0.9477 -3.1876
16931TIP3   OH272207   1.917   2.397  16.780 -0.2900  0.1516  0.0599
16931TIP3    H172208   1.842   2.346  16.812  0.9029 -0.8388  1.3926
16931TIP3    H272209   1.940   2.454  16.853 -0.9690  1.9410 -1.0610
16932TIP3   OH272210   4.590   6.225  12.799 -0.3430  0.2623  0.3395
16932TIP3    H172211   4.670   6.178  12.823  0.1037  0.5171 -0.5992
16932TIP3    H272212   4.588   6.222  12.703 -0.7152  1.4633  0.2875
16933TIP3   OH272213   6.516   1.301   2.496 -0.1540 -0.4999  0.2918
16933TIP3    H172214   6.426   1.331   2.485  0.7611  2.0679 -1.0075
16933TIP3    H272215   6.547   1.281   2.408  0.5594 -1.4697  0.7273
16934TIP3   OH272216   1.085   3.468   2.936  0.5072  0.1888 -0.7735
16934TIP3    H172217   1.123   3.494   3.020 -0.2625  0.5350 -0.5252
16934TIP3    H272218   1.140   3.395   2.907  0.5985 -0.1512  0.1934
16935TIP3   OH272219   6.179   5.694   3.181 -0.5154  0.0054 -0.0834
16935TIP3    H172220   6.123   5.624   3.216 -0.6032 -0.4539 -1.1121
16935TIP3    H272221   6.208   5.742   3.259  1.4479 -2.5636  0.8917
16936TIP3   OH272222   1.370   4.557  15.071  0.3901  0.4483 -0.4209
16936TIP3    H172223   1.442   4.494  15.078  0.2331  0.3670  0.5479
16936TIP3    H272224   1.307   4.515  15.012  0.5494 -0.0408 -0.2473
16937TIP3   OH272225   6.564   1.446  12.038  0.4566  0.1689  0.6116
16937TIP3    H172226   6.549   1.353  12.025 -0.3275  0.3235  0.3039
16937TIP3    H272227   6.643   1.451  12.091 -0.7340 -0.7616  2.5876
16938TIP3   OH272228   5.751   4.855  14.127 -0.0778 -0.4440  0.0039
16938TIP3    H172229   5.691   4.785  14.100 -0.4260 -0.4254  0.6970
16938TIP3    H272230   5.791   4.885  14.046 -0.3453 -1.0698 -0.3659
16939TIP3   OH272231   4.959   3.784  14.766  0.1640 -0.6371 -0.2495
16939TIP3    H172232   5.054   3.768  14.768  0.4011  0.6722  0.1430
16939TIP3    H272233   4.931   3.768  14.856  0.5573  1.8181  0.3651
16940TIP3   OH272234   6.662   1.945   1.115 -0.4354 -0.6446 -0.2939
16940TIP3    H172235   6.621   1.903   1.190 -1.6187  0.1571 -0.4511
16940TIP3    H272236   6.731   1.885   1.087 -2.8734 -3.1662 -1.3503
16941TIP3   OH272237   2.158   2.045  15.238  0.0036 -0.1926 -0.4141
16941TIP3    H172238   2.212   2.077  15.166 -0.4727  0.4515 -0.4830
16941TIP3    H272239   2.170   1.950  15.236  0.0326 -0.1731 -1.3006
16942TIP3   OH272240   4.801   6.294   3.446 -0.0887  0.0380  0.2931
16942TIP3    H172241   4.820   6.215   3.496 -2.0090 -0.8751 -0.3068
16942TIP3    H272242   4.861   6.290   3.371 -0.7930 -1.3916 -0.2331
16943TIP3   OH272243   1.569   0.107  17.117 -0.1504  0.0038 -0.3172
16943TIP3    H172244   1.589   0.028  17.167  1.0175  0.5651  0.1283
16943TIP3    H272245   1.622   0.176  17.157  0.7117  0.5083 -2.2001
16944TIP3   OH272246   0.663   5.275  16.655 -0.1445 -0.3903  0.1436
16944TIP3    H172247   0.738   5.274  16.714  1.0760  0.9831 -1.2852
16944TIP3    H272248   0.595   5.324  16.703  0.0512 -1.1501  1.2225
16945TIP3   OH272249   0.835   2.079   3.978 -0.3970  0.1385  0.2890
16945TIP3    H172250   0.800   2.137   3.910  1.7378 -0.6900 -1.6669
16945TIP3    H272251   0.906   2.032   3.934 -0.3036 -2.0076  2.5511
16946TIP3   OH272252   3.892   3.202   4.638 -0.0504 -0.0876 -0.5297
16946TIP3    H172253   3.861   3.240   4.555 -0.7787 -1.1459 -0.7698
16946TIP3    H272254   3.813   3.191   4.690  0.5458  1.8019  0.8835
16947TIP3   OH272255   4.824   6.502  13.669  0.1254 -0.4366 -0.1562
16947TIP3    H172256   4.897   6.563  13.659 -0.8657  0.6551 -1.0820
16947TIP3    H272257   4.835   6.465  13.756  1.7807 -0.3018 -0.2882
16948TIP3   OH272258   4.963   3.944  15.345 -0.3752  0.1223 -0.1240
16948TIP3    H172259   4.943   4.013  15.408  0.0638  2.0077 -1.9297
16948TIP3    H272260   4.991   3.870  15.398  0.4288  1.7575  1.8758
16949TIP3   OH272261   2.906   0.705   1.467  0.2023  0.2234 -0.1964
16949TIP3    H172262   2.860   0.783   1.498 -1.3645  1.2566 -4.3835
16949TIP3    H272263   2.871   0.633   1.519 -2.2109  1.7002  0.3467
16950TIP3   OH272264   4.044   5.245  11.394  0.1363 -0.2044 -0.0587
16950TIP3    H172265   4.009   5.218  11.479 -3.0390  1.6919 -0.6063
16950TIP3    H272266   4.015   5.336  11.384  1.0103 -0.1486 -2.8877
16951TIP3   OH272267   5.215   0.933  14.449  0.3660 -0.4058  0.0082
16951TIP3    H172268   5.276   0.943  14.376 -0.1531 -0.9385 -0.5108
16951TIP3    H272269   5.245   0.856  14.496 -1.3554 -2.2451 -1.7399
16952TIP3   OH272270   3.435   3.662  12.990 -0.3417 -0.0697 -0.3331
16952TIP3    H172271   3.355   3.611  12.980 -0.5330  0.0352  0.6304
16952TIP3    H272272   3.446   3.673  13.084  1.1699 -0.6626 -0.4101
16953TIP3   OH272273   3.896   4.066  15.396  0.3103  0.3717  0.0523
16953TIP3    H172274   3.926   4.006  15.328 -0.5070  1.7914 -1.6513
16953TIP3    H272275   3.938   4.149  15.375 -1.8215  1.4527 -0.2093
16954TIP3   OH272276   0.652   4.623   3.045 -0.3566 -0.4360 -0.8678
16954TIP3    H172277   0.661   4.651   2.954 -1.4320 -1.1360 -1.2050
16954TIP3    H272278   0.558   4.616   3.059 -0.1987 -3.5994 -0.7355
16955TIP3   OH272279   3.560   4.664  15.616 -0.5321 -0.0707  0.0902
16955TIP3    H172280   3.549   4.654  15.522  1.3020  0.5068 -0.2147
16955TIP3    H272281   3.475   4.698  15.647 -1.8992 -2.3170 -0.9776
16956TIP3   OH272282   3.561   2.609   1.832  0.0330 -0.2389  0.2051
16956TIP3    H172283   3.553   2.627   1.739  0.8357 -1.1106 -0.0531
16956TIP3    H272284   3.472   2.614   1.866 -0.1334  1.1469 -0.3938
16957TIP3   OH272285   6.344   5.242   4.134  0.0540  0.1118 -0.0481
16957TIP3    H172286   6.415   5.177   4.135 -1.5399 -1.7408 -0.9462
16957TIP3    H272287   6.371   5.304   4.066  1.5978  0.4179  0.7952
16958TIP3   OH272288   5.952   3.520  13.793  0.4736  0.3849  0.1652
16958TIP3    H172289   5.986   3.458  13.857  2.7224  0.1747 -1.1029
16958TIP3    H272290   5.966   3.606  13.834  0.5275  0.2007  0.5405
16959TIP3   OH272291   4.611   0.308  15.617 -0.3034 -0.0680  0.4303
16959TIP3    H172292   4.698   0.321  15.579  0.2727  0.3143  1.7872
16959TIP3    H272293   4.565   0.253  15.554  0.1288  1.5632 -1.4173
16960TIP3   OH272294   6.519   6.554   1.087  0.2244 -0.4147 -0.2195
16960TIP3    H172295   6.597   6.500   1.080  1.8115  1.6549  0.5699
16960TIP3    H272296   6.492   6.547   1.178  1.1682  0.9984  0.2026
16961TIP3   OH272297   1.255   0.460   5.236  0.3600 -0.2466  0.0122
16961TIP3    H172298   1.172   0.426   5.200  0.1984 -0.9976  1.0529
16961TIP3    H272299   1.243   0.554   5.238 -0.5778 -0.3612  0.3675
16962TIP3   OH272300   4.845   0.143   1.855  0.6655 -0.4480  0.6989
16962TIP3    H172301   4.774   0.175   1.911 -3.0089 -1.6978 -2.7799
16962TIP3    H272302   4.840   0.048   1.861  2.2843 -0.5747  0.5671
16963TIP3   OH272303   0.681   2.398   4.138  0.0110 -0.4244 -0.5501
16963TIP3    H172304   0.721   2.409   4.224 -3.2685  1.2399  0.9352
16963TIP3    H272305   0.666   2.304   4.129  2.1580 -0.8470 -0.2795
16964TIP3   OH272306   4.076   5.386  12.517  0.2334  0.5315  0.2047
16964TIP3    H172307   4.170   5.398  12.533  0.0243 -1.3302  3.7593
16964TIP3    H272308   4.034   5.455  12.570 -0.5154  1.8643 -1.9697
16965TIP3   OH272309   0.511   2.194  14.808 -0.1816 -0.4846  0.0864
16965TIP3    H172310   0.583   2.132  14.790 -0.1116 -0.0355 -1.3048
16965TIP3    H272311   0.540   2.241  14.886  1.4788  0.2740 -0.9114
16966TIP3   OH272312   5.930   1.741   3.818 -0.3017 -0.2218 -0.2487
16966TIP3    H172313   5.884   1.715   3.898  0.6521 -0.9361  0.0947
16966TIP3    H272314   5.926   1.663   3.762  0.4465 -0.2843 -0.2245
16967TIP3   OH272315   1.444   5.122  12.813 -0.3110 -0.0315  0.9004
16967TIP3    H172316   1.379   5.166  12.867  0.2169  0.7161  0.9520
16967TIP3    H272317   1.422   5.029  12.819 -0.3977  0.0510  2.2305
16968TIP3   OH272318   1.235   2.177   1.464 -0.2050 -0.2518 -0.2197
16968TIP3    H172319   1.243   2.178   1.369  0.9159  0.9985 -0.1480
16968TIP3    H272320   1.228   2.084   1.486 -1.1873 -0.5276 -1.5465
16969TIP3   OH272321   1.127   6.063  14.480  0.3136 -0.2070  0.4388
16969TIP3    H172322   1.061   5.994  14.491 -0.9178  0.6558 -1.1686
16969TIP3    H272323   1.140   6.070  14.386  3.4236 -0.9256  0.7080
16970TIP3   OH272324   4.957   5.982  14.547  0.4671 -0.2708  0.5044
16970TIP3    H172325   4.866   5.953  14.546 -0.4564  2.2267 -2.0850
16970TIP3    H272326   4.967   6.024  14.632 -1.2837  0.5820  0.3470
16971TIP3   OH272327   1.341   2.838  15.393 -0.6109 -0.0030 -0.3989
16971TIP3    H172328   1.387   2.917  15.363  0.2707 -0.3113  0.1031
16971TIP3    H272329   1.357   2.835  15.487  0.7125 -1.6022 -0.6228
16972TIP3   OH272330   2.072   0.185  15.148  0.3101 -0.4689 -0.6068
16972TIP3    H172331   2.106   0.252  15.089  1.0777 -1.4041 -1.2383
16972TIP3    H272332   2.145   0.165  15.206 -0.2771  0.0638  0.3491
16973TIP3   OH272333   5.648   0.531  16.327 -0.0080  0.0410 -0.2311
16973TIP3    H172334   5.601   0.605  16.289  0.8485  1.2324  0.9480
16973TIP3    H272335   5.616   0.455  16.279 -1.4793  1.0751 -0.9519
16974TIP3   OH272336   3.239   0.427   4.195 -0.7262 -0.2954  0.4808
16974TIP3    H172337   3.206   0.480   4.122  0.3667  0.3960  0.4564
16974TIP3    H272338   3.192   0.344   4.188 -1.8902  0.3833  0.0304
16975TIP3   OH272339   4.231   0.967   4.567  0.3150 -0.2815  0.0024
16975TIP3    H172340   4.171   0.918   4.511 -0.0425 -1.6155  1.4547
16975TIP3    H272341   4.176   1.001   4.638  0.7779  1.1864 -0.3040
16976TIP3   OH272342   2.474   5.397  13.025  0.1825  0.5092 -0.1396
16976TIP3    H172343   2.393   5.361  13.062  0.2022  1.8130  1.2751
16976TIP3    H272344   2.492   5.475  13.078  1.0684  1.6206 -1.9714
16977TIP3   OH272345   6.786   5.891   4.238  0.3475  0.0522 -0.7062
16977TIP3    H172346   6.716   5.826   4.238 -0.4448  0.8624  0.2447
16977TIP3    H272347   6.854   5.854   4.293 -0.6499  0.5418  0.9291
16978TIP3   OH272348   0.878   2.610  12.731  0.2149 -0.6079 -0.3213
16978TIP3    H172349   0.859   2.702  12.751 -2.0755 -0.8369 -1.2254
16978TIP3    H272350   0.974   2.606  12.730  0.4414  1.2236  2.1035
16979TIP3   OH272351   5.886   3.430   3.857  0.3686  0.2550  0.1153
16979TIP3    H172352   5.871   3.499   3.922 -0.9662 -1.4312  1.7074
16979TIP3    H272353   5.799   3.405   3.828  0.9203  0.4090 -1.7945
16980TIP3   OH272354   5.053   6.783  14.064 -0.0783 -0.3306 -0.0202
16980TIP3    H172355   5.055   6.690  14.042  3.8804 -0.4892  0.1624
16980TIP3    H272356   4.992   6.821  14.001  0.1872 -2.7148 -1.9014
16981TIP3   OH272357   3.200   5.491   2.588  0.5263  0.2524 -0.0007
16981TIP3    H172358   3.111   5.478   2.621  0.5407 -0.3929 -0.2062
16981TIP3    H272359   3.254   5.430   2.639  1.0031  1.2796  0.7578
16982TIP3   OH272360   5.514   0.906   3.837 -0.7375 -0.4415  0.2610
16982TIP3    H172361   5.424   0.892   3.864 -1.5525 -2.6046 -2.9507
16982TIP3    H272362   5.507   0.940   3.747  1.6000 -0.9677 -0.1881
16983TIP3   OH272363   3.492   6.683   4.468 -0.0099 -0.3183  0.1356
16983TIP3    H172364   3.534   6.648   4.547  1.5501  0.0070 -0.4978
16983TIP3    H272365   3.565   6.717   4.416 -1.0746  0.1135 -1.1281
16984TIP3   OH272366   6.363   3.396  11.814  0.0561  0.0103  0.2506
16984TIP3    H172367   6.323   3.354  11.891  2.6031 -1.6343  0.7670
16984TIP3    H272368   6.312   3.363  11.740 -0.2964 -1.0868  0.9605
16985TIP3   OH272369   2.142   4.388  11.892 -0.3690  0.6297 -0.6439
16985TIP3    H172370   2.162   4.294  11.896 -0.2900  0.6844  0.4885
16985TIP3    H272371   2.054   4.393  11.856 -1.3696 -0.0323  1.5556
16986TIP3   OH272372   2.238   4.514  11.538 -0.0675 -0.1184 -0.0474
16986TIP3    H172373   2.329   4.543  11.546 -0.0486  0.1736 -1.1189
16986TIP3    H272374   2.193   4.588  11.497 -1.0132  0.1113  1.3398
16987TIP3   OH272375   5.252   1.666  11.296  0.4659 -0.2694 -0.2135
16987TIP3    H172376   5.330   1.661  11.240 -0.3120 -0.1806 -1.3409
16987TIP3    H272377   5.237   1.575  11.324  1.9218 -0.0630  1.4119
16988TIP3   OH272378   4.439   1.487   2.679 -0.0225 -0.2374  0.3237
16988TIP3    H172379   4.413   1.465   2.768 -0.5697 -0.3280  0.1419
16988TIP3    H272380   4.522   1.440   2.666  0.4700  0.4051  1.0507
16989TIP3   OH272381   0.952   6.566  12.898 -0.0742  0.2483 -0.4170
16989TIP3    H172382   0.857   6.578  12.899  0.0484  1.3353 -0.2624
16989TIP3    H272383   0.970   6.510  12.974 -0.4980  0.8496  0.1365
16990TIP3   OH272384   2.120   5.870   4.269  0.5254 -0.0049  0.1635
16990TIP3    H172385   2.111   5.829   4.355  0.8990  0.7593  0.5781
16990TIP3    H272386   2.070   5.814   4.211 -0.1248 -0.2792  0.9645
16991TIP3   OH272387   1.120   4.499   0.743  0.1426  0.3762  0.6136
16991TIP3    H172388   1.196   4.505   0.800  0.1312  1.6739  0.5119
16991TIP3    H272389   1.144   4.549   0.665  0.2909 -1.6284 -0.7107
16992TIP3   OH272390   4.327   3.782   1.261 -0.0684 -0.1360  0.6641
16992TIP3    H172391   4.389   3.743   1.199 -0.4946  0.1700  0.0423
16992TIP3    H272392   4.347   3.875   1.260 -0.6903 -0.0044  0.2893
16993TIP3   OH272393   2.868   2.751   4.935  0.5951  0.3010 -0.4696
16993TIP3    H172394   2.937   2.696   4.972 -0.3308 -0.1704  0.5885
16993TIP3    H272395   2.786   2.708   4.960 -0.1185  1.5077 -0.6469
16994TIP3   OH272396   1.466   0.804  15.078 -0.6305  0.4460 -0.0025
16994TIP3    H172397   1.428   0.718  15.098  0.9538 -0.7964 -2.0180
16994TIP3    H272398   1.521   0.824  15.154 -1.3459 -0.0649  0.6783
16995TIP3   OH272399   4.752   6.195   4.445 -0.3784  0.4083 -0.3479
16995TIP3    H172400   4.776   6.287   4.445  0.5087  0.2672 -2.6659
16995TIP3    H272401   4.816   6.153   4.502  0.2482  1.0421 -0.5706
16996TIP3   OH272402   2.948   4.341  16.776 -0.3814  0.2473 -0.2567
16996TIP3    H172403   3.012   4.275  16.801 -0.0127  0.1218 -1.4447
16996TIP3    H272404   2.940   4.398  16.852  1.6925  0.7023 -0.3312
16997TIP3   OH272405   6.754   4.392  11.585  0.2941  0.2509 -0.5082
16997TIP3    H172406   6.777   4.449  11.511  0.9147 -0.8791 -1.2247
16997TIP3    H272407   6.837   4.378  11.630  0.1610 -0.1523 -0.3902
16998TIP3   OH272408   6.501   3.425   0.696  0.1141 -0.1166  0.5813
16998TIP3    H172409   6.465   3.506   0.660  1.3492 -0.3403 -1.2797
16998TIP3    H272410   6.424   3.371   0.715 -0.6453  0.4541 -0.7412
16999TIP3   OH272411   4.455   6.268  14.638  0.3902 -0.1592 -0.7116
16999TIP3    H172412   4.508   6.218  14.700 -1.1482 -1.7609 -0.6271
16999TIP3    H272413   4.423   6.203  14.575  0.2656  1.1106 -2.0112
17000TIP3   OH272414   6.324   5.716   5.326  0.1628  0.0334 -0.2042
17000TIP3    H172415   6.315   5.809   5.347 -0.0894  0.1184 -0.6604
17000TIP3    H272416   6.327   5.714   5.230 -0.7401 -0.4986 -0.2368
17001TIP3   OH272417   2.958   2.159   0.314 -0.6706  0.2787  0.1007
17001TIP3    H172418   3.047   2.133   0.292 -1.3295 -0.8168 -1.5094
17001TIP3    H272419   2.930   2.214   0.240 -1.4191  0.3946  0.4585
17002TIP3   OH272420   2.950   4.493   3.796  0.4807  0.4454  0.2629
17002TIP3    H172421   2.965   4.427   3.728  1.2467  1.0818 -0.2147
17002TIP3    H272422   2.943   4.443   3.877 -1.8170 -0.4554 -0.4207
17003TIP3   OH272423   4.004   2.607   2.019  0.2157 -0.2186 -0.4252
17003TIP3    H172424   4.017   2.697   1.990  0.5461  0.1868  0.9273
17003TIP3    H272425   4.025   2.608   2.112 -0.5526 -1.5292 -0.2099
17004TIP3   OH272426   6.650   2.346  17.055 -0.2532  0.1681 -0.0813
17004TIP3    H172427   6.731   2.315  17.014 -0.1217  0.9643 -0.4409
17004TIP3    H272428   6.586   2.347  16.983  0.2312  2.5188 -0.5436
17005TIP3   OH272429   1.813   2.918  12.314  0.7756 -0.1955 -0.6070
17005TIP3    H172430   1.854   2.927  12.400 -0.7707 -1.3224  0.2855
17005TIP3    H272431   1.828   2.827  12.289 -3.0426 -1.4590  0.8750
17006TIP3   OH272432   5.023   0.731   4.351 -0.0400  0.0316 -0.2905
17006TIP3    H172433   4.999   0.758   4.440  1.4859 -1.2448  0.5614
17006TIP3    H272434   4.941   0.735   4.301 -0.7167  1.8355  0.8741
17007TIP3   OH272435   1.845   3.406   2.533 -0.4921  0.1611  0.0492
17007TIP3    H172436   1.809   3.439   2.615  1.2580 -0.2452  1.0411
17007TIP3    H272437   1.933   3.375   2.557 -0.4693 -1.2763 -1.6903
17008TIP3   OH272438   1.096   6.688   0.853  0.4370 -0.6622 -0.1615
17008TIP3    H172439   1.116   6.776   0.820 -0.1201 -0.2907  0.4607
17008TIP3    H272440   1.004   6.674   0.829 -0.4839  0.2486  2.5037
17009TIP3   OH272441   5.072   3.887  16.402 -0.2296  0.2314  0.0706
17009TIP3    H172442   5.104   3.834  16.475  0.9475  0.3134 -0.3595
17009TIP3    H272443   5.121   3.969  16.409 -1.7503  1.1374  0.5015
17010TIP3   OH272444   5.193   4.797   4.254 -0.3177 -0.3509 -0.0994
17010TIP3    H172445   5.160   4.814   4.342 -2.0383 -0.5178 -0.6599
17010TIP3    H272446   5.173   4.705   4.238  1.7053 -0.8416  0.0058
17011TIP3   OH272447   4.174   3.488  13.413 -0.3948  0.5649 -0.1662
17011TIP3    H172448   4.231   3.528  13.478  0.9325  1.5584 -1.8429
17011TIP3    H272449   4.228   3.422  13.370 -1.2478 -0.0963 -0.2670
17012TIP3   OH272450   5.455   5.024   1.267 -0.2340 -0.1871 -0.0120
17012TIP3    H172451   5.497   4.984   1.343  1.2445  1.4340  0.1140
17012TIP3    H272452   5.499   4.983   1.192 -0.4228 -0.5051  0.0497
17013TIP3   OH272453   3.314   5.373   3.038  0.5921  0.0954  0.1605
17013TIP3    H172454   3.341   5.444   3.097 -0.8363 -0.7740  1.9695
17013TIP3    H272455   3.384   5.308   3.045  2.0928  1.3695 -1.7867
17014TIP3   OH272456   2.879   6.194  14.533  0.6208 -0.3929  0.0238
17014TIP3    H172457   2.928   6.165  14.610  1.5336 -3.3286 -1.4928
17014TIP3    H272458   2.945   6.198  14.463 -0.7886 -1.8951 -1.4927
17015TIP3   OH272459   2.698   5.742  15.363 -0.5456 -0.2751 -0.1455
17015TIP3    H172460   2.666   5.726  15.274  0.0967  0.8780 -0.6033
17015TIP3    H272461   2.618   5.754  15.415 -0.9114 -0.3920 -0.6730
17016TIP3   OH272462   6.785   5.246   2.750  0.1679  0.2348 -0.0107
17016TIP3    H172463   6.834   5.321   2.719  2.0634 -0.4202  1.2437
17016TIP3    H272464   6.766   5.265   2.842  0.8791 -0.8687  0.3937
17017TIP3   OH272465   0.455   2.382  14.566  0.6894  0.4825  0.5620
17017TIP3    H172466   0.448   2.400  14.659 -1.5524  0.2122  0.4921
17017TIP3    H272467   0.367   2.393  14.532  1.8357  2.9998 -2.0379
17018TIP3   OH272468   0.055   2.769   4.107  0.0313  0.5862 -0.4760
17018TIP3    H172469   0.122   2.708   4.139  0.3748  1.3337  0.2518
17018TIP3    H272470  -0.011   2.770   4.176 -0.5883  0.1029 -1.0455
17019TIP3   OH272471   1.813   1.513  12.325  0.4643  0.2318  0.6094
17019TIP3    H172472   1.760   1.519  12.405 -1.1473 -2.3513 -0.1396
17019TIP3    H272473   1.758   1.552  12.257  0.4350 -0.5174  0.1993
17020TIP3   OH272474   6.126   0.415   2.736  0.1846  0.4776  0.0535
17020TIP3    H172475   6.132   0.354   2.663  1.3224  0.5302  0.0862
17020TIP3    H272476   6.180   0.490   2.709 -1.2688  1.5267 -0.0299
17021TIP3   OH272477   3.453   1.806   0.099  0.0294  0.1356  0.0113
17021TIP3    H172478   3.503   1.824   0.019  1.1530 -1.5133  0.2861
17021TIP3    H272479   3.361   1.815   0.072  0.2803 -2.3053 -2.0527
17022TIP3   OH272480   3.622   5.898  14.065 -0.4373 -0.1862 -0.1930
17022TIP3    H172481   3.552   5.915  14.002 -1.2062  0.0827  0.6967
17022TIP3    H272482   3.579   5.848  14.135  0.2589 -0.0189  0.3677
17023TIP3   OH272483   6.719   0.475  16.801  0.2941 -0.6562 -0.3687
17023TIP3    H172484   6.657   0.540  16.768 -0.7437 -2.4254 -2.1961
17023TIP3    H272485   6.687   0.452  16.888  0.3523  0.8216  0.0652
17024TIP3   OH272486   1.776   2.027   1.498  0.0188  0.4443 -0.0507
17024TIP3    H172487   1.728   1.945   1.494  1.0470 -0.2110  0.5663
17024TIP3    H272488   1.868   2.002   1.493  0.4114  1.4429  1.3760
17025TIP3   OH272489   1.940   6.653  14.090 -0.7169 -0.1176 -0.4679
17025TIP3    H172490   1.975   6.615  14.010 -0.8752 -0.4975 -0.3621
17025TIP3    H272491   1.874   6.590  14.120 -0.2892 -0.2458  0.2414
17026TIP3   OH272492   1.300   6.115  11.436 -0.3079  0.4684 -0.1305
17026TIP3    H172493   1.349   6.033  11.439 -0.8251  0.1824  0.7957
17026TIP3    H272494   1.300   6.139  11.343 -1.5555 -1.4486 -0.6829
17027TIP3   OH272495   0.083   5.381  16.215 -0.1486  0.4123  0.0953
17027TIP3    H172496   0.111   5.388  16.124 -0.3317 -1.2738 -0.1242
17027TIP3    H272497   0.006   5.438  16.221 -1.4233 -1.0335 -1.3901
17028TIP3   OH272498   6.212   4.347  16.571  0.2291 -0.0359 -0.7312
17028TIP3    H172499   6.205   4.408  16.645 -2.7338 -4.0713  2.7889
17028TIP3    H272500   6.283   4.288  16.595 -1.1859 -1.7838 -0.6879
17029TIP3   OH272501   6.299   1.896   3.244 -0.4235  0.4324  0.2533
17029TIP3    H172502   6.245   1.818   3.258  2.1734 -1.6645 -0.5773
17029TIP3    H272503   6.373   1.886   3.305 -0.2501  2.5227  0.4595
17030TIP3   OH272504   6.135   2.687  13.763  0.3262 -0.2546 -0.0882
17030TIP3    H172505   6.077   2.615  13.786 -1.2180  1.0600  0.2795
17030TIP3    H272506   6.222   2.656  13.787 -0.3108 -1.9138  0.2211
17031TIP3   OH272507   1.415   3.768  11.910 -0.4371 -0.0856  0.4254
17031TIP3    H172508   1.472   3.693  11.927 -0.0728  0.3839  1.3614
17031TIP3    H272509   1.466   3.826  11.855  0.6224  1.0287  2.4717
17032TIP3   OH272510   3.844   3.604   3.636 -0.5776 -0.6107 -0.4651
17032TIP3    H172511   3.854   3.578   3.544  0.8224  0.1026 -0.5535
17032TIP3    H272512   3.811   3.694   3.631  0.5450 -0.1640 -0.3336
17033TIP3   OH272513   6.449   5.195   6.362 -0.9889 -0.1624  0.2400
17033TIP3    H172514   6.521   5.230   6.416  0.0577 -0.2401 -1.0611
17033TIP3    H272515   6.389   5.269   6.353 -0.2743  0.4058  0.0179
17034TIP3   OH272516   1.474   5.025   0.385 -1.0314 -0.8611 -0.2300
17034TIP3    H172517   1.395   5.080   0.387 -0.7339 -0.3535 -1.4653
17034TIP3    H272518   1.466   4.969   0.462 -0.7684  1.7104  1.8133
17035TIP3   OH272519   5.867   2.375   1.506 -0.3635 -0.1499 -0.2699
17035TIP3    H172520   5.907   2.365   1.419  0.0267 -0.1951 -0.0843
17035TIP3    H272521   5.774   2.386   1.487 -0.2451  0.1382 -0.7153
17036TIP3   OH272522   0.230   3.916   4.849  0.0328 -0.1752 -0.5411
17036TIP3    H172523   0.244   4.010   4.836  2.9323 -0.2317  1.2542
17036TIP3    H272524   0.263   3.876   4.768  0.4991  0.2911 -0.5899
17037TIP3   OH272525   5.914   1.289   0.579  0.1339  0.7223  0.4684
17037TIP3    H172526   5.902   1.194   0.587 -0.3576  0.5879 -1.3957
17037TIP3    H272527   5.887   1.324   0.663  0.2540 -0.7806  1.1651
17038TIP3   OH272528   2.515   6.572  11.217 -0.0289  0.1965 -0.3220
17038TIP3    H172529   2.507   6.655  11.170  0.0048  1.2497  1.4605
17038TIP3    H272530   2.435   6.525  11.196  1.1112 -0.6014 -3.5748
17039TIP3   OH272531   5.952   0.656   2.415  0.3328  0.7862  0.5173
17039TIP3    H172532   5.955   0.642   2.509 -1.2383  0.8325  0.6039
17039TIP3    H272533   5.954   0.751   2.404 -0.5681  0.8253  0.5869
17040TIP3   OH272534   5.871   2.910   5.234 -0.3343 -0.7400 -0.1575
17040TIP3    H172535   5.911   2.838   5.283 -3.3444 -1.4418  1.5097
17040TIP3    H272536   5.830   2.965   5.300 -0.6111  0.8973 -1.6142
17041TIP3   OH272537   1.627   3.397   6.417 -0.2205 -0.1631 -0.2231
17041TIP3    H172538   1.640   3.313   6.374  0.9407  0.7004 -1.6619
17041TIP3    H272539   1.701   3.405   6.477 -0.3422 -0.1812 -0.0711
17042TIP3   OH272540   2.523   0.808   5.881  0.0026  0.4639 -0.0248
17042TIP3    H172541   2.483   0.722   5.868 -1.1188  1.0162 -0.4083
17042TIP3    H272542   2.491   0.836   5.967 -1.0520  1.2070 -0.6344
17043TIP3   OH272543   3.588   2.758   5.403  0.5749 -0.3064  0.1246
17043TIP3    H172544   3.540   2.749   5.486  0.8227  1.0195  0.4408
17043TIP3    H272545   3.573   2.849   5.377  1.0808 -0.5110 -0.9321
17044TIP3   OH272546   0.257   1.381   6.214  0.0115 -0.0519 -0.1040
17044TIP3    H172547   0.218   1.336   6.139  0.0054  0.5808 -0.4853
17044TIP3    H272548   0.203   1.354   6.288 -0.1191 -0.5073 -0.3591
17045TIP3   OH272549   1.502   4.345   3.880  0.3220 -0.1954 -0.3927
17045TIP3    H172550   1.575   4.378   3.932  0.5369 -1.0539 -0.1237
17045TIP3    H272551   1.518   4.251   3.874 -1.0225 -0.4908  0.1195
17046TIP3   OH272552   2.025   3.609  16.162 -0.1223  0.2316 -0.7515
17046TIP3    H172553   2.095   3.669  16.134 -0.7150  1.8134  0.9539
17046TIP3    H272554   1.956   3.623  16.098  0.2551  0.3690 -1.1365
17047TIP3   OH272555   3.661   6.539  14.030 -0.4883 -0.4839 -0.3545
17047TIP3    H172556   3.750   6.565  14.007 -0.7832  0.8860  0.0128
17047TIP3    H272557   3.616   6.531  13.946  0.8932 -4.9975 -0.9248
17048TIP3   OH272558   0.345   2.490  13.251 -0.2087  0.0697 -0.1930
17048TIP3    H172559   0.317   2.450  13.334  0.7166  0.9070  0.5545
17048TIP3    H272560   0.421   2.440  13.224 -2.2967 -2.2254 -2.2439
17049TIP3   OH272561   2.711   1.249   1.590  0.1277  0.2634 -0.9557
17049TIP3    H172562   2.701   1.319   1.653  1.8666 -0.0221 -0.2882
17049TIP3    H272563   2.795   1.267   1.547 -0.7278  0.1365 -2.8192
17050TIP3   OH272564   6.663   6.336  11.752 -0.4394 -0.0780  0.1885
17050TIP3    H172565   6.680   6.409  11.693  1.2621 -0.4708  0.1582
17050TIP3    H272566   6.640   6.376  11.836  1.9078  0.5414  0.5917
17051TIP3   OH272567   5.079   2.663   2.997  0.1287 -0.4781 -0.3922
17051TIP3    H172568   4.994   2.671   2.955 -0.1546 -0.3508  0.1973
17051TIP3    H272569   5.121   2.748   2.986 -0.6150  0.0992  1.0039
17052TIP3   OH272570   3.883   2.882  16.233 -0.4209 -0.2680 -0.0658
17052TIP3    H172571   3.808   2.933  16.263 -1.1553 -0.4721 -1.4844
17052TIP3    H272572   3.926   2.938  16.168  1.2390  0.2420  1.4006
17053TIP3   OH272573   3.616   1.789  15.296 -0.0813  0.5677 -0.2432
17053TIP3    H172574   3.691   1.819  15.245 -0.6243  0.3948 -1.1639
17053TIP3    H272575   3.542   1.795  15.236 -0.6603 -0.0668  0.3892
17054TIP3   OH272576   1.007   2.649   0.831  0.3696  0.1377 -0.2395
17054TIP3    H172577   1.069   2.612   0.768  0.0610 -0.4376 -0.2038
17054TIP3    H272578   1.057   2.718   0.875  0.9033 -0.1427 -0.3977
17055TIP3   OH272579   1.938   4.271   6.509 -0.5054 -0.1003  0.0345
17055TIP3    H172580   1.890   4.353   6.498 -1.3338 -0.4319  1.0296
17055TIP3    H272581   2.025   4.288   6.471 -0.7919  1.1017 -0.1011
17056TIP3   OH272582   3.871   4.578   3.332 -0.1410 -0.5220 -0.2727
17056TIP3    H172583   3.959   4.573   3.369 -1.2466  0.4509  2.8042
17056TIP3    H272584   3.875   4.522   3.254  2.5851 -2.3467  0.9973
17057TIP3   OH272585   4.058   2.514   3.169 -0.4084 -0.4103  0.0149
17057TIP3    H172586   3.973   2.519   3.213 -0.6556 -0.0265 -0.4944
17057TIP3    H272587   4.038   2.521   3.076  0.2895  1.4276 -0.0515
17058TIP3   OH272588   5.160   2.794   5.005 -0.1913 -0.1347  0.2175
17058TIP3    H172589   5.197   2.813   4.918 -0.0681 -0.2118  0.2522
17058TIP3    H272590   5.184   2.703   5.021  0.6014  0.1483  0.7285
17059TIP3   OH272591   2.450   1.676   4.524  0.0061 -0.2698 -0.4701
17059TIP3    H172592   2.432   1.588   4.491  0.0900 -0.1760 -0.7730
17059TIP3    H272593   2.368   1.704   4.564  0.1986 -0.7733  0.2839
17060TIP3   OH272594   4.903   1.495  11.369  0.4825  0.0907 -0.2608
17060TIP3    H172595   4.965   1.562  11.341  1.3485 -0.9598 -0.9575
17060TIP3    H272596   4.949   1.412  11.354 -0.4684 -0.6585  0.7889
17061TIP3   OH272597   4.271   4.131   2.210 -0.0835  0.2157  0.5118
17061TIP3    H172598   4.290   4.129   2.303 -2.4807  0.7008  1.0595
17061TIP3    H272599   4.178   4.151   2.204 -0.1047 -0.2708 -1.9847
17062TIP3   OH272600   3.437   0.658  14.260 -0.2712  0.4171 -0.1311
17062TIP3    H172601   3.393   0.579  14.229  3.5422 -2.1718  0.3678
17062TIP3    H272602   3.411   0.666  14.351  0.6136 -1.4312  0.3380
17063TIP3   OH272603   6.077   4.018  14.394 -0.1537 -0.2451 -0.3886
17063TIP3    H172604   6.141   3.979  14.454 -1.2909 -0.4089  0.7525
17063TIP3    H272605   6.121   4.097  14.362  1.1141 -1.0159 -0.6355
17064TIP3   OH272606   3.967   3.881  12.520  0.5039  0.3928  0.2663
17064TIP3    H172607   4.018   3.852  12.595 -2.5716 -3.2032  1.2860
17064TIP3    H272608   3.996   3.825  12.448  0.8314  1.2344 -0.2768
17065TIP3   OH272609   5.431   6.753  12.049 -0.3932 -0.1180  0.2138
17065TIP3    H172610   5.430   6.667  12.091 -2.4930  0.6052  1.8222
17065TIP3    H272611   5.499   6.801  12.097  0.0202 -0.5322  0.0530
17066TIP3   OH272612   4.599   5.738   6.086 -0.1305  0.1742 -0.6647
17066TIP3    H172613   4.655   5.815   6.077  1.0722 -0.6710 -0.6544
17066TIP3    H272614   4.522   5.770   6.133 -0.4802  1.7469 -2.2255
17067TIP3   OH272615   1.737   3.534  16.559 -0.2635 -0.3160  0.8204
17067TIP3    H172616   1.760   3.508  16.470 -1.6186 -0.3624  0.4648
17067TIP3    H272617   1.750   3.455  16.612 -0.2731 -0.5234  0.5109
17068TIP3   OH272618   0.308   3.858  14.742  0.1832  0.2888  0.1907
17068TIP3    H172619   0.220   3.852  14.780  0.2008 -0.5268  0.1110
17068TIP3    H272620   0.354   3.781  14.775  0.6286  0.3008 -0.3871
17069TIP3   OH272621   0.624   4.396   4.758  0.2393 -0.7369 -0.5832
17069TIP3    H172622   0.709   4.430   4.727  0.2274 -0.9814 -0.8840
17069TIP3    H272623   0.579   4.368   4.679  0.1273 -1.1894 -0.3588
17070TIP3   OH272624   4.297   1.513  13.528 -0.2760  0.7072 -0.0271
17070TIP3    H172625   4.230   1.510  13.460  0.1263 -0.1719 -0.4158
17070TIP3    H272626   4.364   1.450  13.498  0.5244  1.2629  0.5395
17071TIP3   OH272627   6.429   0.612   1.079  0.2540 -0.1458  0.0177
17071TIP3    H172628   6.488   0.686   1.093  0.7449 -0.0964 -2.0660
17071TIP3    H272629   6.341   0.651   1.080  0.5098  0.4933 -1.0869
17072TIP3   OH272630   5.448   4.338   3.055 -0.2216  0.3349  0.7375
17072TIP3    H172631   5.423   4.360   2.965 -1.5971  0.6199  1.1731
17072TIP3    H272632   5.534   4.378   3.066 -0.7861  1.7951  0.0950
17073TIP3   OH272633   2.830   4.633  14.261  0.0413  0.1127  0.3440
17073TIP3    H172634   2.813   4.646  14.354 -0.5403 -2.9154  0.7612
17073TIP3    H272635   2.790   4.709  14.219 -2.2558  0.1782  2.3860
17074TIP3   OH272636   0.212   6.701  14.719  0.4184  0.3641 -0.5028
17074TIP3    H172637   0.259   6.686  14.800  0.3365  3.1474  0.1844
17074TIP3    H272638   0.201   6.614  14.680  2.2274 -0.8220  1.4394
17075TIP3   OH272639   2.685   1.215  14.536  0.0764  0.1009 -0.0050
17075TIP3    H172640   2.736   1.239  14.459  1.0141  2.2972  1.2299
17075TIP3    H272641   2.616   1.281  14.541 -0.1507 -0.1928  0.8777
17076TIP3   OH272642   4.016   5.389  11.873  0.4358 -0.4024 -0.7796
17076TIP3    H172643   3.960   5.427  11.941  0.9416 -1.8239  0.4679
17076TIP3    H272644   4.065   5.464  11.839 -0.1824  0.4191  0.0766
17077TIP3   OH272645   1.994   6.468  14.855  0.1860  0.4313 -0.2282
17077TIP3    H172646   1.907   6.499  14.831  0.2646  0.2462 -0.7736
17077TIP3    H272647   1.983   6.427  14.940 -0.4954 -0.5803 -0.7848
17078TIP3   OH272648   6.132   4.435  13.513  0.6604  0.0698 -0.1230
17078TIP3    H172649   6.116   4.461  13.604  0.7390  0.4166 -0.2065
17078TIP3    H272650   6.222   4.401  13.513  0.9385  0.7807 -0.2173
17079TIP3   OH272651   3.214   3.847   6.257 -0.2407  0.2599  0.3895
17079TIP3    H172652   3.252   3.788   6.322 -2.9027 -0.6311  1.2743
17079TIP3    H272653   3.147   3.896   6.304  0.6345  2.7499 -0.7690
17080TIP3   OH272654   0.040   6.698   5.907  0.6962  0.6033 -0.1520
17080TIP3    H172655   0.072   6.627   5.963 -0.1969  1.0219  0.9052
17080TIP3    H272656  -0.051   6.676   5.889  0.2154  1.8020  0.7252
17081TIP3   OH272657   5.747   3.556  14.165 -0.2157  0.0873  0.1305
17081TIP3    H172658   5.707   3.584  14.082  1.7968 -1.1723 -1.3517
17081TIP3    H272659   5.801   3.630  14.192  0.1414  0.0314 -0.4077
17082TIP3   OH272660   5.021   1.340  11.740 -0.2000  0.1175 -0.3174
17082TIP3    H172661   5.055   1.393  11.812 -1.2411  0.6415 -0.1964
17082TIP3    H272662   4.995   1.403  11.673 -0.5387 -0.2852 -0.5755
17083TIP3   OH272663   4.868   0.393   2.211 -0.3157 -0.2665 -0.4904
17083TIP3    H172664   4.794   0.343   2.245  0.7928 -0.5129  1.7775
17083TIP3    H272665   4.830   0.476   2.183 -1.4796 -0.4138  0.5726
17084TIP3   OH272666   5.413   1.089   2.239 -0.0172  0.1356 -0.3284
17084TIP3    H172667   5.443   1.032   2.310  0.9185 -0.9019 -1.5182
17084TIP3    H272668   5.443   1.177   2.264 -0.6363 -0.0279  1.0543
17085TIP3   OH272669   1.593   2.747  15.853  0.0627 -0.0735  0.0121
17085TIP3    H172670   1.569   2.808  15.922 -1.4244 -0.0146 -0.5260
17085TIP3    H272671   1.662   2.792  15.804 -1.1364  1.3009 -0.4934
17086TIP3   OH272672   3.304   3.675   6.476  0.0978  0.2342 -0.1094
17086TIP3    H172673   3.233   3.616   6.502  0.4424 -0.3067 -0.3720
17086TIP3    H272674   3.378   3.648   6.530  0.0837  0.8648  0.2364
17087TIP3   OH272675   6.742   4.844  16.263  0.1525 -0.3805 -0.0171
17087TIP3    H172676   6.753   4.824  16.170 -1.2898 -0.7569 -0.1277
17087TIP3    H272677   6.731   4.939  16.266  0.3756 -0.3486 -0.2127
17088TIP3   OH272678   2.953   2.380   1.552  0.1271 -0.0058  0.4109
17088TIP3    H172679   2.984   2.317   1.487 -1.0794 -0.0543 -0.1253
17088TIP3    H272680   2.986   2.346   1.635  3.6577  1.2394 -0.2974
17089TIP3   OH272681   3.879   1.496   3.203 -0.3180  0.3756 -0.1028
17089TIP3    H172682   3.899   1.500   3.297 -1.4244  0.0444  0.1590
17089TIP3    H272683   3.961   1.467   3.163  0.3377  1.0866  0.6897
17090TIP3   OH272684   3.298   2.064   4.975 -0.7025 -0.2080 -0.4962
17090TIP3    H172685   3.349   1.996   5.021 -1.8464 -0.7687 -0.0096
17090TIP3    H272686   3.336   2.146   5.006  0.8182 -0.5900 -1.2176
17091TIP3   OH272687   5.622   4.250   0.379  0.3536 -0.3458 -0.0481
17091TIP3    H172688   5.601   4.170   0.331 -0.1343 -0.6556  0.6662
17091TIP3    H272689   5.700   4.284   0.336  0.7130 -1.3403 -0.2089
17092TIP3   OH272690   3.501   4.488   5.132 -0.1817  0.4588 -0.2116
17092TIP3    H172691   3.543   4.542   5.065 -1.0066  1.3031 -0.0769
17092TIP3    H272692   3.561   4.491   5.206 -1.1209  2.9796  0.5627
17093TIP3   OH272693   6.663   5.736  10.467 -0.6061 -0.5129 -0.2553
17093TIP3    H172694   6.609   5.674  10.418 -2.0972  1.2431 -0.9500
17093TIP3    H272695   6.603   5.805  10.493  0.7647  0.1162  1.4917
17094TIP3   OH272696   5.432   2.718  16.516  0.5534 -0.0898 -0.3977
17094TIP3    H172697   5.360   2.693  16.458  0.4409  0.7187 -0.6088
17094TIP3    H272698   5.398   2.703  16.604 -0.1865  1.1061 -0.4686
17095TIP3   OH272699   5.829   2.932   1.260  0.2362 -0.5268  0.8173
17095TIP3    H172700   5.830   2.851   1.209 -0.4283 -0.1209  0.1393
17095TIP3    H272701   5.751   2.978   1.229  0.5279  0.3018  1.3071
17096TIP3   OH272702   0.034   1.869   0.291  0.0903  0.3406  0.1520
17096TIP3    H172703   0.103   1.917   0.244 -0.1109 -0.7654 -1.3369
17096TIP3    H272704   0.066   1.865   0.381 -0.0713  3.5614  0.4781
17097TIP3   OH272705   3.373   3.093  11.368  0.4731  0.2802  0.0995
17097TIP3    H172706   3.391   3.168  11.424  1.5148  0.3224 -0.2850
17097TIP3    H272707   3.448   3.035  11.380  0.1240 -0.2723 -0.3212
17098TIP3   OH272708   0.862   1.681  12.620  0.0546 -0.1163 -0.1419
17098TIP3    H172709   0.848   1.590  12.643  2.0075 -1.2045 -2.7748
17098TIP3    H272710   0.890   1.679  12.528 -0.6598  3.2126 -0.5677
17099TIP3   OH272711   0.424   0.259   6.290 -0.5281 -0.0046 -0.4081
17099TIP3    H172712   0.388   0.238   6.203 -0.4540 -0.5068 -0.3209
17099TIP3    H272713   0.493   0.194   6.304  0.0229  0.5923 -0.3208
17100TIP3   OH272714   0.820   3.911   3.087 -0.3136  0.5997 -0.5695
17100TIP3    H172715   0.879   3.852   3.040 -0.9765 -1.0682  0.5866
17100TIP3    H272716   0.734   3.870   3.079 -0.6811  1.0535  0.8344
17101TIP3   OH272717   3.201   6.400  11.104 -0.8568 -0.2477  0.1927
17101TIP3    H172718   3.151   6.330  11.062 -0.1201  0.1759 -1.4734
17101TIP3    H272719   3.287   6.361  11.122 -1.3109 -0.5801  1.8644
17102TIP3   OH272720   5.037   1.319   2.534  0.1137  0.1808 -0.1980
17102TIP3    H172721   5.036   1.360   2.621  0.2554 -0.9259  0.3452
17102TIP3    H272722   4.992   1.235   2.547  1.7273 -0.8158 -0.7512
17103TIP3   OH272723   1.200   6.554  16.351  0.3313  0.4068 -0.1020
17103TIP3    H172724   1.263   6.482  16.355  1.1344  1.0407 -0.8855
17103TIP3    H272725   1.133   6.532  16.416  0.1210 -1.4492 -0.8842
17104TIP3   OH272726   2.962   6.705   1.669  0.1041 -0.3895 -0.6753
17104TIP3    H172727   2.920   6.676   1.750  0.0928  0.1009 -0.5032
17104TIP3    H272728   2.901   6.768   1.630  0.7215  0.4313 -0.3550
17105TIP3   OH272729   3.551   4.350   3.168  0.5131  0.6431  0.5321
17105TIP3    H172730   3.622   4.290   3.146 -0.3809 -0.1771 -0.2181
17105TIP3    H272731   3.503   4.306   3.238  0.8022  1.2473  1.1213
17106TIP3   OH272732   3.609   6.192  15.727  0.0506  0.1258 -0.1880
17106TIP3    H172733   3.646   6.260  15.782 -0.2572  2.0130 -2.1738
17106TIP3    H272734   3.683   6.134  15.707  0.6319  0.6475  0.4249
17107TIP3   OH272735   3.362   5.783  15.960 -0.0847  0.7970 -0.0891
17107TIP3    H172736   3.430   5.812  15.900 -0.8396  1.9891 -0.4067
17107TIP3    H272737   3.311   5.720  15.909  0.2362  0.5947 -0.1599
17108TIP3   OH272738   2.620   2.875   4.094  0.3151  0.0086  0.0759
17108TIP3    H172739   2.554   2.846   4.156 -0.6802  0.9114 -0.5333
17108TIP3    H272740   2.633   2.800   4.036 -1.4607  0.3755 -0.8507
17109TIP3   OH272741   3.233   2.404  16.682 -0.3589 -0.3035 -0.3836
17109TIP3    H172742   3.271   2.488  16.706 -0.2905 -0.5424  0.3711
17109TIP3    H272743   3.258   2.391  16.591  0.9305 -0.2206 -0.0586
17110TIP3   OH272744   4.129   4.856   4.203  0.1329  0.2827 -0.4790
17110TIP3    H172745   4.171   4.919   4.261  1.6642  0.4283 -1.6658
17110TIP3    H272746   4.090   4.791   4.261  0.7902  0.9323  0.7159
17111TIP3   OH272747   2.276   5.818  11.297 -0.2103 -0.3960  0.1747
17111TIP3    H172748   2.291   5.825  11.203  0.2753 -0.3237  0.2586
17111TIP3    H272749   2.290   5.907  11.330  0.2813 -0.5560  0.4092
17112TIP3   OH272750   2.076   3.011  14.389 -0.0446 -0.8999  0.2437
17112TIP3    H172751   2.033   3.007  14.474 -0.8933 -1.2568 -0.1941
17112TIP3    H272752   2.170   3.013  14.410 -0.2660  0.2552  1.2107
17113TIP3   OH272753   4.622   6.435  16.804  0.1901 -0.4738 -0.1750
17113TIP3    H172754   4.598   6.520  16.766  1.0109  0.4456  1.2378
17113TIP3    H272755   4.568   6.371  16.757 -1.5359  0.9819 -0.2839
17114TIP3   OH272756   2.752   4.735  15.053 -0.4023 -0.1622  0.5725
17114TIP3    H172757   2.814   4.796  15.014 -0.6073 -1.5946 -2.2252
17114TIP3    H272758   2.739   4.768  15.142  3.3754  0.8903  0.9029
17115TIP3   OH272759   1.045   0.801  13.228  0.2171  0.8486  0.4461
17115TIP3    H172760   0.949   0.807  13.232  0.1575 -0.5160  1.9840
17115TIP3    H272761   1.063   0.707  13.231  1.6360  1.1040  0.5747
17116TIP3   OH272762   5.920   4.854   6.047 -0.2240  0.2361 -0.8753
17116TIP3    H172763   5.894   4.771   6.087 -0.0931  1.3141  1.6790
17116TIP3    H272764   5.848   4.913   6.066  1.0739  1.5209  0.2972
17117TIP3   OH272765   3.979   1.935  12.053  0.3129 -0.6919 -0.7926
17117TIP3    H172766   3.939   1.882  11.985  0.3839 -1.7437 -0.0380
17117TIP3    H272767   4.020   1.871  12.112  1.2825  0.2486 -0.4120
17118TIP3   OH272768   2.578   0.413   0.259 -0.5132  0.0205 -0.1544
17118TIP3    H172769   2.606   0.369   0.339 -0.3346  0.0486 -0.2011
17118TIP3    H272770   2.642   0.387   0.193  1.1204  2.3352  0.3887
17119TIP3   OH272771   0.545   0.163   5.834 -0.0265  0.4685 -0.1851
17119TIP3    H172772   0.550   0.127   5.745  1.7908 -0.2893  0.1755
17119TIP3    H272773   0.490   0.101   5.882  1.1131 -0.5684 -0.1707
17120TIP3   OH272774   5.755   5.164   2.517  0.2537  0.6469  0.2893
17120TIP3    H172775   5.767   5.082   2.565 -1.9402 -0.2180 -0.4908
17120TIP3    H272776   5.660   5.173   2.508  0.3811  3.7402  1.0597
17121TIP3   OH272777   1.531   4.132   3.259  0.0494  0.0351 -0.5654
17121TIP3    H172778   1.526   4.213   3.209  0.8441  0.1731 -0.4165
17121TIP3    H272779   1.610   4.139   3.311 -0.0151 -0.7201 -0.3458
17122TIP3   OH272780   4.365   5.555  16.438 -0.0434  0.2685  0.2694
17122TIP3    H172781   4.328   5.608  16.508 -0.9417  1.2970 -0.9367
17122TIP3    H272782   4.444   5.517  16.475 -0.6960  0.4834  1.9417
17123TIP3   OH272783   5.126   1.704  12.186  0.5465 -0.0874  0.2813
17123TIP3    H172784   5.080   1.692  12.102  0.8526 -1.2889  0.2556
17123TIP3    H272785   5.107   1.624  12.235  0.8039  0.3732  1.1527
17124TIP3   OH272786   6.360   1.546  12.215 -0.2209  0.6313 -0.2580
17124TIP3    H172787   6.402   1.463  12.192 -0.2678  0.8266 -1.0917
17124TIP3    H272788   6.409   1.611  12.165 -0.9426  0.9626 -0.5483
17125TIP3   OH272789   4.521   2.900  15.919  0.0805  0.1458 -0.3947
17125TIP3    H172790   4.565   2.847  15.853 -1.0800 -2.4451  0.7541
17125TIP3    H272791   4.432   2.911  15.886  0.3636  1.6799 -0.7281
17126TIP3   OH272792   0.255   6.039   1.121 -0.4103  0.8011  0.0422
17126TIP3    H172793   0.309   6.114   1.096  0.6901 -0.2681 -0.9216
17126TIP3    H272794   0.300   6.002   1.197 -0.1032  0.2645 -0.3924
17127TIP3   OH272795   4.729   1.440   0.853  0.5472 -0.0168 -0.3583
17127TIP3    H172796   4.759   1.459   0.764  0.4850 -0.2531 -0.4327
17127TIP3    H272797   4.793   1.377   0.886 -0.8138 -1.9379 -1.1651
17128TIP3   OH272798   1.299   5.205   5.159 -0.6707  0.1710 -0.4887
17128TIP3    H172799   1.256   5.157   5.230 -0.7723  0.1509 -0.5639
17128TIP3    H272800   1.227   5.229   5.100 -0.8068  1.5217  0.1817
17129TIP3   OH272801   2.509   4.217   5.948 -0.4031 -0.4340  0.6934
17129TIP3    H172802   2.418   4.233   5.925 -0.2518  0.2536  0.5276
17129TIP3    H272803   2.546   4.174   5.871  0.2449  2.3759 -0.7152
17130TIP3   OH272804   5.565   3.114  12.510 -0.6404 -0.5577 -0.1102
17130TIP3    H172805   5.589   3.092  12.600 -3.0255  0.1899  0.7771
17130TIP3    H272806   5.500   3.184  12.519 -1.8961 -1.3443 -2.3542
17131TIP3   OH272807   4.156   1.607   2.158  0.1698  0.2642  0.0622
17131TIP3    H172808   4.148   1.569   2.245 -1.7263  1.2924  0.3839
17131TIP3    H272809   4.071   1.593   2.117  0.6276  0.9009 -1.1688
17132TIP3   OH272810   2.671   3.841   5.048 -0.0287 -0.2413  0.7142
17132TIP3    H172811   2.585   3.858   5.009  0.3547 -0.3900 -0.2299
17132TIP3    H272812   2.732   3.882   4.987  0.5709 -0.0315  1.4412
17133TIP3   OH272813   0.291   2.253   1.300  0.1383 -0.1190 -0.3748
17133TIP3    H172814   0.322   2.172   1.341 -0.6514  0.3957  1.3447
17133TIP3    H272815   0.201   2.233   1.274  0.7999 -0.6066 -2.4257
17134TIP3   OH272816   4.531   4.139   4.758 -0.0465 -0.3045  0.2347
17134TIP3    H172817   4.473   4.063   4.755 -1.3731  0.6860 -2.5589
17134TIP3    H272818   4.536   4.162   4.851 -1.1196 -2.6401  0.9389
17135TIP3   OH272819   6.750   3.246   2.507 -0.0175 -0.4076 -0.2512
17135TIP3    H172820   6.682   3.299   2.549 -0.3222 -0.8862 -0.1340
17135TIP3    H272821   6.702   3.176   2.463  0.3096 -0.0260 -1.2466
17136TIP3   OH272822   2.370   0.689   1.000 -0.3063  0.3232 -0.4114
17136TIP3    H172823   2.343   0.621   0.938  0.2711  1.2141 -1.6628
17136TIP3    H272824   2.458   0.663   1.027 -0.8075 -0.4238  0.5930
17137TIP3   OH272825   5.516   5.688  15.409 -0.1105 -0.3124 -0.0770
17137TIP3    H172826   5.568   5.620  15.367  0.9303  0.5729 -0.2713
17137TIP3    H272827   5.504   5.754  15.340 -2.8347 -1.1640 -0.5251
17138TIP3   OH272828   4.974   3.381  13.554  0.1114  0.0952  0.6554
17138TIP3    H172829   5.046   3.404  13.613  0.0180 -0.7973  1.1356
17138TIP3    H272830   5.002   3.413  13.468  1.8801 -1.7546  0.4873
17139TIP3   OH272831   6.203   2.493   6.126  0.4159  0.7622 -0.2786
17139TIP3    H172832   6.175   2.553   6.195  1.1655  0.9090 -0.0958
17139TIP3    H272833   6.217   2.410   6.172  1.8490  1.1004 -0.0619
17140TIP3   OH272834   4.325   5.504  16.085  0.0593  0.1313  0.1904
17140TIP3    H172835   4.332   5.492  15.990  0.0438 -2.2524  0.4375
17140TIP3    H272836   4.247   5.558  16.096 -0.3664 -0.1518 -1.1341
17141TIP3   OH272837   3.968   5.772  10.397  0.3257 -0.0235 -0.0997
17141TIP3    H172838   3.996   5.859  10.425 -1.5474  0.4087  0.5567
17141TIP3    H272839   4.044   5.716  10.415  0.6364  0.9748  2.1312
17142TIP3   OH272840   0.570   0.159  13.545 -0.3978  0.6196  0.1660
17142TIP3    H172841   0.618   0.096  13.599 -1.9474 -1.6074 -0.9169
17142TIP3    H272842   0.638   0.213  13.505  1.0169 -0.4708  1.0063
17143TIP3   OH272843   1.221   1.093   4.778  0.3508  0.4528  0.3937
17143TIP3    H172844   1.192   1.004   4.800 -1.8908  0.6412 -1.4312
17143TIP3    H272845   1.287   1.080   4.710  0.2500  0.1708  0.3468
17144TIP3   OH272846   2.701   0.698  12.212 -0.5904 -0.3102 -0.3016
17144TIP3    H172847   2.684   0.789  12.189  1.5196 -0.0751 -1.2379
17144TIP3    H272848   2.615   0.656  12.214 -1.7133  1.8744  1.1301
17145TIP3   OH272849   6.156   5.440  15.088 -0.2021  0.6362 -0.2437
17145TIP3    H172850   6.154   5.453  15.182  0.1475  2.0363 -0.3948
17145TIP3    H272851   6.072   5.475  15.058 -0.3583  0.0968 -0.4472
17146TIP3   OH272852   5.670   3.158  16.570  0.6862 -0.1522 -0.1936
17146TIP3    H172853   5.746   3.196  16.525  0.0339  1.5515  0.0525
17146TIP3    H272854   5.637   3.230  16.624 -0.5709 -1.1410  0.3856
17147TIP3   OH272855   5.634   6.338  16.902  0.0838  0.5915 -0.2135
17147TIP3    H172856   5.650   6.278  16.975 -0.8698  2.7789  1.9004
17147TIP3    H272857   5.721   6.364  16.873  0.4842  0.2231  0.6147
17148TIP3   OH272858   5.850   3.815  14.238  0.3314  0.5066  0.1988
17148TIP3    H172859   5.941   3.835  14.257 -0.4856  1.9897  3.1913
17148TIP3    H272860   5.818   3.889  14.187  0.8301 -0.1782 -1.1526
17149TIP3   OH272861   5.202   4.886   1.228 -0.0648 -0.1607  0.0985
17149TIP3    H172862   5.293   4.903   1.252 -0.3414 -0.1869  1.2332
17149TIP3    H272863   5.151   4.922   1.301 -0.9771  0.0703 -0.6363
17150TIP3   OH272864   0.843   3.567  12.350  0.0900 -0.7442 -0.2077
17150TIP3    H172865   0.916   3.610  12.394 -1.3468  0.3663  1.2333
17150TIP3    H272866   0.843   3.605  12.261  1.4958 -1.0940 -0.3729
17151TIP3   OH272867   4.817   6.772   1.129 -0.0238 -0.2072 -0.3917
17151TIP3    H172868   4.834   6.823   1.208 -0.4700 -0.1983 -0.2996
17151TIP3    H272869   4.758   6.703   1.157  0.5945 -0.7966 -0.5106
17152TIP3   OH272870   4.147   4.160   1.322  0.5226 -0.1472 -0.6410
17152TIP3    H172871   4.223   4.177   1.377  0.0014 -1.4173  0.5170
17152TIP3    H272872   4.073   4.196   1.371 -0.0332 -1.8775 -0.1331
17153TIP3   OH272873   4.284   4.813  15.209  0.0107  0.5048  0.8893
17153TIP3    H172874   4.303   4.814  15.115  1.8555  0.1471  1.2301
17153TIP3    H272875   4.208   4.755  15.217 -0.1406  0.4940 -0.3642
17154TIP3   OH272876   4.424   1.707  11.503  0.4798  0.0789 -0.6094
17154TIP3    H172877   4.397   1.619  11.531  0.0892  0.6073  0.7529
17154TIP3    H272878   4.445   1.753  11.584 -0.6418  1.6791 -1.1663
17155TIP3   OH272879   0.213   6.093  15.548  0.3317 -0.2479 -0.3645
17155TIP3    H172880   0.191   6.003  15.524 -0.4086 -0.1987  0.0776
17155TIP3    H272881   0.285   6.117  15.489  0.6691 -1.1878 -0.3537
17156TIP3   OH272882   5.033   6.752   6.126  0.0072 -0.8327  0.5573
17156TIP3    H172883   5.002   6.815   6.192  0.3289 -1.4470  1.3145
17156TIP3    H272884   4.955   6.727   6.078 -0.1092  0.2248  0.1770
17157TIP3   OH272885   6.118   0.935  16.680 -0.0467  0.2115 -0.1462
17157TIP3    H172886   6.108   0.973  16.593 -0.4512  1.9248  0.6164
17157TIP3    H272887   6.139   1.009  16.737 -1.8402 -0.5184  1.5888
17158TIP3   OH272888   5.321   0.115   4.521  0.4031 -0.0305  0.2392
17158TIP3    H172889   5.265   0.072   4.456 -0.1956  0.9875  0.0733
17158TIP3    H272890   5.295   0.206   4.520 -0.3269 -0.1412  2.6089
17159TIP3   OH272891   0.487   2.206   2.933  0.1303  0.3065 -1.1026
17159TIP3    H172892   0.578   2.227   2.912  0.5797 -1.3582 -0.9359
17159TIP3    H272893   0.490   2.117   2.966 -1.4069  0.6665  0.1287
17160TIP3   OH272894   5.275   3.738  17.217 -0.2308  0.7370 -0.6486
17160TIP3    H172895   5.307   3.787  17.142 -1.4517  1.6469 -0.6085
17160TIP3    H272896   5.242   3.804  17.277  0.7520  0.0288  0.7298
17161TIP3   OH272897   4.136   4.864   1.200  0.0615 -0.6819 -0.0881
17161TIP3    H172898   4.124   4.791   1.260 -0.8869  0.3560  1.0433
17161TIP3    H272899   4.168   4.936   1.254 -0.0254  0.0451 -0.9691
17162TIP3   OH272900   4.722   6.678   3.384 -0.0942  0.0232 -0.0029
17162TIP3    H172901   4.642   6.685   3.333  0.9675  2.2750 -1.5585
17162TIP3    H272902   4.698   6.707   3.472 -1.6260 -2.4749  0.4817
17163TIP3   OH272903   2.368   3.920   2.861 -0.0038  0.0252 -0.2368
17163TIP3    H172904   2.375   3.897   2.768  2.0424 -2.9900  0.4848
17163TIP3    H272905   2.338   3.839   2.903  0.3116  0.9297  1.8684
17164TIP3   OH272906   5.290   4.126   5.654 -0.2902 -0.3906 -0.8379
17164TIP3    H172907   5.194   4.126   5.653 -0.3243 -0.6518  0.6313
17164TIP3    H272908   5.315   4.123   5.562 -1.6788  1.2493 -1.3150
17165TIP3   OH272909   3.107   1.807  12.410  0.1081 -0.1505  0.4251
17165TIP3    H172910   3.086   1.714  12.412  0.1867 -0.1497  1.9978
17165TIP3    H272911   3.023   1.852  12.405  0.0401 -0.2857  0.3746
17166TIP3   OH272912   4.567   5.569   4.165  0.2257 -0.2278  1.0280
17166TIP3    H172913   4.612   5.541   4.245  0.1545 -0.3985  1.0073
17166TIP3    H272914   4.582   5.664   4.161  1.6627 -0.4583  0.3522
17167TIP3   OH272915   0.912   4.068  17.237 -0.0811 -0.0577 -0.0352
17167TIP3    H172916   0.911   4.159  17.266  0.4022 -0.0401 -0.0765
17167TIP3    H272917   0.997   4.034  17.266  0.2339 -0.1625 -1.0501
17168TIP3   OH272918   5.306   0.239   3.719  0.4464 -0.1487 -0.7767
17168TIP3    H172919   5.247   0.166   3.700  0.3204  0.3967 -2.8081
17168TIP3    H272920   5.252   0.317   3.702  0.4580  0.4732  1.7192
17169TIP3   OH272921   4.564   5.911   4.859  0.0483  0.2208 -0.3226
17169TIP3    H172922   4.499   5.964   4.812  0.5300  2.3551  1.2057
17169TIP3    H272923   4.531   5.909   4.949  1.5990  0.6010  0.2984
17170TIP3   OH272924   4.198   0.695   5.492  0.2830  0.0501 -0.5224
17170TIP3    H172925   4.216   0.716   5.584 -1.2297 -0.3223 -0.1188
17170TIP3    H272926   4.212   0.778   5.446  0.3254  0.4295  0.1549
17171TIP3   OH272927   4.299   0.486   2.873 -0.3219 -0.2005  0.3978
17171TIP3    H172928   4.391   0.513   2.873 -0.5015  0.7286  3.2643
17171TIP3    H272929   4.293   0.421   2.803  2.3968  0.0409 -0.1622
17172TIP3   OH272930   3.748   4.331  17.209 -0.4238 -0.1603 -0.5123
17172TIP3    H172931   3.738   4.241  17.241 -0.7566 -0.1118 -0.4780
17172TIP3    H272932   3.822   4.327  17.149  1.0440 -0.0265  1.1776
17173TIP3   OH272933   6.561   5.903  16.719 -0.0520  0.2259  0.1190
17173TIP3    H172934   6.550   5.848  16.642 -0.9870 -1.0324  1.1196
17173TIP3    H272935   6.473   5.935  16.739  0.4175  1.8711 -0.2475
17174TIP3   OH272936   3.107   6.096   3.657 -0.7250 -0.4628  0.0441
17174TIP3    H172937   3.086   6.030   3.723 -0.7638 -1.6468 -1.1162
17174TIP3    H272938   3.168   6.053   3.598  0.0396  0.8817 -0.1872
17175TIP3   OH272939   3.233   1.757  16.307  0.5126  0.1966  0.1398
17175TIP3    H172940   3.250   1.663  16.294  1.3577  0.2752  0.5690
17175TIP3    H272941   3.313   1.799  16.277  0.5560  0.7062  0.9397
17176TIP3   OH272942   1.732   6.018  12.972 -0.5118 -0.1985  0.4429
17176TIP3    H172943   1.715   5.925  12.954 -0.7923 -0.5990  2.5147
17176TIP3    H272944   1.717   6.062  12.888 -0.0582 -2.0514 -0.6720
17177TIP3   OH272945   0.123   2.394   0.421  0.2486  0.4853 -0.8354
17177TIP3    H172946   0.205   2.374   0.465  0.6148  2.0551 -0.7608
17177TIP3    H272947   0.091   2.309   0.391  0.8812 -0.4049  0.8773
17178TIP3   OH272948   0.300   1.917  14.462  0.0290 -0.1933  0.4713
17178TIP3    H172949   0.295   1.873  14.547  0.8948 -0.5649  0.3412
17178TIP3    H272950   0.255   2.000  14.476  1.9079  0.6907  1.9124
17179TIP3   OH272951   4.693   1.605  11.756 -0.0903 -0.2056  0.1064
17179TIP3    H172952   4.723   1.696  11.756  1.9711 -0.8436 -0.2746
17179TIP3    H272953   4.690   1.580  11.664  0.1041 -0.7473  0.2397
17180TIP3   OH272954   5.884   1.797   1.724 -0.2472 -0.3231 -0.3794
17180TIP3    H172955   5.869   1.766   1.634 -1.8095  0.5564 -0.4638
17180TIP3    H272956   5.978   1.791   1.736 -0.1860 -2.4655 -1.3378
17181TIP3   OH272957   6.680   6.219   5.753 -0.0962  0.1613 -0.0783
17181TIP3    H172958   6.643   6.195   5.669 -3.6227  1.3668  0.9621
17181TIP3    H272959   6.666   6.143   5.808  0.1019  0.1858  0.0065
17182TIP3   OH272960   2.528   1.780  12.578  0.2800 -0.0307  0.1883
17182TIP3    H172961   2.550   1.847  12.513  0.8307 -0.1176  0.2834
17182TIP3    H272962   2.446   1.742  12.546 -0.3902  1.1398  0.4816
17183TIP3   OH272963   4.628   0.565  10.321  0.1787 -0.0226  0.8108
17183TIP3    H172964   4.717   0.542  10.294  0.6210  3.6715 -1.5898
17183TIP3    H272965   4.640   0.625  10.394 -0.1345  1.5595 -0.3715
17184TIP3   OH272966   6.403   3.681  10.902 -0.0510  0.0765 -0.5342
17184TIP3    H172967   6.345   3.614  10.866 -0.9330  0.1934  0.6119
17184TIP3    H272968   6.451   3.636  10.973 -0.1851  0.4883 -0.1798
17185TIP3   OH272969   2.091   5.223  14.584 -0.1444 -0.3162  0.1326
17185TIP3    H172970   2.148   5.185  14.651 -0.6863  0.3477  0.9870
17185TIP3    H272971   2.037   5.150  14.554  1.6942 -1.1603 -1.3100
17186TIP3   OH272972   3.894   6.588  11.278  0.2617  0.0730  0.2107
17186TIP3    H172973   3.912   6.495  11.272  0.4924  0.1778 -1.0328
17186TIP3    H272974   3.866   6.613  11.190  0.1295  1.1617  0.5404
17187TIP3   OH272975   0.987   3.615   0.941  0.2566  0.3441 -0.3595
17187TIP3    H172976   0.982   3.573   0.855 -0.5292 -0.3812  0.0219
17187TIP3    H272977   0.987   3.542   1.003  0.4592  0.8692  0.2701
17188TIP3   OH272978   1.505   0.492  11.537 -0.5149  0.7001 -0.0344
17188TIP3    H172979   1.475   0.524  11.452  1.8426  0.2656 -1.0997
17188TIP3    H272980   1.534   0.570  11.584  1.5462  0.6120 -1.0851
17189TIP3   OH272981   4.384   3.135   4.654  0.3306  0.5359  0.2636
17189TIP3    H172982   4.314   3.199   4.637  0.4752  0.3852 -1.0544
17189TIP3    H272983   4.441   3.142   4.577  0.1630 -1.4086 -0.0840
17190TIP3   OH272984   3.332   3.251   2.681  0.0634 -0.1025  0.3248
17190TIP3    H172985   3.375   3.336   2.693 -1.8327  1.0611 -0.5998
17190TIP3    H272986   3.301   3.227   2.769  0.5223  0.1797  0.5715
17191TIP3   OH272987   1.181   0.626   6.248 -0.1677  0.2283 -0.3196
17191TIP3    H172988   1.221   0.539   6.256  1.3397  0.8635 -0.6357
17191TIP3    H272989   1.247   0.686   6.282 -1.2774  1.2456  0.0896
17192TIP3   OH272990   4.958   6.332  17.098 -0.0467  0.1119  0.5927
17192TIP3    H172991   4.908   6.250  17.095 -0.0186  0.0625  1.3513
17192TIP3    H272992   5.048   6.306  17.078 -0.4515  0.3427 -1.7899
17193TIP3   OH272993   6.149   5.497  17.200 -0.0692  0.1215 -0.2507
17193TIP3    H172994   6.057   5.511  17.176 -0.0376 -0.8261 -1.0018
17193TIP3    H272995   6.183   5.584  17.218 -0.8329  0.6032 -1.0567
17194TIP3   OH272996   4.076   0.212  12.591 -0.2330  0.5669  0.2633
17194TIP3    H172997   4.088   0.133  12.539  0.5598  1.8050 -1.5301
17194TIP3    H272998   4.023   0.270  12.537 -1.7620  0.8800  2.0004
17195TIP3   OH272999   5.942   4.352  16.408  0.7505 -0.3455 -0.1931
17195TIP3    H173000   5.918   4.324  16.319  2.1916 -0.1874 -0.6638
17195TIP3    H273001   6.037   4.336  16.413  0.8326  0.4188  1.0359
17196TIP3   OH273002   2.594   4.738  13.443  0.2500  0.6028 -0.1055
17196TIP3    H173003   2.512   4.702  13.477  0.4011  2.6288  2.7200
17196TIP3    H273004   2.629   4.668  13.387 -1.6834 -1.7191  1.3622
17197TIP3   OH273005   4.865   3.756  12.986 -0.5752  0.2668 -0.2013
17197TIP3    H173006   4.949   3.789  13.016  0.2597  1.4423 -3.4458
17197TIP3    H273007   4.820   3.730  13.066  2.5836  0.1728  1.7173
17198TIP3   OH273008   3.707   5.942   6.090  0.0639 -0.3146  0.3447
17198TIP3    H173009   3.619   5.952   6.126  0.1534  0.8659  0.2558
17198TIP3    H273010   3.696   5.954   5.996  0.3941  0.3866  0.3913
17199TIP3   OH273011   6.292   4.189   1.565 -0.3605 -0.0117  0.0270
17199TIP3    H173012   6.313   4.271   1.519  4.2514 -1.4463 -0.9199
17199TIP3    H273013   6.296   4.211   1.658  0.4610  0.9456 -0.2213
17200TIP3   OH273014   3.237   3.374   6.336  0.1586 -0.1311 -0.1826
17200TIP3    H173015   3.197   3.454   6.299  0.8185 -0.5298 -1.8370
17200TIP3    H273016   3.162   3.316   6.352 -0.2648  0.5465  0.3772
17201TIP3   OH273017   0.989   5.328   6.144  0.7276 -0.4443 -0.0001
17201TIP3    H173018   0.915   5.273   6.171  0.0008  0.7936  0.6173
17201TIP3    H273019   1.044   5.334   6.222 -0.6618  1.9952  0.8810
17202TIP3   OH273020   0.667   3.450   0.831  0.0279 -0.3791  0.4157
17202TIP3    H173021   0.652   3.460   0.737  1.9173  1.6848  0.2496
17202TIP3    H273022   0.628   3.529   0.870  0.6537 -0.4353  1.1729
17203TIP3   OH273023   5.467   3.289   4.512 -0.0847  0.4315 -0.4466
17203TIP3    H173024   5.495   3.318   4.425 -1.0127  1.6213 -0.3796
17203TIP3    H273025   5.384   3.242   4.496  0.7128 -1.0662 -0.3930
17204TIP3   OH273026   2.694   4.762   3.013 -0.0115 -0.0177 -0.3990
17204TIP3    H173027   2.784   4.735   3.035  0.0127  0.3331 -0.0511
17204TIP3    H273028   2.705   4.838   2.957 -0.0806  1.2666  1.2431
17205TIP3   OH273029   4.409   1.757  16.084 -0.1946  0.2232  0.1527
17205TIP3    H173030   4.416   1.775  15.990  0.6591 -2.4174 -0.3902
17205TIP3    H273031   4.315   1.747  16.099 -0.2544 -1.2254 -0.9072
17206TIP3   OH273032   1.239   3.489  14.178 -0.0498  0.0452  1.0924
17206TIP3    H173033   1.182   3.566  14.184 -0.8253 -0.4396  0.3550
17206TIP3    H273034   1.241   3.453  14.266  1.7302  1.8502  1.8604
17207TIP3   OH273035   2.279   5.743   5.383  0.1819 -0.2757  0.4955
17207TIP3    H173036   2.258   5.735   5.290  0.4112 -1.8803  0.5631
17207TIP3    H273037   2.217   5.809   5.415 -1.1060 -0.9816 -0.4368
17208TIP3   OH273038   2.058   1.194   1.875  0.3377 -0.0665 -0.2482
17208TIP3    H173039   2.105   1.264   1.920  1.2911 -0.1571 -1.0666
17208TIP3    H273040   1.966   1.209   1.898  0.2923  2.3981 -1.5817
17209TIP3   OH273041   2.037   6.530  13.807  0.3409 -0.4811  0.1258
17209TIP3    H173042   2.126   6.504  13.784  0.7219 -0.4924  1.5348
17209TIP3    H273043   2.025   6.614  13.763  1.5306  0.1445  0.9385
17210TIP3   OH273044   4.827   5.092   5.031 -0.6805 -0.1392 -0.1063
17210TIP3    H173045   4.762   5.123   4.968  0.7085  0.5877 -1.2426
17210TIP3    H273046   4.856   5.007   4.995 -0.0328  0.1829 -0.3733
17211TIP3   OH273047   2.041   2.986  13.082  0.9200 -0.1462  0.3112
17211TIP3    H173048   2.084   3.071  13.077  1.5233 -0.3594  1.6309
17211TIP3    H273049   2.074   2.946  13.163  0.9496 -1.7956 -0.4627
17212TIP3   OH273050   4.225   0.143  15.664 -0.7500 -0.3632 -0.1803
17212TIP3    H173051   4.306   0.134  15.716 -1.5131 -1.7336  0.8421
17212TIP3    H273052   4.192   0.230  15.686 -0.9851 -0.8637  1.5869
17213TIP3   OH273053   5.988   6.114  15.271 -0.1856  0.1100 -0.0259
17213TIP3    H173054   5.992   6.138  15.178  0.0415 -0.8848 -0.2885
17213TIP3    H273055   5.965   6.021  15.270 -0.3432  0.1328  0.9237
17214TIP3   OH273056   5.333   5.527   2.020  0.2674  0.2280 -0.1457
17214TIP3    H173057   5.382   5.608   2.006 -0.9248  1.4083  1.9238
17214TIP3    H273058   5.247   5.544   1.981  0.3713 -0.4954 -0.7060
17215TIP3   OH273059   0.022   2.422  16.204  0.5065  0.3364  0.0187
17215TIP3    H173060   0.049   2.447  16.116  0.8647 -0.3066 -0.0596
17215TIP3    H273061  -0.073   2.417  16.201  0.5155  0.3867 -0.3137
17216TIP3   OH273062   6.158   6.138  13.125 -0.6584  0.3629 -0.5089
17216TIP3    H173063   6.141   6.156  13.217  0.3611 -3.7235  0.6676
17216TIP3    H273064   6.245   6.174  13.109 -1.0356  1.5151 -0.0914
17217TIP3   OH273065   1.549   5.986  15.133  0.2702 -0.5093  0.3414
17217TIP3    H173066   1.596   6.032  15.063 -1.5669 -1.6045 -1.7678
17217TIP3    H273067   1.617   5.956  15.193  1.9443  0.4645 -0.9947
17218TIP3   OH273068   3.887   6.158   3.035 -0.2723  0.1882 -0.3950
17218TIP3    H173069   3.892   6.219   3.109  2.6776 -0.3452 -0.0098
17218TIP3    H273070   3.802   6.176   2.994 -0.3837  3.1496  0.8782
17219TIP3   OH273071   2.039   1.011  11.195  0.6476 -0.0180  0.0824
17219TIP3    H173072   1.978   1.081  11.171 -0.2405 -0.2220  1.6272
17219TIP3    H273073   2.099   1.005  11.120 -1.5306 -0.1793 -1.7954
17220TIP3   OH273074   1.980   4.036  15.549 -0.3117 -0.1256  0.3174
17220TIP3    H173075   1.925   3.986  15.489  0.2170 -1.4066  0.8490
17220TIP3    H273076   2.060   3.983  15.557 -0.9607 -0.8329  3.3247
17221TIP3   OH273077   4.509   6.764   2.796  1.1980  0.3719 -0.2292
17221TIP3    H173078   4.565   6.691   2.773 -0.4638 -1.3310  0.8268
17221TIP3    H273079   4.508   6.764   2.892  1.5160  2.0740 -0.1983
17222TIP3   OH273080   3.574   4.143   1.198  0.1639 -0.4600  0.1274
17222TIP3    H173081   3.484   4.169   1.181  0.4912  0.0111 -0.9534
17222TIP3    H273082   3.582   4.055   1.163  0.4086 -0.0929 -0.7506
17223TIP3   OH273083   2.978   5.812   4.933  0.1055 -0.0248 -0.3499
17223TIP3    H173084   2.933   5.767   5.005  0.6107 -0.2535 -0.1711
17223TIP3    H273085   2.934   5.780   4.854  0.4299 -0.8129 -0.2233
17224TIP3   OH273086   1.121   1.287  13.385 -0.8071  0.0984  0.5954
17224TIP3    H173087   1.102   1.235  13.463  0.8589 -0.6580  0.5499
17224TIP3    H273088   1.121   1.223  13.314 -1.5382  0.6552  0.0815
17225TIP3   OH273089   5.972   4.686  13.576  0.1282 -0.0795  0.3655
17225TIP3    H173090   5.988   4.666  13.484 -1.5062  1.1025 -0.2226
17225TIP3    H273091   5.931   4.773  13.575 -1.8835 -0.9223  2.0189
17226TIP3   OH273092   4.582   1.183  12.370  0.0809 -0.4415  0.1197
17226TIP3    H173093   4.538   1.098  12.379 -0.5822 -0.1852 -0.5579
17226TIP3    H273094   4.635   1.191  12.449  1.6867 -2.3533 -0.6506
17227TIP3   OH273095   0.284   2.100   0.680  0.5264  0.0388  0.0084
17227TIP3    H173096   0.244   2.186   0.667  1.0238  0.3189  0.2803
17227TIP3    H273097   0.377   2.119   0.690  1.0429 -0.7443 -2.5214
17228TIP3   OH273098   0.449   1.316   2.780  0.6588 -0.6482 -0.4189
17228TIP3    H173099   0.526   1.298   2.835  0.6349 -0.7552 -0.4216
17228TIP3    H273100   0.486   1.347   2.697  0.7066 -1.0276 -0.5415
17229TIP3   OH273101   2.698   6.767  16.820  0.2872 -0.4165  0.2644
17229TIP3    H173102   2.738   6.732  16.741  0.0145  1.2971 -0.6985
17229TIP3    H273103   2.748   6.729  16.892  1.6390 -0.7187 -0.7940
17230TIP3   OH273104   1.720   6.203   0.481  0.3152 -0.1743  0.2442
17230TIP3    H173105   1.781   6.155   0.538  2.0739 -0.1645 -1.5042
17230TIP3    H273106   1.646   6.224   0.537 -0.1043 -4.0138  1.4155
17231TIP3   OH273107   6.174   2.475   0.102 -0.4510 -0.3374  0.1157
17231TIP3    H173108   6.083   2.486   0.131  0.0648  0.6781  1.5199
17231TIP3    H273109   6.179   2.523   0.020 -0.8721  0.8194  0.7427
17232TIP3   OH273110   2.584   4.501   1.751  0.0641  0.1987 -0.3434
17232TIP3    H173111   2.564   4.577   1.806  2.4249  0.5568  0.1561
17232TIP3    H273112   2.590   4.428   1.813 -1.7118 -0.3341 -0.7583
17233TIP3   OH273113   6.351   2.026   3.561 -0.2872 -0.6282  0.6585
17233TIP3    H173114   6.309   2.101   3.604  0.2888 -0.6551  1.2890
17233TIP3    H273115   6.286   1.956   3.568 -0.7859 -0.2202  0.1614
17234TIP3   OH273116   0.504   1.484   4.513  0.3036  0.5810  0.2985
17234TIP3    H173117   0.441   1.520   4.576  0.4134 -0.2130  0.8865
17234TIP3    H273118   0.453   1.468   4.434 -0.3144 -0.3276  0.8631
17235TIP3   OH273119   6.104   2.848  17.022  0.5361  0.2030  0.0650
17235TIP3    H173120   6.118   2.891  17.106 -0.8876 -0.2873  0.5721
17235TIP3    H273121   6.070   2.916  16.964 -1.5799 -0.1626  0.8244
17236TIP3   OH273122   3.070   5.208  13.409  0.5119  0.1575 -0.3058
17236TIP3    H173123   3.158   5.171  13.415  1.0173  1.2923 -0.4201
17236TIP3    H273124   3.069   5.278  13.474  0.3072  1.3245 -1.5136
17237TIP3   OH273125   6.707   4.771   6.214  0.1901  0.0146  0.0565
17237TIP3    H173126   6.651   4.694   6.220 -0.1055  0.1943 -0.3947
17237TIP3    H273127   6.661   4.837   6.266  0.1402  0.0688 -0.0572
17238TIP3   OH273128   1.266   0.779  12.515  0.3058  0.2928 -0.5456
17238TIP3    H173129   1.331   0.710  12.531  1.8130  2.1471  2.1595
17238TIP3    H273130   1.316   0.850  12.476 -0.7966  0.6387 -1.3705
17239TIP3   OH273131   6.778   3.450   1.305 -0.1313  0.0257  0.1968
17239TIP3    H173132   6.850   3.431   1.244 -0.8188  0.1295 -0.6779
17239TIP3    H273133   6.703   3.403   1.268 -1.0822  1.7584 -0.1917
17240TIP3   OH273134   2.328   6.029  14.198 -0.2129  0.0624 -0.1269
17240TIP3    H173135   2.419   6.055  14.204  0.3545 -1.8239 -0.0538
17240TIP3    H273136   2.283   6.107  14.166  1.6163  0.6224 -1.4587
17241TIP3   OH273137   3.299   2.502   1.938 -0.0190 -0.3523 -0.4711
17241TIP3    H173138   3.227   2.439   1.930 -0.2573 -0.4602  1.8805
17241TIP3    H273139   3.360   2.461   2.000  2.2133 -0.3259 -2.4791
17242TIP3   OH273140   3.791   4.398   5.120 -0.5183 -0.2242  0.8434
17242TIP3    H173141   3.791   4.492   5.105 -1.5071 -0.4282 -0.6895
17242TIP3    H273142   3.779   4.388   5.214  0.6504  1.1719  1.1679
17243TIP3   OH273143   4.142   4.936   1.696  0.9189  0.3176 -0.3888
17243TIP3    H173144   4.160   4.997   1.768  0.2122  0.2708 -0.1597
17243TIP3    H273145   4.208   4.956   1.630  0.2810  1.8202 -0.6076
17244TIP3   OH273146   1.355   0.748   2.531 -0.4723  0.3881 -0.1305
17244TIP3    H173147   1.375   0.738   2.624 -1.2368 -2.1094 -0.1558
17244TIP3    H273148   1.272   0.795   2.529 -1.3811 -1.1115  0.5821
17245TIP3   OH273149   4.086   2.356  16.816 -0.6824 -0.3533 -0.5161
17245TIP3    H173150   4.169   2.324  16.783 -0.5547 -1.3140  0.6504
17245TIP3    H273151   4.103   2.377  16.908 -1.6887 -0.4208 -0.2974
17246TIP3   OH273152   0.449   2.570   5.283  0.3803  0.4179 -0.1925
17246TIP3    H173153   0.542   2.573   5.306  1.1139 -1.6827 -2.4751
17246TIP3    H273154   0.425   2.478   5.293 -1.6257  0.9712  0.6890
17247TIP3   OH273155   0.007   2.479   5.325  0.3606 -0.2355 -0.1690
17247TIP3    H173156   0.003   2.384   5.337 -1.4622 -0.2774 -0.8028
17247TIP3    H273157   0.047   2.491   5.239 -0.2462 -0.4765 -0.4898
17248TIP3   OH273158   5.831   6.106  14.725 -0.2874  0.5804  0.0881
17248TIP3    H173159   5.920   6.073  14.733 -0.5774 -0.5351 -1.0422
17248TIP3    H273160   5.841   6.201  14.721  0.8003  0.4964  0.4544
17249TIP3   OH273161   0.708   3.437  14.901 -0.4940 -0.4488  0.2576
17249TIP3    H173162   0.779   3.500  14.888  1.0435 -2.1545 -0.0071
17249TIP3    H273163   0.687   3.443  14.994 -0.2168  0.2775  0.2800
17250TIP3   OH273164   4.074   3.049  15.357 -0.4699 -0.7389  0.2034
17250TIP3    H173165   4.020   3.128  15.358 -2.0393 -1.7581  0.7868
17250TIP3    H273166   4.078   3.022  15.449 -0.2071 -1.4909 -0.0210
17251TIP3   OH273167   3.440   3.401   4.985 -0.9486 -0.9409 -0.7002
17251TIP3    H173168   3.386   3.323   4.969 -2.3947  0.2164 -1.6663
17251TIP3    H273169   3.423   3.424   5.076  0.4240 -2.4029 -0.0174
17252TIP3   OH273170   0.533   0.563   0.707 -0.1874  0.1885 -0.5337
17252TIP3    H173171   0.523   0.491   0.645  2.2243 -1.4384  0.8072
17252TIP3    H273172   0.627   0.580   0.711 -0.5785  2.7026  0.0418
17253TIP3   OH273173   1.991   2.194  14.901  0.3298  0.4682 -0.2189
17253TIP3    H173174   2.065   2.249  14.875  0.5693  1.1803  1.7563
17253TIP3    H273175   1.925   2.256  14.932 -0.2265 -0.2688  0.1035
17254TIP3   OH273176   1.261   0.312  17.228 -0.0802  0.1750 -0.2037
17254TIP3    H173177   1.235   0.295  17.138 -1.7092 -1.6357  0.5241
17254TIP3    H273178   1.297   0.230  17.259  1.0713  0.9645  0.6222
17255TIP3   OH273179   4.470   4.380   4.019  0.0580  0.6652 -0.3708
17255TIP3    H173180   4.507   4.356   3.934  0.3865 -1.5483  0.3318
17255TIP3    H273181   4.413   4.306   4.041  0.8699  0.6398  1.8424
17256TIP3   OH273182   5.447   3.706   5.345 -0.2288 -0.4891 -0.2618
17256TIP3    H173183   5.390   3.631   5.361 -2.5926  1.1591 -0.4062
17256TIP3    H273184   5.387   3.779   5.331  1.8887  2.0325  2.5455
17257TIP3   OH273185   2.740   4.993  12.953  0.3400 -0.2894  0.4364
17257TIP3    H173186   2.816   4.935  12.953  0.9614  0.4232  2.5583
17257TIP3    H273187   2.689   4.965  13.029  0.5796  1.7983  1.4143
17258TIP3   OH273188   3.635   0.232  11.359 -0.0592 -0.0288 -0.1527
17258TIP3    H173189   3.631   0.155  11.302 -0.7220  0.7689 -1.2126
17258TIP3    H273190   3.647   0.306  11.299 -0.9569  0.8534  0.7229
17259TIP3   OH273191   3.800   0.537   6.143 -0.4906 -0.4156 -0.3642
17259TIP3    H173192   3.786   0.445   6.169  1.6311 -1.2434 -1.8610
17259TIP3    H273193   3.840   0.531   6.056 -2.6429  2.0643 -1.6448
17260TIP3   OH273194   4.894   1.178  16.392 -0.1258 -0.0782  0.6525
17260TIP3    H173195   4.855   1.142  16.312 -0.6188  0.7711  0.5000
17260TIP3    H273196   4.973   1.222  16.362  0.1309 -0.4635  0.7532
17261TIP3   OH273197   2.991   3.132  13.724 -0.4098 -0.6250  0.0917
17261TIP3    H173198   3.020   3.222  13.711  0.3093 -0.8835 -0.1211
17261TIP3    H273199   2.958   3.105  13.639  0.1055 -0.8246 -0.0435
17262TIP3   OH273200   2.547   2.570  16.327  0.0060 -0.5146 -1.2387
17262TIP3    H173201   2.626   2.517  16.322 -0.7574 -1.6667 -1.3252
17262TIP3    H273202   2.489   2.522  16.385 -0.0591  1.1253  0.1435
17263TIP3   OH273203   5.817   4.321   5.220  0.0506 -0.0486 -0.1315
17263TIP3    H173204   5.734   4.367   5.212 -0.6813 -1.4686 -1.1377
17263TIP3    H273205   5.795   4.239   5.265  1.7169  1.4874  3.9565
17264TIP3   OH273206   2.685   3.974   0.972 -0.1029  0.4375  0.0735
17264TIP3    H173207   2.659   3.944   1.059  1.4356 -0.0874  0.3790
17264TIP3    H273208   2.778   3.993   0.980  0.1564 -0.0249 -1.5701
17265TIP3   OH273209   3.906   1.705   4.499 -0.4814 -0.0435 -0.0966
17265TIP3    H173210   3.867   1.651   4.430 -0.0427 -0.0714 -0.3241
17265TIP3    H273211   3.971   1.759   4.453  1.1805 -1.4049  0.5571
17266TIP3   OH273212   6.373   6.073  12.813 -0.9065  0.2397 -0.0363
17266TIP3    H173213   6.416   6.145  12.861  0.4355 -0.7150  0.2584
17266TIP3    H273214   6.331   6.021  12.881 -0.9266  0.1332 -0.1302
17267TIP3   OH273215   4.730   3.588   4.155 -0.7631  1.2024  0.0574
17267TIP3    H173216   4.766   3.619   4.072 -1.3001  0.7033 -0.3699
17267TIP3    H273217   4.704   3.667   4.201 -1.7005  1.4240 -0.8261
17268TIP3   OH273218   3.614   2.218   2.529  0.5175 -0.5640 -0.3477
17268TIP3    H173219   3.684   2.236   2.466  0.8200  0.0136  0.1459
17268TIP3    H273220   3.658   2.175   2.602  0.3169 -0.4103 -0.1355
17269TIP3   OH273221   3.154   1.215  11.345  0.2719 -0.6649  0.4382
17269TIP3    H173222   3.138   1.122  11.331  1.2404 -0.6651 -0.7956
17269TIP3    H273223   3.229   1.235  11.290 -0.4172  1.0288  0.0543
17270TIP3   OH273224   3.787   5.527   2.555  0.0055  0.1130  0.0131
17270TIP3    H173225   3.806   5.577   2.476 -0.6115  1.2659  0.5666
17270TIP3    H273226   3.821   5.581   2.626 -0.8521 -0.1503  0.6374
17271TIP3   OH273227   0.143   4.804   2.544 -0.1366  0.2065 -0.2602
17271TIP3    H173228   0.068   4.758   2.505  0.6068 -1.0551 -0.2451
17271TIP3    H273229   0.105   4.885   2.579 -1.3710 -0.0890 -0.8394
17272TIP3   OH273230   2.635   0.098   5.133  0.2638  0.0457  0.3310
17272TIP3    H173231   2.599   0.167   5.078  1.8327  0.5974 -0.0764
17272TIP3    H273232   2.560   0.060   5.178 -0.5061  3.0502  1.8077
17273TIP3   OH273233   5.683   3.960  14.723  0.6080  0.0265  0.8238
17273TIP3    H173234   5.720   3.968  14.635  0.5150  0.3345  0.8135
17273TIP3    H273235   5.680   4.049  14.756  1.6600 -0.1851  1.5628
17274TIP3   OH273236   5.438   1.238  13.196 -0.2320  0.2384 -0.4989
17274TIP3    H173237   5.447   1.332  13.180 -2.0630  0.8989  1.6495
17274TIP3    H273238   5.364   1.211  13.141 -0.0586  0.1866 -0.7062
17275TIP3   OH273239   0.926   4.203  11.499 -0.2193 -0.5067 -0.4080
17275TIP3    H173240   1.005   4.223  11.448  0.8812 -1.5408  0.7911
17275TIP3    H273241   0.905   4.285  11.543  1.5161 -0.7100  0.9210
17276TIP3   OH273242   1.291   1.906   1.082  0.4523  0.4782  0.1251
17276TIP3    H173243   1.299   1.996   1.115  0.0243  0.7410 -0.4636
17276TIP3    H273244   1.382   1.875   1.076  0.7447  1.4710 -1.2291
17277TIP3   OH273245   2.705   4.886  11.961  0.0047 -0.1899  0.4497
17277TIP3    H173246   2.733   4.960  11.907 -1.5815 -1.4492 -2.2955
17277TIP3    H273247   2.786   4.848  11.994  1.2185 -0.0845 -2.1599
17278TIP3   OH273248   3.036   5.238   5.578 -0.1979  0.1909 -0.4352
17278TIP3    H173249   3.055   5.265   5.668 -0.4543 -1.0473  0.0097
17278TIP3    H273250   3.112   5.187   5.551 -0.4327 -0.0334 -0.6740
17279TIP3   OH273251   1.207   6.047   4.174  0.2802  0.4376 -0.2693
17279TIP3    H173252   1.151   5.970   4.165 -1.9490  1.9376 -0.0578
17279TIP3    H273253   1.153   6.111   4.220  1.9667  2.2317 -0.6368
17280TIP3   OH273254   2.480   5.863  13.599  0.1498 -0.1904 -0.1369
17280TIP3    H173255   2.389   5.834  13.594 -0.1283  0.4483  0.8779
17280TIP3    H273256   2.485   5.913  13.681  1.6702 -1.1278  0.3979
17281TIP3   OH273257   1.563   0.986  10.843  0.9054  0.2134  0.2199
17281TIP3    H173258   1.537   1.076  10.859  1.0010  0.3231 -0.2337
17281TIP3    H273259   1.654   0.991  10.816  0.9590 -0.0353  0.3444
17282TIP3   OH273260   4.013   3.356   1.789  0.8156 -0.4662  0.5671
17282TIP3    H173261   4.004   3.383   1.698  2.5789 -1.3815  0.0947
17282TIP3    H273262   4.100   3.387   1.815  1.6654 -2.9475  0.9208
17283TIP3   OH273263   5.267   1.490   3.068 -0.1916  0.0168  0.5844
17283TIP3    H173264   5.201   1.457   3.007 -0.6036 -0.0289  1.0504
17283TIP3    H273265   5.314   1.412   3.096  0.5910  0.1331 -0.3477
17284TIP3   OH273266   0.729   0.938  16.535  0.3331 -0.1955 -0.3126
17284TIP3    H173267   0.754   0.976  16.451 -1.2815 -0.3750 -0.8935
17284TIP3    H273268   0.795   0.970  16.596  0.4195  1.5292 -1.2684
17285TIP3   OH273269   6.506   4.214  12.389 -0.0807  0.3254  0.7526
17285TIP3    H173270   6.542   4.208  12.477  1.0438  1.8921  0.4365
17285TIP3    H273271   6.573   4.260  12.339 -0.9652  0.0049 -0.7793
17286TIP3   OH273272   2.196   3.573   5.523  0.1268 -0.2844 -0.6636
17286TIP3    H173273   2.254   3.570   5.598  0.4514  1.6744 -0.7852
17286TIP3    H273274   2.121   3.519   5.548  1.2269 -1.4717  0.1508
17287TIP3   OH273275   1.152   0.883  15.877 -0.3895 -0.4428 -0.1220
17287TIP3    H173276   1.148   0.974  15.907 -0.4206  0.0914 -1.6425
17287TIP3    H273277   1.067   0.868  15.834 -1.1500 -1.8226  1.7058
17288TIP3   OH273278   0.792   3.009   2.301  0.6980  0.0366  0.5905
17288TIP3    H173279   0.830   3.086   2.343  1.5942 -0.6103  1.0040
17288TIP3    H273280   0.784   2.944   2.371  1.0369 -0.6336  0.0261
17289TIP3   OH273281   4.752   0.002  11.759  0.2574 -0.1326  0.0352
17289TIP3    H173282   4.765  -0.012  11.852  0.4154  2.0674  0.3981
17289TIP3    H273283   4.657   0.009  11.749  0.2141 -0.7613 -0.0585
17290TIP3   OH273284   5.337   1.186   5.292 -0.1232 -0.4874 -0.2722
17290TIP3    H173285   5.314   1.236   5.214  2.2044  1.3071  0.0745
17290TIP3    H273286   5.377   1.106   5.259  1.6428  0.6374 -1.0239
17291TIP3   OH273287   4.022   1.649  15.528 -0.0175 -0.2317  0.0450
17291TIP3    H173288   4.113   1.640  15.556 -0.1372 -3.3808 -0.2542
17291TIP3    H273289   4.027   1.662  15.434  0.1232  1.4729  0.2577
17292TIP3   OH273290   6.630   0.220  16.287 -0.0870 -0.3862 -0.1717
17292TIP3    H173291   6.613   0.243  16.196 -0.2519  2.4440  0.4792
17292TIP3    H273292   6.564   0.269  16.337 -0.1220 -2.0176  1.4943
17293TIP3   OH273293   1.376   6.243  16.764 -0.4960 -0.4519  0.1759
17293TIP3    H173294   1.325   6.178  16.716 -0.4544 -0.2448 -0.1568
17293TIP3    H273295   1.448   6.193  16.802 -0.0039 -0.4841 -0.7565
17294TIP3   OH273296   6.417   1.777   1.900  0.3615 -0.9089  0.0260
17294TIP3    H173297   6.509   1.799   1.884  0.2593  0.8683  1.5572
17294TIP3    H273298   6.396   1.820   1.983 -1.3314 -2.9058  0.7342
17295TIP3   OH273299   6.535   4.810   2.070  0.0908  0.2790  0.1463
17295TIP3    H173300   6.534   4.900   2.037  2.7470  0.3351 -0.0595
17295TIP3    H273301   6.545   4.756   1.992  3.3361  0.2180  0.4445
17296TIP3   OH273302   1.686   1.646  12.072 -0.0379  0.0364 -0.8232
17296TIP3    H173303   1.619   1.701  12.112  0.3316 -0.2488  0.2036
17296TIP3    H273304   1.637   1.571  12.036 -0.4939  0.8282 -1.9043
17297TIP3   OH273305   2.862   3.598  11.150 -0.2711  0.2294  0.0052
17297TIP3    H173306   2.783   3.600  11.095  0.7095  1.2982 -1.4441
17297TIP3    H273307   2.934   3.590  11.087  0.7958 -0.5538  1.2883
17298TIP3   OH273308   0.864   0.599  12.485  0.3305 -0.4996 -0.3598
17298TIP3    H173309   0.849   0.541  12.411  1.8932  0.1408 -1.2096
17298TIP3    H273310   0.793   0.664  12.479  0.4799 -0.4143 -1.3301
17299TIP3   OH273311   1.200   0.558  12.282  0.5319  0.1321 -0.9992
17299TIP3    H173312   1.231   0.641  12.248 -0.7747  0.2068 -2.0905
17299TIP3    H273313   1.138   0.526  12.216 -0.4319 -0.7852  0.2784
17300TIP3   OH273314   6.285   4.010   6.043 -0.2089 -0.5164 -0.0060
17300TIP3    H173315   6.244   4.061   6.113 -0.7074 -1.1201  0.1446
17300TIP3    H273316   6.357   3.963   6.086  0.2989  0.1032 -0.1595
17301TIP3   OH273317   1.523   0.850  12.699  0.0296  0.2026 -0.0982
17301TIP3    H173318   1.581   0.787  12.654 -1.4377  0.9189 -3.3155
17301TIP3    H273319   1.443   0.800  12.715  0.0652  0.3451  0.5508
17302TIP3   OH273320   0.571   5.719  11.395  0.3711  0.0386  0.3091
17302TIP3    H173321   0.525   5.730  11.312  2.0080 -0.1539 -0.6697
17302TIP3    H273322   0.538   5.636  11.430  0.4910 -0.4657 -0.7352
17303TIP3   OH273323   2.706   5.824  16.862 -0.6446  0.3288  0.0707
17303TIP3    H173324   2.774   5.757  16.855  0.9859  1.2880  3.8506
17303TIP3    H273325   2.749   5.905  16.838 -1.0662  0.6573  0.3996
17304TIP3   OH273326   2.156   6.665   3.624  0.3824  0.2643  0.1602
17304TIP3    H173327   2.115   6.636   3.705 -2.4785  0.3067 -1.1536
17304TIP3    H273328   2.240   6.702   3.652 -0.4346  0.1916  3.0603
17305TIP3   OH273329   0.474   1.130  16.799 -0.8062 -0.1700  0.1306
17305TIP3    H173330   0.491   1.042  16.764 -1.8838 -0.2156 -0.3058
17305TIP3    H273331   0.540   1.141  16.867 -0.7985 -1.4164  0.3506
17306TIP3   OH273332   0.385   4.684  15.601  0.6028  0.3574  0.9254
17306TIP3    H173333   0.416   4.616  15.542  0.8118  0.7037  0.6385
17306TIP3    H273334   0.437   4.672  15.680  1.8398  1.2655  0.2649
17307TIP3   OH273335   3.403   0.663  10.421 -0.0437 -0.2829  0.0650
17307TIP3    H173336   3.451   0.738  10.455  0.8494 -0.8883  0.1683
17307TIP3    H273337   3.324   0.700  10.383  0.8693  0.8193 -0.8116
17308TIP3   OH273338   0.905   1.791  15.361 -0.0126  0.3664  0.6653
17308TIP3    H173339   0.899   1.860  15.426 -0.4106  0.7073  0.2669
17308TIP3    H273340   0.966   1.825  15.296 -1.0057  0.7950 -0.0704
17309TIP3   OH273341   3.881   4.813   0.034  0.6190 -0.1740  0.1149
17309TIP3    H173342   3.793   4.847   0.053  0.0246  1.6073 -4.5293
17309TIP3    H273343   3.865   4.729  -0.009  1.0649  0.4283 -1.2855
17310TIP3   OH273344   4.005   3.537  15.173  0.3154 -0.1886  0.0697
17310TIP3    H173345   3.922   3.492  15.154  0.6512 -1.7185  1.8457
17310TIP3    H273346   3.982   3.630  15.173 -1.4383 -0.5787  0.5889
17311TIP3   OH273347   4.000   6.114   1.884  0.2163  0.0478 -0.6213
17311TIP3    H173348   3.939   6.061   1.834 -1.3014  1.7073 -0.6465
17311TIP3    H273349   4.059   6.051   1.925 -0.0416 -1.4793 -2.4888
17312TIP3   OH273350   4.830   3.939  14.591  0.2546 -0.8303  0.0770
17312TIP3    H173351   4.760   3.875  14.579  1.1505 -1.5604 -1.6274
17312TIP3    H273352   4.905   3.887  14.621  0.1486 -0.0686  1.8282
17313TIP3   OH273353   4.418   5.098   4.219  0.0352  0.1447  0.5542
17313TIP3    H173354   4.416   5.105   4.315 -1.3738  1.5311  0.4682
17313TIP3    H273355   4.330   5.122   4.192 -0.1553 -2.0647 -1.0252
17314TIP3   OH273356   1.917   6.153   6.149 -0.4355 -0.8155 -0.2792
17314TIP3    H173357   1.848   6.151   6.215  0.1083 -1.0024  0.2923
17314TIP3    H273358   1.995   6.184   6.196  0.1402 -1.6452 -0.6529
17315TIP3   OH273359   3.308   5.956  11.672  0.3470  0.3710  0.1783
17315TIP3    H173360   3.257   5.939  11.593 -0.8092  2.2319  0.4716
17315TIP3    H273361   3.323   5.870  11.710 -2.6340 -0.2839  0.0920
17316TIP3   OH273362   0.578   5.464  12.385  0.1923  0.0420  0.3343
17316TIP3    H173363   0.616   5.541  12.428  0.6598 -0.0199  0.0367
17316TIP3    H273364   0.495   5.450  12.430  0.2226  0.5683  0.5613
17317TIP3   OH273365   3.327   0.625  15.824  0.0590 -0.4217 -0.0129
17317TIP3    H173366   3.292   0.700  15.775 -0.4212 -1.5371 -1.4400
17317TIP3    H273367   3.253   0.566  15.833  0.9894 -1.8235 -1.1202
17318TIP3   OH273368   0.159   5.711  11.955  0.8876 -0.2869 -1.0220
17318TIP3    H173369   0.149   5.619  11.932  1.9904 -1.1123  1.4487
17318TIP3    H273370   0.090   5.727  12.021  2.6287 -0.3113  0.9073
17319TIP3   OH273371   3.313   3.867  11.870 -0.0498 -0.3585 -0.0955
17319TIP3    H173372   3.339   3.943  11.923 -1.0847  0.7030 -1.0448
17319TIP3    H273373   3.395   3.825  11.846  0.7402  1.7706 -1.3871
17320TIP3   OH273374   5.548   0.358   3.624  0.0224 -0.6253  0.3511
17320TIP3    H173375   5.558   0.265   3.605 -2.3787 -0.9719  0.3668
17320TIP3    H273376   5.483   0.361   3.694 -0.0381  1.0639  0.2769
17321TIP3   OH273377   1.550   2.617   0.700  0.2638  0.2575  0.3844
17321TIP3    H173378   1.540   2.712   0.689 -0.0664  0.3495  1.3920
17321TIP3    H273379   1.493   2.595   0.773  2.2050 -0.3249  1.8171
17322TIP3   OH273380   3.076   0.328   3.037 -0.1813 -0.0657  0.4527
17322TIP3    H173381   3.152   0.281   3.073 -0.6700 -0.3778  1.1182
17322TIP3    H273382   3.088   0.418   3.065  0.1567 -0.0308  0.1986
17323TIP3   OH273383   4.859   0.768  12.964  1.0392  0.1387  0.2851
17323TIP3    H173384   4.817   0.766  13.049  0.6530  0.7920  0.1191
17323TIP3    H273385   4.832   0.852  12.926 -0.5776 -1.0565 -1.3755
17324TIP3   OH273386   1.538   1.044  13.131  0.2890 -0.4888  0.3985
17324TIP3    H173387   1.573   0.966  13.087  0.8162  0.4749 -0.9802
17324TIP3    H273388   1.616   1.092  13.158  0.0345  0.7086 -0.9090
17325TIP3   OH273389   2.218   4.571   3.947 -0.1828 -0.2371  0.0649
17325TIP3    H173390   2.166   4.620   3.884  0.8763  0.9452  0.0709
17325TIP3    H273391   2.156   4.511   3.988 -1.4906  0.9422 -0.1090
17326TIP3   OH273392   4.067   0.983  15.393  0.3526 -0.0032 -0.4444
17326TIP3    H173393   4.080   1.052  15.458 -1.4172 -0.6137  0.6350
17326TIP3    H273394   4.015   1.024  15.324  1.7311  0.4814 -1.2382
17327TIP3   OH273395   6.737   5.675  11.470 -0.0480 -0.0205  0.2377
17327TIP3    H173396   6.704   5.659  11.559  1.2237  0.3831  0.8058
17327TIP3    H273397   6.772   5.590  11.442 -0.6685 -0.2090  0.0094
17328TIP3   OH273398   6.184   3.951  16.742 -0.1717  0.3154  0.7450
17328TIP3    H173399   6.258   3.891  16.738  1.2952  1.9625  1.4053
17328TIP3    H273400   6.224   4.036  16.762 -1.9925  1.8002 -1.4651
17329TIP3   OH273401   5.361   5.830   0.962 -0.1394 -0.3808 -0.0423
17329TIP3    H173402   5.373   5.760   1.025 -0.5860 -0.1435  0.3168
17329TIP3    H273403   5.438   5.826   0.906  0.6519 -0.0979  0.9986
17330TIP3   OH273404   5.462   4.552   4.368  0.1000 -0.1198 -0.2316
17330TIP3    H173405   5.424   4.466   4.346 -0.5114 -0.2192  1.1411
17330TIP3    H273406   5.465   4.598   4.284 -1.8277 -0.6207 -0.6305
17331TIP3   OH273407   0.929   2.551  16.190  0.0324  0.4854 -0.7390
17331TIP3    H173408   0.901   2.610  16.120 -0.9543 -0.3237 -1.0513
17331TIP3    H273409   0.858   2.554  16.254  1.3802  1.9983  0.7516
17332TIP3   OH273410   5.245   1.735  14.423 -0.8452 -0.3061 -0.1397
17332TIP3    H173411   5.198   1.653  14.433 -1.5228  0.0169 -0.6609
17332TIP3    H273412   5.183   1.794  14.381  0.3846 -0.2249 -1.9532
17333TIP3   OH273413   3.319   2.923  16.865 -0.4136 -0.1408 -0.0942
17333TIP3    H173414   3.316   2.992  16.931  1.0891  1.7936 -1.9094
17333TIP3    H273415   3.228   2.911  16.839 -0.7350  0.9855  0.4306
17334TIP3   OH273416   1.840   4.503  17.014 -0.2221 -0.3041 -0.4832
17334TIP3    H173417   1.857   4.486  17.107  0.2153  1.0561 -0.3037
17334TIP3    H273418   1.765   4.448  16.993 -0.1466 -0.8425  0.6014
17335TIP3   OH273419   5.466   3.978   4.718  0.2722 -0.0624  0.0597
17335TIP3    H173420   5.558   3.956   4.706  0.0231 -0.0942 -2.3640
17335TIP3    H273421   5.442   4.025   4.638 -2.3038 -1.7861 -0.2929
17336TIP3   OH273422   5.639   0.715   2.698  0.2699 -0.2586  0.1015
17336TIP3    H173423   5.672   0.787   2.752  0.3786 -0.6419  0.5436
17336TIP3    H273424   5.574   0.671   2.753 -0.6217  0.1659 -0.5695
17337TIP3   OH273425   4.822   5.202   0.265 -0.1995 -0.3378 -0.0710
17337TIP3    H173426   4.806   5.123   0.317  0.3365  0.0037  0.6292
17337TIP3    H273427   4.791   5.274   0.319  2.5078  0.2471  0.8607
17338TIP3   OH273428   0.386   4.793   3.360  0.3783 -0.0308  0.5817
17338TIP3    H173429   0.300   4.812   3.397  0.2102  2.3068 -0.8236
17338TIP3    H273430   0.369   4.773   3.268  1.2424 -0.6990  0.5559
17339TIP3   OH273431   4.096   1.138  15.617  0.2014 -0.3436  0.5180
17339TIP3    H173432   4.050   1.210  15.574  0.2300 -0.9105 -0.4916
17339TIP3    H273433   4.167   1.181  15.665 -0.1796  0.3556  0.4823
17340TIP3   OH273434   2.312   1.685  14.421 -0.0872  0.0877 -0.3431
17340TIP3    H173435   2.272   1.748  14.481 -1.9682 -1.1862 -0.1598
17340TIP3    H273436   2.324   1.733  14.340 -1.1735  0.7863 -0.1117
17341TIP3   OH273437   5.789   5.201   3.185 -0.1080 -0.1595 -0.4788
17341TIP3    H173438   5.769   5.289   3.153 -1.0651 -0.2031 -0.0460
17341TIP3    H273439   5.759   5.143   3.115  0.4756 -0.1423 -0.7425
17342TIP3   OH273440   4.935   4.709  15.190  0.2521 -0.1215  0.0235
17342TIP3    H173441   5.001   4.739  15.127 -0.1120  0.6021 -0.0236
17342TIP3    H273442   4.986   4.680  15.266  0.6214  0.7033  0.1057
17343TIP3   OH273443   5.767   4.300  15.344 -0.1728 -0.2878 -0.3269
17343TIP3    H173444   5.850   4.274  15.383  0.4313 -0.2513 -1.5555
17343TIP3    H273445   5.717   4.338  15.417  1.2427  0.5608  0.2343
17344TIP3   OH273446   5.017   4.674   4.891 -0.4314  0.6727 -0.3190
17344TIP3    H173447   4.997   4.616   4.817  0.2867  0.8765 -0.6858
17344TIP3    H273448   5.048   4.616   4.960 -3.2499  0.2055  0.6832
17345TIP3   OH273449   6.382   5.799   4.021 -0.0261  0.5738 -0.3709
17345TIP3    H173450   6.369   5.865   4.089  0.5304  0.0714  0.2408
17345TIP3    H273451   6.306   5.808   3.964 -0.8518  0.5533  0.7007
17346TIP3   OH273452   4.548   3.501   5.048  0.0481  0.1331 -0.2362
17346TIP3    H173453   4.553   3.553   4.968  0.0837 -0.4678 -0.6251
17346TIP3    H273454   4.540   3.410   5.018 -1.9032  0.0362  0.4040
17347TIP3   OH273455   3.285   4.573  16.597  0.0945  0.4672  0.2241
17347TIP3    H173456   3.302   4.479  16.599  0.6872  0.4999 -1.4463
17347TIP3    H273457   3.192   4.582  16.614  0.1974 -0.3440  1.3027
17348TIP3   OH273458   1.165   0.737  15.228 -0.1245  0.0316  0.3986
17348TIP3    H173459   1.126   0.666  15.279  0.7747 -0.2056  0.7813
17348TIP3    H273460   1.138   0.721  15.138  0.4360 -1.0612  0.4111
17349TIP3   OH273461   3.175   6.231  15.841  0.9163 -0.2853  0.1128
17349TIP3    H173462   3.239   6.275  15.786  1.1889 -0.5196  0.2421
17349TIP3    H273463   3.120   6.183  15.780  0.6068  0.2426 -0.0314
17350TIP3   OH273464   0.718   0.892   4.401 -0.0699  0.4961  0.0205
17350TIP3    H173465   0.674   0.948   4.337  1.7061 -1.6700 -3.4259
17350TIP3    H273466   0.671   0.809   4.398  0.8864 -0.0873  0.4333
17351TIP3   OH273467   0.010   6.467  14.462  0.3914  0.3318 -0.1083
17351TIP3    H173468   0.074   6.462  14.533 -0.1956  2.3653  0.6309
17351TIP3    H273469  -0.068   6.425  14.497  0.5014  0.1948 -0.0267
17352TIP3   OH273470   1.512   1.187   3.952 -0.1988  0.4675  0.3249
17352TIP3    H173471   1.567   1.151   3.883 -0.9449 -0.2251  0.0890
17352TIP3    H273472   1.474   1.111   3.996  0.9565  0.8424  2.0949
17353TIP3   OH273473   2.478   4.836  15.222  0.6824 -0.1137 -0.4264
17353TIP3    H173474   2.530   4.916  15.213  0.0303  0.5922  1.5877
17353TIP3    H273475   2.392   4.859  15.188  0.2089  0.3795  1.0605
17354TIP3   OH273476   3.125   1.241   4.289  0.1716 -0.0840  0.1792
17354TIP3    H173477   3.074   1.191   4.354  0.0734  0.0580  0.2124
17354TIP3    H273478   3.112   1.332   4.314  0.6377 -0.0588  0.3274
17355TIP3   OH273479   4.080   4.073   6.751  0.5971  0.0958  0.3253
17355TIP3    H173480   4.093   4.163   6.781  1.1715  0.8442 -1.9765
17355TIP3    H273481   4.169   4.039   6.738  0.4404  0.4390 -2.1148
17356TIP3   OH273482   0.263   2.203   5.849 -0.6848 -0.5605 -0.2374
17356TIP3    H173483   0.297   2.257   5.921 -0.5982  0.2658 -0.8946
17356TIP3    H273484   0.208   2.138   5.893  3.2622 -3.3735  1.1732
17357TIP3   OH273485   6.377   0.143   0.201 -0.0429  0.5903 -0.7813
17357TIP3    H173486   6.301   0.117   0.149  0.3383 -1.6195 -0.3487
17357TIP3    H273487   6.340   0.179   0.282 -0.6647 -0.6755 -0.4774
17358TIP3   OH273488   1.613   3.523  16.858 -0.1565  0.1834 -0.1402
17358TIP3    H173489   1.564   3.571  16.792  2.0495  0.0206 -2.0617
17358TIP3    H273490   1.644   3.590  16.919  0.4915  0.8354 -1.1566
17359TIP3   OH273491   2.706   1.228   3.973  0.0510  0.2380 -0.6873
17359TIP3    H173492   2.710   1.250   4.066  0.4706 -0.4381 -0.5353
17359TIP3    H273493   2.798   1.221   3.946 -0.0507  1.5912 -1.4452
17360TIP3   OH273494   0.425   3.383   6.496  0.4100 -0.1308  0.1591
17360TIP3    H173495   0.463   3.333   6.568 -0.4417 -1.2322 -0.1201
17360TIP3    H273496   0.396   3.316   6.434 -0.1174  0.7490 -0.5578
17361TIP3   OH273497   0.628   0.198  13.109 -0.1359 -0.1349 -0.0449
17361TIP3    H173498   0.713   0.194  13.152  0.2294 -0.0731 -0.7600
17361TIP3    H273499   0.644   0.240  13.025 -0.6542 -1.2290 -0.7136
17362TIP3   OH273500   2.635   3.936   1.258 -0.7407 -0.3313 -0.4286
17362TIP3    H173501   2.729   3.918   1.264 -0.3015  1.8520  0.4329
17362TIP3    H273502   2.620   4.003   1.325 -2.3737  1.2971 -2.3202
17363TIP3   OH273503   5.483   1.089  12.912  0.2459 -0.2493 -0.3362
17363TIP3    H173504   5.557   1.150  12.910  0.3077 -0.2404  1.1034
17363TIP3    H273505   5.446   1.093  12.824  1.1339  0.7623 -0.6876
17364TIP3   OH273506   0.199   3.043   4.623  0.2486 -0.0145 -0.4188
17364TIP3    H173507   0.269   2.979   4.633  0.4898  0.4808  1.4782
17364TIP3    H273508   0.243   3.124   4.600  0.2231  0.0760 -0.1600
17365TIP3   OH273509   1.641   2.589  13.701  0.0441  0.0612  0.0692
17365TIP3    H173510   1.668   2.634  13.621  0.9985 -0.2894  0.1815
17365TIP3    H273511   1.608   2.659  13.758  0.2690  0.4367 -0.2602
17366TIP3   OH273512   1.113   6.357  15.489 -0.1650  0.5260  0.5480
17366TIP3    H173513   1.201   6.374  15.521  0.9193  0.9820 -2.3810
17366TIP3    H273514   1.113   6.264  15.466  0.1230  0.8897 -0.9855
17367TIP3   OH273515   6.254   3.682  13.219  0.6713 -0.1328  0.2166
17367TIP3    H173516   6.349   3.673  13.214  0.6845  0.6892 -2.9179
17367TIP3    H273517   6.238   3.775  13.206 -0.6043 -0.4408 -0.5306
17368TIP3   OH273518   0.764   2.593  16.397 -0.5977  1.1492 -0.6619
17368TIP3    H173519   0.800   2.554  16.476  1.3086  0.6658 -1.6994
17368TIP3    H273520   0.672   2.609  16.417 -0.9401 -1.7834  0.5985
17369TIP3   OH273521   6.676   5.672  14.449 -0.1407  0.1866 -0.0122
17369TIP3    H173522   6.755   5.726  14.451 -1.0176  1.6083 -1.3086
17369TIP3    H273523   6.691   5.609  14.379 -0.0850  0.3681 -0.1651
17370TIP3   OH273524   4.128   0.871   0.092  0.3518 -0.3507  0.0504
17370TIP3    H173525   4.074   0.950   0.100  0.8482 -0.0151  0.1151
17370TIP3    H273526   4.066   0.803   0.066 -0.0879  0.0526  0.0173
17371TIP3   OH273527   4.871   4.274   5.444 -0.0123  0.7472 -0.0249
17371TIP3    H173528   4.892   4.357   5.401  0.3538  0.0152 -1.2778
17371TIP3    H273529   4.780   4.285   5.472  0.7655  2.5221  2.1462
17372TIP3   OH273530   5.644   0.328  10.552  0.2624  0.0446  0.7872
17372TIP3    H173531   5.612   0.238  10.554  1.6507 -0.4819  0.6330
17372TIP3    H273532   5.568   0.381  10.529 -0.6865 -1.0292  1.3630
17373TIP3   OH273533   0.758   1.712   4.155  0.5364  0.5208  0.0938
17373TIP3    H173534   0.809   1.644   4.110 -2.2898  0.3596 -3.3070
17373TIP3    H273535   0.721   1.668   4.231  2.0169 -0.5377  0.2414
17374TIP3   OH273536   6.397   5.672  15.245 -0.8400 -0.3976  0.0233
17374TIP3    H173537   6.468   5.677  15.310  1.4794  3.4397 -2.4214
17374TIP3    H273538   6.338   5.743  15.270 -2.5044 -1.8950  0.5062
17375TIP3   OH273539   0.543   3.561  11.176  0.0055 -0.0968  0.2621
17375TIP3    H173540   0.609   3.625  11.150  0.0559 -0.2198  0.0837
17375TIP3    H273541   0.467   3.613  11.203  0.3735  0.0615  1.0141
17376TIP3   OH273542   3.403   2.741  15.196 -0.3659 -0.4977  0.0353
17376TIP3    H173543   3.321   2.770  15.156 -0.0419 -0.3115 -0.4981
17376TIP3    H273544   3.430   2.815  15.251 -0.7328 -0.6977  0.5004
17377TIP3   OH273545   3.480   1.982  17.097  0.4163  0.5945  0.4445
17377TIP3    H173546   3.533   2.061  17.099  0.1796  0.7431  0.9850
17377TIP3    H273547   3.392   2.012  17.075  0.5024  0.3805 -0.1924
17378TIP3   OH273548   1.916   5.281  10.831  0.4775 -0.8339  0.0874
17378TIP3    H173549   1.975   5.351  10.858 -0.5399 -0.8057  2.4991
17378TIP3    H273550   1.964   5.234  10.763  2.7406 -0.0527  1.0449
17379TIP3   OH273551   5.767   2.755   3.405  0.0015  0.2574  0.1838
17379TIP3    H173552   5.770   2.659   3.401 -0.1014  0.2490  0.3117
17379TIP3    H273553   5.851   2.779   3.446  0.0721  0.2268  0.0557
17380TIP3   OH273554   6.435   0.700   3.665  0.6773 -0.3634  0.2546
17380TIP3    H173555   6.450   0.782   3.712 -1.1518 -0.3634  0.9068
17380TIP3    H273556   6.519   0.654   3.668  1.8348  1.6136 -0.4270
17381TIP3   OH273557   6.651   4.768   2.782  0.4165 -0.0574  0.2157
17381TIP3    H173558   6.583   4.788   2.719 -0.1258  0.5154  0.9633
17381TIP3    H273559   6.725   4.824   2.758  0.0660  0.4609  0.3282
17382TIP3   OH273560   3.409   5.173   3.645 -0.2694  0.6818  0.3629
17382TIP3    H173561   3.494   5.178   3.689  0.2658  0.2964 -0.5978
17382TIP3    H273562   3.428   5.132   3.561 -1.7622 -1.6362  1.0421
17383TIP3   OH273563   0.766   6.244   1.768 -0.0598  0.1942 -0.1591
17383TIP3    H173564   0.685   6.196   1.749 -0.1884 -0.2131  1.2411
17383TIP3    H273565   0.827   6.216   1.701 -0.0094 -2.3192  0.8230
17384TIP3   OH273566   5.972   3.784  11.944 -0.0744  0.3177  0.1864
17384TIP3    H173567   5.932   3.860  11.986 -1.4922 -1.1305  1.6389
17384TIP3    H273568   5.907   3.756  11.879  0.2621  0.0972 -0.0605
17385TIP3   OH273569   2.425   6.523   5.391  0.3376 -0.3183 -0.6265
17385TIP3    H173570   2.354   6.466   5.422  1.7326 -1.3417  0.8620
17385TIP3    H273571   2.504   6.470   5.400  1.6292  1.6578  0.2661
17386TIP3   OH273572   0.055   3.839  14.317  0.4767  0.9767  0.6555
17386TIP3    H173573   0.074   3.817  14.408  0.7780  0.0034  0.3694
17386TIP3    H273574  -0.039   3.821  14.307  0.1799  2.2011  1.0693
17387TIP3   OH273575   5.940   6.718  15.784  0.0491  0.0821 -0.1512
17387TIP3    H173576   5.852   6.712  15.821  0.5630 -1.9764  0.9294
17387TIP3    H273577   5.959   6.629  15.755  2.5930 -0.0924  1.7331
17388TIP3   OH273578   2.532   5.194   2.723  0.3205 -0.2398 -0.1369
17388TIP3    H173579   2.463   5.250   2.688  1.4779  0.0514 -2.1122
17388TIP3    H273580   2.612   5.244   2.711  1.1456 -1.4928 -0.0840
17389TIP3   OH273581   5.006   4.408  16.394  0.0942 -0.7202  0.0233
17389TIP3    H173582   4.932   4.429  16.451  0.8489 -0.0124  0.7835
17389TIP3    H273583   4.968   4.359  16.321 -1.6646  2.4357 -1.3682
17390TIP3   OH273584   1.374   4.309  13.232 -0.1336  0.3084  0.6426
17390TIP3    H173585   1.373   4.405  13.234  1.7295  0.3868 -0.0520
17390TIP3    H273586   1.330   4.283  13.313  0.7886  1.7946  1.6791
17391TIP3   OH273587   2.923   3.126   3.323 -0.2999 -0.2957  0.3383
17391TIP3    H173588   2.843   3.157   3.366 -0.7304 -0.9476  0.0225
17391TIP3    H273589   2.994   3.156   3.380 -0.6295  1.8566 -0.2632
17392TIP3   OH273590   0.315   3.403   3.756  0.9654  0.0708 -0.1545
17392TIP3    H173591   0.222   3.400   3.781  0.3826 -0.5631 -2.2363
17392TIP3    H273592   0.338   3.496   3.764 -0.1036  0.3835 -0.4571
17393TIP3   OH273593   3.033   1.535  16.233  0.0436  0.2090 -0.2308
17393TIP3    H173594   2.957   1.574  16.275 -1.2464 -0.5774 -1.7407
17393TIP3    H273595   3.054   1.458  16.287 -0.4756  0.2093 -0.0275
17394TIP3   OH273596   5.232   2.616  13.576 -0.2277 -0.0227 -0.1856
17394TIP3    H173597   5.165   2.550  13.557 -1.6394  1.5651 -0.9782
17394TIP3    H273598   5.218   2.684  13.510  0.4852  1.5649  1.2347
17395TIP3   OH273599   6.525   3.225   5.151  0.5491 -0.5646 -0.4303
17395TIP3    H173600   6.479   3.145   5.129 -0.9333  0.1186  0.0706
17395TIP3    H273601   6.480   3.293   5.102  1.4008  0.0524 -0.3778
17396TIP3   OH273602   5.676   2.786  15.517  0.8030 -0.2809  0.3103
17396TIP3    H173603   5.622   2.860  15.491  2.1277  0.7407  0.3892
17396TIP3    H273604   5.673   2.726  15.442 -0.4230 -0.2566  0.3212
17397TIP3   OH273605   5.813   2.149   3.796  0.8452  0.0936 -0.6132
17397TIP3    H173606   5.752   2.076   3.783  1.6866 -0.7215 -0.1352
17397TIP3    H273607   5.792   2.181   3.884 -0.2680  1.1712 -1.2464
17398TIP3   OH273608   5.959   2.559   3.345 -0.0482 -0.3964  0.9682
17398TIP3    H173609   5.997   2.474   3.368 -0.9913 -1.0792  0.1309
17398TIP3    H273610   5.959   2.608   3.427 -0.0032 -1.4181  1.6038
17399TIP3   OH273611   2.390   3.507  14.698 -0.9196  0.3949  0.1818
17399TIP3    H173612   2.481   3.536  14.704 -1.2639  1.9259 -1.3128
17399TIP3    H273613   2.391   3.437  14.633 -0.2503 -2.5310  3.0745
17400TIP3   OH273614   1.928   4.091  12.484  0.0271 -0.1221  0.3228
17400TIP3    H173615   1.837   4.120  12.487 -0.4626 -1.3833 -1.0044
17400TIP3    H273616   1.976   4.156  12.535 -1.2507  1.9423 -0.9813
17401TIP3   OH273617   0.894   6.076   1.291 -0.3155  0.3726  0.2848
17401TIP3    H173618   0.974   6.026   1.272 -0.0922  0.4724  0.9273
17401TIP3    H273619   0.905   6.158   1.242 -0.7601 -0.2585 -0.9090
17402TIP3   OH273620   6.123   3.726   2.952 -0.1202 -0.1203  0.2633
17402TIP3    H173621   6.150   3.717   2.861 -0.0839 -0.5854  0.3163
17402TIP3    H273622   6.108   3.819   2.964 -0.2192 -0.0694 -0.2444
17403TIP3   OH273623   5.581   6.529   4.743 -0.4903  0.2731 -0.0095
17403TIP3    H173624   5.556   6.620   4.763  1.2380  0.6563  0.5374
17403TIP3    H273625   5.623   6.534   4.657 -0.0603  0.0496  0.1884
17404TIP3   OH273626   0.840   4.316   4.131  0.3602  0.1552 -0.5397
17404TIP3    H173627   0.841   4.363   4.215 -0.3412  1.7120 -1.3488
17404TIP3    H273628   0.748   4.319   4.104  0.6262 -0.0731 -1.4925
17405TIP3   OH273629   5.168   6.460   0.029 -0.4399  0.2278 -0.9307
17405TIP3    H173630   5.130   6.431   0.112  0.2549 -2.2015 -1.3784
17405TIP3    H273631   5.108   6.427  -0.038  0.5911 -0.5659 -1.4908
17406TIP3   OH273632   1.308   3.598   2.617 -0.2011 -0.0833  0.2065
17406TIP3    H173633   1.332   3.507   2.598 -1.6012 -0.9296  2.1550
17406TIP3    H273634   1.220   3.592   2.653 -0.9117  2.2391 -0.9489
17407TIP3   OH273635   3.320   2.472  14.985 -0.2118  0.3181 -0.2859
17407TIP3    H173636   3.355   2.384  14.969 -0.9919  0.0611 -0.6727
17407TIP3    H273637   3.259   2.487  14.913 -0.9145  0.7219  0.3711
17408TIP3   OH273638   1.002   4.710  15.133  0.4114 -0.1498  0.4548
17408TIP3    H173639   1.073   4.763  15.169 -0.7585  0.7016  1.5758
17408TIP3    H273640   0.964   4.765  15.064 -0.9934  0.6803  1.8161
17409TIP3   OH273641   5.794   1.634   5.936  0.0980 -0.5600 -0.4273
17409TIP3    H173642   5.733   1.643   5.863  0.6008  2.0803 -0.6277
17409TIP3    H273643   5.868   1.585   5.900 -0.4347 -0.8419 -1.1611
17410TIP3   OH273644   1.976   3.622   0.963 -0.0013  1.1426 -0.0599
17410TIP3    H173645   1.920   3.551   0.995  0.1617  0.9277 -0.2436
17410TIP3    H273646   2.013   3.661   1.043  1.0712  0.0630  0.0147
17411TIP3   OH273647   3.124   1.394  16.995  0.2731 -0.1125 -0.5812
17411TIP3    H173648   3.052   1.442  17.037 -1.8533 -2.3926 -1.3849
17411TIP3    H273649   3.202   1.421  17.044 -1.3842  0.9579  1.6917
17412TIP3   OH273650   2.765   3.777   4.377  0.0811  0.0997  0.2407
17412TIP3    H173651   2.792   3.749   4.464  1.0608 -1.7352 -0.6091
17412TIP3    H273652   2.769   3.873   4.380 -0.8134  0.1288  2.4548
17413TIP3   OH273653   0.394   4.227   6.216 -0.5859 -0.1837  0.2890
17413TIP3    H173654   0.336   4.169   6.265 -1.4097  0.2565 -0.1423
17413TIP3    H273655   0.443   4.168   6.157 -0.7946 -0.5256  0.4551
17414TIP3   OH273656   6.245   5.409   3.787 -0.1207  0.1015  0.6203
17414TIP3    H173657   6.322   5.417   3.844  0.8374  1.5663 -0.7822
17414TIP3    H273658   6.177   5.461   3.830  0.7970  1.7577  0.1785
17415TIP3   OH273659   5.816   6.354  11.976  0.2599 -0.1958  0.4054
17415TIP3    H173660   5.826   6.359  12.071  1.2910 -2.1391  0.4524
17415TIP3    H273661   5.905   6.335  11.944 -0.3808 -1.4624 -0.7460
17416TIP3   OH273662   2.421   5.204  15.015  0.0403 -0.0509 -0.0755
17416TIP3    H173663   2.467   5.280  14.981 -1.9141  1.0391 -0.4314
17416TIP3    H273664   2.375   5.236  15.093 -1.2085 -0.6963 -0.5078
17417TIP3   OH273665   5.746   1.203  13.616  0.0968 -0.2654 -0.5151
17417TIP3    H173666   5.678   1.170  13.676  0.4140 -1.8100 -0.9639
17417TIP3    H273667   5.816   1.138  13.621 -0.3572 -1.1376 -3.4392
17418TIP3   OH273668   3.242   3.016  13.550 -0.3318 -0.2512 -0.0830
17418TIP3    H173669   3.218   3.022  13.458  0.9114  1.5036 -0.3392
17418TIP3    H273670   3.260   2.923  13.564  1.6244 -0.2887 -2.2267
17419TIP3   OH273671   0.899   4.581  10.647  0.0788  0.1817 -0.6779
17419TIP3    H173672   0.847   4.504  10.624 -0.2173 -0.2936  1.3431
17419TIP3    H273673   0.990   4.551  10.644 -0.0070 -0.1068 -0.4480
17420TIP3   OH273674   0.104   1.518  12.679 -0.3802  0.3334 -0.1781
17420TIP3    H173675   0.157   1.508  12.601 -2.8178 -0.2602 -1.8845
17420TIP3    H273676   0.157   1.481  12.750  1.5871  0.1813 -1.6533
17421TIP3   OH273677   0.438   3.681   0.272 -0.1403  0.5930 -0.2550
17421TIP3    H173678   0.401   3.680   0.184  2.6776 -1.0334 -1.5789
17421TIP3    H273679   0.461   3.772   0.288 -0.1731  0.8239 -1.4700
17422TIP3   OH273680   2.595   6.075  11.774  0.6253 -0.1156 -0.1721
17422TIP3    H173681   2.600   5.992  11.727  1.0637  0.0904 -0.5008
17422TIP3    H273682   2.554   6.135  11.712  3.1306  0.7260 -1.1658
17423TIP3   OH273683   6.221   3.434   2.418  0.5190  0.2558 -0.2738
17423TIP3    H173684   6.262   3.397   2.340 -0.5345 -0.4734 -0.5028
17423TIP3    H273685   6.127   3.423   2.404  0.3009 -1.7101  1.9272
17424TIP3   OH273686   0.172   5.772  12.928 -0.7502 -0.4722 -0.0558
17424TIP3    H173687   0.168   5.799  13.019  0.7021 -0.9889  0.1855
17424TIP3    H273688   0.247   5.820  12.892 -0.2195 -1.6184 -0.5001
17425TIP3   OH273689   3.688   1.573   5.601 -0.2056 -0.1410  0.2088
17425TIP3    H173690   3.606   1.528   5.578  0.0510  0.0726 -1.1974
17425TIP3    H273691   3.668   1.617   5.684 -1.0326 -1.3328  0.6790
17426TIP3   OH273692   3.243   5.834  11.083 -0.2212  0.3100  0.0315
17426TIP3    H173693   3.212   5.745  11.097 -0.4808  0.5842  1.2482
17426TIP3    H273694   3.253   5.841  10.987 -1.8799 -0.4587 -0.2243
17427TIP3   OH273695   4.300   4.547   6.371 -0.7135 -0.0074  0.3442
17427TIP3    H173696   4.353   4.614   6.414 -0.3845 -0.1823  0.2192
17427TIP3    H273697   4.242   4.514   6.439 -0.0175 -0.4621  0.7353
17428TIP3   OH273698   0.150   1.647  12.347  0.3932 -0.5792  0.4355
17428TIP3    H173699   0.069   1.667  12.392  0.8959 -1.2087  1.6713
17428TIP3    H273700   0.200   1.728  12.348 -0.7994  0.2619 -1.7060
17429TIP3   OH273701   0.473   0.911   1.944  0.1507  0.0723  0.0189
17429TIP3    H173702   0.502   0.867   2.024  1.3551  1.9892  0.7087
17429TIP3    H273703   0.554   0.937   1.900 -0.5142  0.0571 -1.2456
17430TIP3   OH273704   1.224   3.458   3.878  0.6431 -0.1986  0.2853
17430TIP3    H173705   1.149   3.452   3.937  0.5950 -1.0291  0.1568
17430TIP3    H273706   1.299   3.470   3.936  0.5346 -0.5055  0.4928
17431TIP3   OH273707   6.134   1.785  12.189  0.0838  0.0975 -0.3078
17431TIP3    H173708   6.146   1.876  12.215  0.3211  0.1451 -0.5809
17431TIP3    H273709   6.131   1.737  12.272 -0.1280  0.3619 -0.1610
17432TIP3   OH273710   5.501   6.171  16.586  0.1843 -0.0077 -0.6558
17432TIP3    H173711   5.432   6.230  16.615  0.8084  0.1657  0.5345
17432TIP3    H273712   5.546   6.219  16.517 -1.7923 -0.7269 -2.5516
17433TIP3   OH273713   5.957   2.998   1.578 -0.4212 -0.7023 -0.0123
17433TIP3    H173714   5.892   3.003   1.649  0.3412  0.8309  0.6402
17433TIP3    H273715   6.013   2.925   1.602  0.0494  0.0179  1.2139
17434TIP3   OH273716   5.155   6.423  13.425 -0.1532 -0.2284 -0.1821
17434TIP3    H173717   5.136   6.474  13.503 -0.0528  1.3279 -1.1329
17434TIP3    H273718   5.074   6.378  13.405 -1.0265  1.4859 -0.6860
17435TIP3   OH273719   3.003   3.458  12.696 -0.1546  0.7081 -0.3094
17435TIP3    H173720   2.938   3.506  12.645 -1.0472 -0.3234 -0.1785
17435TIP3    H273721   2.985   3.483  12.787  0.1014  0.9613 -0.3255
17436TIP3   OH273722   5.594   5.681  15.048  0.0961  0.0174 -0.7732
17436TIP3    H173723   5.543   5.762  15.044  0.2844  0.1042 -1.6465
17436TIP3    H273724   5.528   5.613  15.061 -0.2049  0.1817 -1.3786
17437TIP3   OH273725   1.202   1.352   4.742 -0.3771  0.3354  0.3616
17437TIP3    H173726   1.223   1.261   4.764 -0.0577  0.2484 -0.2816
17437TIP3    H273727   1.271   1.379   4.681 -2.4756 -0.2089 -2.4631
17438TIP3   OH273728   0.112   1.370   4.147  0.1781 -0.1305  0.5480
17438TIP3    H173729   0.068   1.285   4.141  2.8564 -1.5694 -0.4785
17438TIP3    H273730   0.199   1.350   4.181  1.0296  2.1630 -0.0571
17439TIP3   OH273731   3.428   5.672   1.703 -0.3056  0.2383 -0.0724
17439TIP3    H173732   3.518   5.665   1.736  0.2743 -0.0357 -1.6202
17439TIP3    H273733   3.394   5.583   1.707 -0.1602  0.1663 -0.3827
17440TIP3   OH273734   6.715   3.656   5.030  0.3197  1.0914 -0.3621
17440TIP3    H173735   6.636   3.638   5.081  1.4529  1.5226  1.6534
17440TIP3    H273736   6.693   3.734   4.979 -0.4903  1.3633  0.3713
17441TIP3   OH273737   5.841   4.427  11.118  0.3307 -0.3896 -0.2223
17441TIP3    H173738   5.787   4.395  11.189 -1.0586  0.0978 -1.0229
17441TIP3    H273739   5.885   4.505  11.153 -0.8159  0.2047 -0.0740
17442TIP3   OH273740   2.037   5.308   1.678 -0.2807  0.0927  0.3712
17442TIP3    H173741   2.007   5.346   1.595 -2.8452 -0.6258  0.8936
17442TIP3    H273742   2.032   5.380   1.740 -0.2655  0.1439  0.3134
17443TIP3   OH273743   3.405   3.260  14.310  0.0775  0.0525 -0.4535
17443TIP3    H173744   3.332   3.297  14.359 -1.0151 -1.2637 -1.0232
17443TIP3    H273745   3.438   3.190  14.365  1.4255  1.1165  0.1333
17444TIP3   OH273746   4.923   4.529  10.826  0.1424 -0.0827 -0.1025
17444TIP3    H173747   4.987   4.599  10.814  0.3318 -0.3987 -1.0144
17444TIP3    H273748   4.970   4.449  10.803 -0.4697 -0.3569 -0.4308
17445TIP3   OH273749   6.064   5.646  11.188 -0.3865 -0.0513 -0.1035
17445TIP3    H173750   6.098   5.733  11.165  0.0014 -0.4877 -1.2437
17445TIP3    H273751   5.969   5.656  11.184 -0.3567  0.4166  0.1864
17446TIP3   OH273752   0.714   5.617   1.222  0.1574 -0.7719 -0.4473
17446TIP3    H173753   0.784   5.679   1.200 -0.6325 -0.1249 -1.2358
17446TIP3    H273754   0.736   5.538   1.172  0.1763 -0.4759 -0.9162
17447TIP3   OH273755   3.624   0.987   5.827 -0.0678  0.4525  0.2466
17447TIP3    H173756   3.541   0.942   5.843  0.1524  0.1019  0.4154
17447TIP3    H273757   3.686   0.917   5.804 -0.0241  0.7964 -0.7229
17448TIP3   OH273758   3.996   2.459  16.321 -0.2224  0.4146 -0.0106
17448TIP3    H173759   4.035   2.445  16.235  0.5997 -0.3790  0.4694
17448TIP3    H273760   4.067   2.499  16.373 -0.1419 -0.6709  0.7600
17449TIP3   OH273761   5.357   2.477   2.385  0.0635 -0.6279 -0.0142
17449TIP3    H173762   5.371   2.396   2.434  0.4334 -0.5339  0.0412
17449TIP3    H273763   5.436   2.530   2.403  0.6807 -0.9936 -1.5203
17450TIP3   OH273764   6.016   2.716  11.318 -0.1569  0.3715  0.4038
17450TIP3    H173765   6.044   2.714  11.410 -0.4481  1.5739  0.5302
17450TIP3    H273766   5.923   2.694  11.321  0.1571 -1.0464  0.2378
17451TIP3   OH273767   5.356   6.258  15.883  0.2367  0.0722  0.5561
17451TIP3    H173768   5.420   6.315  15.926  0.1942  2.5019 -2.2283
17451TIP3    H273769   5.394   6.241  15.797 -1.3185 -1.3630  0.1090
17452TIP3   OH273770   4.593   4.585   0.566 -0.6309  0.0659 -0.3388
17452TIP3    H173771   4.645   4.653   0.524  0.4721 -1.9807 -2.5562
17452TIP3    H273772   4.656   4.532   0.614 -1.4201  0.3626  1.0765
17453TIP3   OH273773   2.609   1.972   4.728  0.0036 -0.0282 -0.1363
17453TIP3    H173774   2.677   1.969   4.795 -0.9517  1.0392  0.9173
17453TIP3    H273775   2.611   1.884   4.689  1.3654 -0.2950  0.4652
17454TIP3   OH273776   4.899   0.367   1.207  0.0207  0.2977  0.2428
17454TIP3    H173777   4.907   0.351   1.302 -0.1767  0.3296  0.2637
17454TIP3    H273778   4.988   0.355   1.174 -0.0095 -0.2475  0.3526
17455TIP3   OH273779   4.819   2.522   3.790 -0.2116 -0.2693 -0.3296
17455TIP3    H173780   4.796   2.605   3.748  0.3164 -0.3781 -0.8307
17455TIP3    H273781   4.841   2.463   3.718 -0.6067 -0.8589  0.0199
17456TIP3   OH273782   4.576   1.717  14.654 -0.1522  0.8395 -0.2797
17456TIP3    H173783   4.578   1.670  14.571  2.1693 -0.6710  0.5306
17456TIP3    H273784   4.606   1.652  14.718 -0.7681  2.2930  1.5535
17457TIP3   OH273785   4.785   4.184  12.925  0.1658 -0.0539  0.0390
17457TIP3    H173786   4.825   4.209  12.842  2.5086  2.2315  1.6990
17457TIP3    H273787   4.711   4.245  12.936  0.8555  0.7474  0.3347
17458TIP3   OH273788   4.658   3.259  14.561 -0.3471 -0.0999 -0.7376
17458TIP3    H173789   4.661   3.226  14.471 -0.1501  0.2722 -0.8731
17458TIP3    H273790   4.740   3.229  14.601 -0.2996 -0.0226 -0.7746
17459TIP3   OH273791   1.478   5.845   4.888  0.1120  0.3525 -0.1820
17459TIP3    H173792   1.545   5.834   4.955 -1.5721 -1.3202  1.3713
17459TIP3    H273793   1.473   5.940   4.874  1.0820  0.6817  1.4622
17460TIP3   OH273794   2.516   1.970   4.360  0.7504 -0.2624 -0.2758
17460TIP3    H173795   2.580   1.936   4.297 -0.3099 -3.3923  0.1169
17460TIP3    H273796   2.511   1.902   4.427 -2.0422  0.4609  0.3633
17461TIP3   OH273797   3.444   1.617   0.925 -0.4361  0.1466 -0.2971
17461TIP3    H173798   3.529   1.642   0.962 -0.7155 -1.4937  1.5577
17461TIP3    H273799   3.389   1.695   0.937  0.7926  1.2841 -1.6595
17462TIP3   OH273800   0.599   0.264   0.660 -0.3127  0.1081 -0.5985
17462TIP3    H173801   0.561   0.234   0.742 -1.4666 -0.6129 -1.3556
17462TIP3    H273802   0.613   0.183   0.610 -2.5137  0.6751 -2.2869
17463TIP3   OH273803   3.793   4.916   2.725 -0.4452  0.5768 -0.3378
17463TIP3    H173804   3.818   4.916   2.633 -0.4246  0.3261 -0.3314
17463TIP3    H273805   3.782   4.824   2.748  1.0915  0.5349  0.3391
17464TIP3   OH273806   2.196   5.553   0.415  0.1548  0.1960 -0.2220
17464TIP3    H173807   2.226   5.506   0.337 -3.2058 -1.2366 -0.8594
17464TIP3    H273808   2.154   5.632   0.380 -0.2207  0.2106  0.2501
17465TIP3   OH273809   2.736   4.607  16.138 -0.1586  0.5359  0.2358
17465TIP3    H173810   2.723   4.525  16.091 -0.3079  1.2595 -1.0358
17465TIP3    H273811   2.706   4.590  16.227 -3.1967  0.1097 -0.7760
17466TIP3   OH273812   2.027   0.910  13.961  0.1985  0.2314 -0.4058
17466TIP3    H173813   2.011   1.003  13.947 -1.1396 -0.1097 -1.2042
17466TIP3    H273814   2.006   0.896  14.054  2.4314  1.0999  0.3106
17467TIP3   OH273815   5.849   3.732  13.169  0.4611 -0.2918  0.0088
17467TIP3    H173816   5.884   3.746  13.257 -0.0025 -0.1507  0.1712
17467TIP3    H273817   5.913   3.675  13.127  1.2585  0.5444  0.0632
17468TIP3   OH273818   4.168   5.103   2.371 -0.1087  0.9062  0.5151
17468TIP3    H173819   4.234   5.035   2.381  0.1545  0.9185 -0.9690
17468TIP3    H273820   4.101   5.081   2.436  0.2290 -0.4520  0.4305
17469TIP3   OH273821   1.624   0.205   1.174 -0.1826  0.7413 -0.2333
17469TIP3    H173822   1.538   0.229   1.140 -1.7393 -2.9983  0.5780
17469TIP3    H273823   1.658   0.141   1.111  1.5892  1.4065 -0.0142
17470TIP3   OH273824   3.152   0.129   5.915  0.2784 -0.5513  0.0530
17470TIP3    H173825   3.237   0.119   5.873  0.2544  1.0889 -0.4493
17470TIP3    H273826   3.173   0.151   6.006  0.3758 -1.0089  0.1422
17471TIP3   OH273827   5.420   0.420   2.293 -0.1476 -0.0908 -0.6471
17471TIP3    H173828   5.357   0.473   2.341  0.1107 -0.0289 -0.3736
17471TIP3    H273829   5.502   0.428   2.342 -0.5939 -2.4105  0.6432
17472TIP3   OH273830   2.108   6.775   3.336 -0.1378 -0.0188 -1.1163
17472TIP3    H173831   2.075   6.688   3.362  0.4282  0.0041 -0.2662
17472TIP3    H273832   2.200   6.760   3.316 -0.0819  0.3534 -1.1372
17473TIP3   OH273833   3.490   1.775   3.516 -0.4697 -0.4265  0.0519
17473TIP3    H173834   3.472   1.720   3.440  0.0257  0.3110 -0.6245
17473TIP3    H273835   3.482   1.717   3.591 -1.8816 -0.9663 -0.4877
17474TIP3   OH273836   5.404   0.844   5.772 -0.0426 -0.3251 -0.0570
17474TIP3    H173837   5.420   0.751   5.786 -0.7723 -0.6332 -1.1877
17474TIP3    H273838   5.381   0.877   5.859 -0.6858 -1.3957  0.2000
17475TIP3   OH273839   0.060   4.056   1.935 -0.0807  0.4310 -0.6508
17475TIP3    H173840   0.135   4.019   1.889 -0.9441 -1.6016 -0.5077
17475TIP3    H273841   0.072   4.151   1.928  1.4400  0.1604 -2.3274
17476TIP3   OH273842   0.137   4.114  15.686  0.4540  0.1320 -0.2028
17476TIP3    H173843   0.200   4.164  15.633  1.0069 -1.0529 -0.6880
17476TIP3    H273844   0.093   4.181  15.739  0.3048  1.3073 -1.7083
17477TIP3   OH273845   0.917   3.597  13.647  1.0240 -0.6403 -0.1282
17477TIP3    H173846   0.997   3.604  13.699  0.7311 -1.4334  0.4534
17477TIP3    H273847   0.848   3.626  13.705  0.6837 -1.5994 -0.0338
17478TIP3   OH273848   6.137   0.420   1.746  0.3271 -0.4177  0.4481
17478TIP3    H173849   6.129   0.359   1.818  0.8139  1.6702  2.3965
17478TIP3    H273850   6.067   0.484   1.759  0.2701 -0.1110 -1.0787
17479TIP3   OH273851   5.396   1.981  13.717 -0.1192 -0.7006 -0.0633
17479TIP3    H173852   5.463   1.996  13.649 -1.0716  0.8920 -0.6949
17479TIP3    H273853   5.328   1.931  13.672 -0.6242  0.1184 -0.2309
17480TIP3   OH273854   2.888   5.632  14.162  0.5803  0.5315  0.6651
17480TIP3    H173855   2.942   5.593  14.231  1.5237 -0.3284 -0.5350
17480TIP3    H273856   2.819   5.568  14.147 -0.5756  1.4199  1.8646
17481TIP3   OH273857   2.181   3.660  14.793  0.1286  0.3048 -0.1002
17481TIP3    H173858   2.247   3.596  14.765  0.5586  0.4382  0.5853
17481TIP3    H273859   2.129   3.676  14.715 -0.3790 -1.3510 -0.1293
17482TIP3   OH273860   3.345   1.355   1.026  0.6299  0.0467  0.5310
17482TIP3    H173861   3.306   1.390   1.107 -3.7988  0.7209 -1.5793
17482TIP3    H273862   3.377   1.432   0.980 -0.3639  0.1671  0.0241
17483TIP3   OH273863   3.139   0.524  12.280  0.3579  0.2602  0.7569
17483TIP3    H173864   3.203   0.593  12.294 -0.3371  0.7608  1.5464
17483TIP3    H273865   3.183   0.444  12.307  0.7841  0.5462  0.9124
17484TIP3   OH273866   2.351   2.791  12.043 -0.6542  0.6928  0.2009
17484TIP3    H173867   2.273   2.821  11.997 -0.7143  1.1147  0.5636
17484TIP3    H273868   2.370   2.705  12.005 -0.3431  1.2870 -1.0211
17485TIP3   OH273869   1.600   4.331  15.871  0.2199 -0.1324 -0.4624
17485TIP3    H173870   1.509   4.318  15.899  0.6504 -1.0852  0.5665
17485TIP3    H273871   1.616   4.424  15.888 -0.3222 -0.1352  0.1355
17486TIP3   OH273872   1.276   4.646   2.985 -0.0752 -0.3439 -0.1975
17486TIP3    H173873   1.223   4.611   2.913 -0.6587 -0.1317  0.1219
17486TIP3    H273874   1.222   4.633   3.063  0.2362  0.1195  0.0992
17487TIP3   OH273875   1.675   2.971  16.575 -0.0807  0.0480 -0.3283
17487TIP3    H173876   1.697   2.943  16.664  0.9439  0.3081 -0.4893
17487TIP3    H273877   1.685   2.892  16.522 -0.5100 -0.0640 -0.2442
17488TIP3   OH273878   6.358   4.125   3.947  0.2573  0.1040  0.1375
17488TIP3    H173879   6.286   4.185   3.929  0.7281  0.6831  0.1413
17488TIP3    H273880   6.330   4.076   4.024  0.4151  1.2673  0.9708
17489TIP3   OH273881   2.216   0.452  12.688  0.1873  0.4355 -0.1638
17489TIP3    H173882   2.266   0.394  12.745 -0.9674 -0.5372 -0.0979
17489TIP3    H273883   2.179   0.518  12.746 -0.0984  0.0825  0.0565
17490TIP3   OH273884   0.149   0.450   2.570  0.3437  0.0669 -0.4570
17490TIP3    H173885   0.240   0.471   2.551  0.9332 -2.5336 -0.8712
17490TIP3    H273886   0.099   0.491   2.499  0.9451  2.6963  0.5149
17491TIP3   OH273887   6.312   3.748  10.473  0.1619  0.1317  0.0055
17491TIP3    H173888   6.385   3.803  10.501  1.8700 -2.3129  0.6692
17491TIP3    H273889   6.234   3.802  10.489  1.6745  2.2173  0.8509
17492TIP3   OH273890   6.567   6.720  11.709 -0.4474  0.4542  0.0008
17492TIP3    H173891   6.633   6.683  11.649 -1.3057  0.7007 -1.1319
17492TIP3    H273892   6.599   6.697  11.796  1.3443  0.8994 -0.4915
17493TIP3   OH273893   4.971   2.180  14.589  0.2501  0.2556  0.4016
17493TIP3    H173894   4.921   2.157  14.511  2.2035 -1.0013 -0.5534
17493TIP3    H273895   4.913   2.237  14.639 -1.8861 -0.6817 -0.8968
17494TIP3   OH273896   6.640   6.752   1.399  0.0313  0.4510  0.1507
17494TIP3    H173897   6.594   6.823   1.354 -0.5789 -0.1466 -0.1831
17494TIP3    H273898   6.722   6.792   1.429 -0.3804  1.3375  0.1238
17495TIP3   OH273899   0.180   2.919  11.537 -0.0414  0.0056  0.0432
17495TIP3    H173900   0.210   2.838  11.495  1.5916  1.1282 -1.0585
17495TIP3    H273901   0.257   2.952  11.582 -0.4905  1.3144 -0.1134
17496TIP3   OH273902   5.115   2.399   1.921 -0.3069 -0.5369  0.4132
17496TIP3    H173903   5.185   2.413   1.857  0.3340 -0.1248  1.1809
17496TIP3    H273904   5.142   2.320   1.969 -1.9863 -2.3197 -1.3623
17497TIP3   OH273905   4.288   0.286   0.101  0.3419 -0.4031  0.3490
17497TIP3    H173906   4.259   0.323   0.018  1.0049 -1.7856 -0.5482
17497TIP3    H273907   4.321   0.361   0.151 -0.8673  0.5729 -0.2657
17498TIP3   OH273908   3.272   4.791   0.685 -0.3080  0.3799  0.4735
17498TIP3    H173909   3.204   4.824   0.744 -0.1196  0.9561  0.3735
17498TIP3    H273910   3.333   4.745   0.742  0.0398  1.2043  0.7826
17499TIP3   OH273911   0.055   1.535  11.378 -0.4113 -0.2503  0.4374
17499TIP3    H173912   0.022   1.624  11.391 -0.1143 -0.3330  1.9605
17499TIP3    H273913   0.105   1.539  11.296  0.5447  1.2806  1.0510
17500TIP3   OH273914   1.950   1.413   3.424 -0.0160 -0.3975 -0.1153
17500TIP3    H173915   1.993   1.336   3.386 -3.0067 -2.8999  1.1096
17500TIP3    H273916   1.999   1.487   3.389  1.5615 -2.7046 -3.3993
17501TIP3   OH273917   1.160   5.257  10.919  0.3653  0.1025 -0.1647
17501TIP3    H173918   1.121   5.325  10.974 -1.2394 -1.9521  1.3704
17501TIP3    H273919   1.152   5.291  10.830  1.6760  2.8705  0.6671
17502TIP3   OH273920   2.573   4.887   2.507 -0.0167  0.5605 -0.5589
17502TIP3    H173921   2.617   4.839   2.577  0.8273 -0.6195 -1.8477
17502TIP3    H273922   2.490   4.915   2.546  0.3590 -0.1896  0.8608
17503TIP3   OH273923   6.165   3.325  11.984  0.1153  0.4004 -0.1595
17503TIP3    H173924   6.105   3.387  12.025  0.4276  2.9283 -3.1447
17503TIP3    H273925   6.108   3.255  11.951 -0.8628  1.3595 -0.5641
17504TIP3   OH273926   0.204   1.776  13.921 -0.2037 -0.1171  0.7603
17504TIP3    H173927   0.237   1.686  13.925  0.9531  0.1691 -0.9447
17504TIP3    H273928   0.111   1.768  13.937  0.2393 -1.2963  3.1479
17505TIP3   OH273929   0.942   0.805  14.344 -0.1740 -0.4553 -0.5310
17505TIP3    H173930   0.874   0.825  14.280 -1.2232 -0.7178  0.4842
17505TIP3    H273931   0.934   0.711  14.359  1.1883 -0.7176 -1.2432
17506TIP3   OH273932   4.247   1.315   3.390 -0.4434  0.3896  0.6814
17506TIP3    H173933   4.301   1.237   3.402  1.0874  1.3282  0.2308
17506TIP3    H273934   4.202   1.327   3.474 -1.0722 -1.2080  0.6019
17507TIP3   OH273935   1.447   2.826  13.553  0.8790  0.1058 -0.3565
17507TIP3    H173936   1.414   2.736  13.546  0.9682  0.0826 -0.4828
17507TIP3    H273937   1.369   2.881  13.553  0.5370 -0.1499  3.3896
17508TIP3   OH273938   4.556   1.402   5.601  0.2183  0.1841 -0.1357
17508TIP3    H173939   4.577   1.490   5.571 -0.2658  0.0010 -1.0641
17508TIP3    H273940   4.600   1.344   5.538 -0.4644 -0.2222 -0.2525
17509TIP3   OH273941   0.856   2.016   3.003  0.2055 -0.1350  0.1571
17509TIP3    H173942   0.815   2.085   2.951  2.3663  0.3242 -1.0912
17509TIP3    H273943   0.786   1.982   3.059 -1.5278  1.3205 -1.0216
17510TIP3   OH273944   0.906   4.715   2.725 -0.0578 -0.0587  0.7362
17510TIP3    H173945   0.916   4.726   2.820 -3.6805  1.0074  1.1547
17510TIP3    H273946   0.891   4.804   2.692  0.0708 -0.5400 -0.6819
17511TIP3   OH273947   4.975   4.131   0.143  0.1639  0.2048  0.0363
17511TIP3    H173948   5.011   4.194   0.205  0.2484 -0.1386  0.3376
17511TIP3    H273949   4.908   4.083   0.193 -0.6556  0.7747 -0.4855
17512TIP3   OH273950   6.700   0.428   6.036  0.3312 -0.4750  0.2244
17512TIP3    H173951   6.661   0.344   6.011 -1.6222 -0.4835  2.8765
17512TIP3    H273952   6.794   0.415   6.023 -0.1271 -2.0056 -2.2172
17513TIP3   OH273953   2.524   3.326  16.766 -0.2782  0.1977 -0.7209
17513TIP3    H173954   2.503   3.397  16.827 -0.1987 -0.6727  0.3389
17513TIP3    H273955   2.620   3.328  16.759 -0.3265  0.7119 -1.3420
17514TIP3   OH273956   3.646   5.663   2.069 -0.1320 -0.0043  0.0684
17514TIP3    H173957   3.651   5.571   2.041  2.6155  0.2101 -0.4030
17514TIP3    H273958   3.702   5.710   2.007  0.9908  1.4885  2.0864
17515TIP3   OH273959   3.848   5.778  11.846  0.3233  0.2616 -0.1381
17515TIP3    H173960   3.752   5.775  11.841  0.0576  3.9085  0.0814
17515TIP3    H273961   3.867   5.774  11.940  0.4051 -0.3697 -0.1771
17516TIP3   OH273962   0.078   5.095  13.462 -0.2234  0.6833  0.2465
17516TIP3    H173963   0.044   5.020  13.510  2.0819 -0.0742  0.8143
17516TIP3    H273964   0.035   5.090  13.377 -0.3303 -1.1387  0.3630
17517TIP3   OH273965   5.483   1.349   2.284 -0.2334 -0.1920 -0.1593
17517TIP3    H173966   5.421   1.412   2.319  0.9080  0.4472  0.8155
17517TIP3    H273967   5.558   1.402   2.256  1.7560 -1.1177  2.7703
17518TIP3   OH273968   2.247   2.328  14.770  0.2641  0.2373 -0.0180
17518TIP3    H173969   2.297   2.247  14.759  1.0385  0.9216 -2.0559
17518TIP3    H273970   2.289   2.372  14.844  1.8539  0.1639 -0.8286
17519TIP3   OH273971   1.982   0.488  16.144 -0.0197  0.1763 -0.3477
17519TIP3    H173972   1.948   0.516  16.058 -0.0095  0.1543 -0.3597
17519TIP3    H273973   2.056   0.547  16.161  0.3213 -0.1735 -0.6042
17520TIP3   OH273974   2.324   1.686   5.594  1.0293  0.1385 -0.2679
17520TIP3    H173975   2.300   1.743   5.521 -2.4018  0.5550  0.9766
17520TIP3    H273976   2.293   1.733   5.672 -0.8300 -2.7505  0.9248
17521TIP3   OH273977   4.244   6.594  16.291 -0.2799 -0.0043 -0.0156
17521TIP3    H173978   4.191   6.625  16.365  0.3888 -0.7908  0.8234
17521TIP3    H273979   4.320   6.652  16.289 -0.7389  0.5837 -0.6703
17522TIP3   OH273980   6.064   2.453  15.295 -0.4324 -0.4842 -0.6418
17522TIP3    H173981   6.151   2.437  15.332 -0.2485  1.1940 -0.2590
17522TIP3    H273982   6.004   2.421  15.363 -0.1090 -0.5857 -0.3957
17523TIP3   OH273983   0.280   1.321  12.122  0.2307  0.2398 -0.3708
17523TIP3    H173984   0.302   1.302  12.213 -2.5001 -3.1099 -0.2317
17523TIP3    H273985   0.359   1.360  12.086  1.9907  0.0856  2.9590
17524TIP3   OH273986   0.914   3.141   2.724 -0.2593  0.4282 -0.1957
17524TIP3    H173987   0.836   3.171   2.771 -0.2365  0.5653 -0.2452
17524TIP3    H273988   0.987   3.185   2.768 -0.2479  0.6538 -0.4346
17525TIP3   OH273989   4.951   1.082   2.659 -0.3263  0.1279 -0.3790
17525TIP3    H173990   5.003   1.010   2.624  0.1013  0.7584 -1.0654
17525TIP3    H273991   4.994   1.106   2.740 -1.5143 -1.5670  0.8398
17526TIP3   OH273992   0.529   0.884  16.003 -0.1507 -0.1100 -0.6303
17526TIP3    H173993   0.465   0.914  15.938  0.4258  2.8205 -0.0223
17526TIP3    H273994   0.613   0.916  15.971  0.4968 -0.7831  0.3463
17527TIP3   OH273995   5.907   2.240  13.955 -0.0119  0.0290 -0.2974
17527TIP3    H173996   5.950   2.159  13.983 -1.2213  0.2614  2.5592
17527TIP3    H273997   5.827   2.211  13.912  0.8781 -0.2837 -1.8451
17528TIP3   OH273998   0.811   6.103   0.310  0.4389  0.2724  0.1204
17528TIP3    H173999   0.819   6.046   0.233 -0.9515 -1.1259  0.9551
17528TIP3    H274000   0.859   6.058   0.379 -0.4367  0.2258  0.7206
17529TIP3   OH274001   3.179   4.795   3.223 -0.1942  0.5282 -0.0824
17529TIP3    H174002   3.144   4.763   3.306 -0.0364  0.1928 -0.1415
17529TIP3    H274003   3.232   4.871   3.246  0.8706 -0.3095  0.2795
17530TIP3   OH274004   0.414   0.766  11.527 -0.2138  0.1188 -0.3249
17530TIP3    H174005   0.347   0.822  11.566  0.4163  1.2310 -0.8115
17530TIP3    H274006   0.427   0.696  11.591 -3.0008 -1.0746 -0.9172
17531TIP3   OH274007   3.566   5.112   2.553  0.4545  0.3391  0.5553
17531TIP3    H174008   3.529   5.183   2.502 -1.3311  0.2471  1.6347
17531TIP3    H274009   3.607   5.156   2.628 -0.1232  0.2679  0.9138
17532TIP3   OH274010   0.406   5.706   3.483  0.2569  0.2909  0.2402
17532TIP3    H174011   0.442   5.741   3.402  2.4071  0.5439  1.2200
17532TIP3    H274012   0.372   5.620   3.460 -1.4589  1.3510 -1.3971
17533TIP3   OH274013   4.999   5.961  11.757 -0.8832  0.0185  0.1811
17533TIP3    H174014   5.018   6.035  11.698  0.4849  0.7808  1.5018
17533TIP3    H274015   5.057   5.891  11.726  0.3583  0.6464  0.9969
17534TIP3   OH274016   6.406   4.680   4.848  0.2695 -0.3185 -0.5211
17534TIP3    H174017   6.475   4.631   4.804  0.3132  0.1370 -0.9724
17534TIP3    H274018   6.345   4.613   4.880  0.9911 -0.7277  0.0079
17535TIP3   OH274019   3.725   0.126  14.401  0.5190  0.5389  0.9340
17535TIP3    H174020   3.695   0.046  14.358  0.7640  0.0518  1.6568
17535TIP3    H274021   3.646   0.166  14.436  0.1810  1.4186 -0.7103
17536TIP3   OH274022   3.069   1.519   2.284  0.0691 -0.1182  0.7831
17536TIP3    H174023   2.992   1.530   2.340  0.2909  1.9087  0.7818
17536TIP3    H274024   3.143   1.545   2.339  0.1612  3.2952 -0.7097
17537TIP3   OH274025   0.111   4.333   1.888 -0.0467 -0.2393 -0.0160
17537TIP3    H174026   0.176   4.399   1.863 -0.6889  0.4087 -0.0177
17537TIP3    H274027   0.031   4.360   1.842 -0.6919 -0.2161  1.0856
17538TIP3   OH274028   6.006   3.649  10.926  0.2034  0.1212 -0.8012
17538TIP3    H174029   5.988   3.634  11.019 -0.8952  2.2244 -0.6092
17538TIP3    H274030   6.080   3.592  10.906 -0.3997 -1.4142  0.9946
17539TIP3   OH274031   2.617   5.411  14.879 -0.3831 -0.0414  0.0538
17539TIP3    H174032   2.683   5.358  14.922 -1.9988 -1.4092  0.9398
17539TIP3    H274033   2.638   5.405  14.786 -1.6826 -4.1117 -0.1743
17540TIP3   OH274034   6.362   3.834  17.017  0.2895 -0.2441  0.2108
17540TIP3    H174035   6.299   3.904  16.998 -0.1513 -0.7069 -0.0738
17540TIP3    H274036   6.308   3.755  17.023  0.7198 -0.4958  0.9801
17541TIP3   OH274037   3.402   0.731  15.086  0.2969 -0.1087 -0.2977
17541TIP3    H174038   3.333   0.699  15.144  1.2650  0.2092  1.0918
17541TIP3    H274039   3.429   0.654  15.037 -0.3554 -0.4593 -0.1209
17542TIP3   OH274040   5.360   5.632  13.134 -0.1931  0.1333 -0.5405
17542TIP3    H174041   5.284   5.666  13.087 -0.3464  0.3426 -0.1380
17542TIP3    H274042   5.431   5.635  13.068 -0.8177 -1.2993 -1.3116
17543TIP3   OH274043   1.137   3.863  13.009  0.4752  0.4705  0.1491
17543TIP3    H174044   1.049   3.859  13.045  0.0182  1.3533 -0.8203
17543TIP3    H274045   1.185   3.794  13.055 -0.7464 -0.1121  0.5927
17544TIP3   OH274046   4.724   1.879   3.030  0.1437  0.3612 -0.2613
17544TIP3    H174047   4.733   1.876   3.125  0.0594 -0.2276 -0.2672
17544TIP3    H274048   4.654   1.817   3.011 -2.2975  3.0091 -0.4185
17545TIP3   OH274049   5.567   1.714  13.617 -0.6110  0.2050 -0.2099
17545TIP3    H174050   5.538   1.737  13.705  1.3916  2.3339 -0.0256
17545TIP3    H274051   5.616   1.633  13.628  0.4468  0.9674  0.8323
17546TIP3   OH274052   6.313   6.413   0.182 -0.5585 -0.0328 -0.0257
17546TIP3    H174053   6.245   6.467   0.143 -0.7132 -0.0543  0.2096
17546TIP3    H274054   6.269   6.364   0.252  0.0639  1.3855  1.4311
17547TIP3   OH274055   1.272   4.896   3.323  0.8271  0.5781  0.4939
17547TIP3    H174056   1.226   4.885   3.406  2.0203  0.3947  1.1672
17547TIP3    H274057   1.282   4.807   3.289 -0.3828  0.7153 -0.2856
17548TIP3   OH274058   0.229   3.722  15.547  0.2260  0.2484 -0.3083
17548TIP3    H174059   0.270   3.694  15.465 -0.3548  1.7888 -1.1480
17548TIP3    H274060   0.159   3.658  15.561  2.5524 -2.2245  0.9672
17549TIP3   OH274061   3.392   0.446   2.144 -0.2055  0.1415  0.2116
17549TIP3    H174062   3.429   0.466   2.058 -3.1925 -0.3952 -1.3396
17549TIP3    H274063   3.318   0.506   2.152 -1.4661 -1.4800  1.2849
17550TIP3   OH274064   1.347   3.234   6.288  0.0558  0.3711 -0.2106
17550TIP3    H174065   1.440   3.221   6.306  0.9180  2.4889 -2.4987
17550TIP3    H274066   1.305   3.233   6.374  2.1069 -1.0518  0.8375
17551TIP3   OH274067   6.000   4.105   3.454 -0.6424  0.1546 -0.1302
17551TIP3    H174068   6.051   4.024   3.450  0.4632  0.8380 -0.2143
17551TIP3    H274069   5.936   4.096   3.384 -0.1045 -0.3665 -0.5708
17552TIP3   OH274070   0.966   1.122   3.569  0.5689 -0.0301  0.0463
17552TIP3    H174071   0.928   1.034   3.571  1.5436 -0.5332 -1.5068
17552TIP3    H274072   1.013   1.130   3.652 -1.4674 -0.0049  1.2880
17553TIP3   OH274073   0.090   4.069   3.247 -0.0011 -0.4826 -0.0239
17553TIP3    H174074   0.063   4.159   3.230  0.2180 -0.4230 -0.0626
17553TIP3    H274075   0.090   4.062   3.343  0.4426 -0.2951 -0.0059
17554TIP3   OH274076   4.485   2.802  14.719  0.3032  0.9824  0.0269
17554TIP3    H174077   4.462   2.892  14.699  1.4359  1.0766 -0.9628
17554TIP3    H274078   4.565   2.809  14.772 -0.2367  0.5884  0.9069
17555TIP3   OH274079   6.570   0.028  10.909 -0.4578  0.0836 -0.3814
17555TIP3    H174080   6.487  -0.012  10.886 -2.5941  2.7158  1.9536
17555TIP3    H274081   6.580   0.010  11.003  2.4647 -1.4169 -0.8660
17556TIP3   OH274082   1.287   4.401  14.139 -0.2856  0.0398 -0.3459
17556TIP3    H174083   1.381   4.381  14.133  0.3522  2.1751  1.2653
17556TIP3    H274084   1.282   4.496  14.132 -1.8530  0.4087  3.3380
17557TIP3   OH274085   5.249   3.688   0.937 -0.3141 -0.3870 -0.2981
17557TIP3    H174086   5.170   3.741   0.947  0.0872  0.3887 -1.0618
17557TIP3    H274087   5.302   3.708   1.015  0.3850  1.3498 -1.1597
17558TIP3   OH274088   2.099   3.607   4.039  0.2078  0.1711  0.3193
17558TIP3    H174089   2.022   3.561   4.072  1.0644 -0.6790  1.1890
17558TIP3    H274090   2.063   3.685   3.996 -1.2114 -0.7641 -0.2895
17559TIP3   OH274091   5.352   4.915  16.958  0.7952  0.2825  1.1460
17559TIP3    H174092   5.309   4.831  16.939  0.5162  0.4612  0.9704
17559TIP3    H274093   5.356   4.959  16.873  2.7448 -0.3606  0.8478
17560TIP3   OH274094   2.688   0.731   4.531  0.3509  0.0413  0.1494
17560TIP3    H174095   2.657   0.785   4.603 -1.5284 -0.9052  0.1075
17560TIP3    H274096   2.774   0.700   4.559  0.7943  1.7754  0.8209
17561TIP3   OH274097   1.900   3.228  16.179  0.1220 -0.0336 -0.1290
17561TIP3    H174098   1.825   3.232  16.120 -0.1663 -0.0696  0.2348
17561TIP3    H274099   1.877   3.160  16.243  0.2622  0.2808  0.2600
17562TIP3   OH274100   5.119   0.838  10.450 -0.4649 -0.0347 -0.2112
17562TIP3    H174101   5.195   0.807  10.498 -0.9479  0.2603  0.7613
17562TIP3    H274102   5.142   0.826  10.358  1.4972  1.7240 -0.0156
17563TIP3   OH274103   5.566   2.482   4.759 -0.2944 -0.3724 -0.2473
17563TIP3    H174104   5.475   2.490   4.730 -0.2495 -0.2849 -0.3602
17563TIP3    H274105   5.607   2.565   4.735 -1.0885  1.1290  2.9911
17564TIP3   OH274106   6.672   5.271  13.268 -0.0452  0.7744  0.0152
17564TIP3    H174107   6.670   5.231  13.181  0.5703 -1.4360  0.9494
17564TIP3    H274108   6.761   5.306  13.277  0.6852 -1.1122  0.5903
17565TIP3   OH274109   1.152   0.953  13.852  0.1861 -0.3115  0.0666
17565TIP3    H174110   1.130   0.987  13.939 -0.2687  0.5883 -0.3800
17565TIP3    H274111   1.237   0.991  13.832  0.3958 -0.7007  0.2032
17566TIP3   OH274112   3.154   0.686  10.594  0.2001 -0.4089  0.1483
17566TIP3    H174113   3.079   0.627  10.603  0.6524 -0.8497  1.1042
17566TIP3    H274114   3.229   0.628  10.588  0.6499  0.0565  1.0827
17567TIP3   OH274115   3.499   3.630   4.845 -0.1172  0.5061  0.1545
17567TIP3    H174116   3.431   3.690   4.874 -2.0484  0.3909 -3.5386
17567TIP3    H274117   3.472   3.545   4.880 -0.7631  0.7958  0.3737
17568TIP3   OH274118   4.269   0.198   5.016 -0.1016 -0.2435 -0.3054
17568TIP3    H174119   4.363   0.198   5.035 -0.3586  1.1135  1.2082
17568TIP3    H274120   4.264   0.179   4.923  1.7221  0.2328 -0.5534
17569TIP3   OH274121   3.142   6.666  16.056 -0.7129 -0.1236 -0.4369
17569TIP3    H174122   3.052   6.635  16.056 -2.0111  3.2640 -0.2631
17569TIP3    H274123   3.168   6.664  15.963 -0.7725 -1.4176 -0.4514
17570TIP3   OH274124   4.832   3.977   0.317 -0.0473 -0.3877 -0.5907
17570TIP3    H174125   4.783   3.967   0.235  1.1512 -0.6428 -1.3092
17570TIP3    H274126   4.832   3.889   0.355  1.0726 -0.7413 -1.3415
17571TIP3   OH274127   0.132   1.603  15.925 -0.3352  0.1814  0.1438
17571TIP3    H174128   0.102   1.689  15.954  0.1333  0.5229 -0.3774
17571TIP3    H274129   0.207   1.583  15.981 -0.7357 -0.1050  0.5857
17572TIP3   OH274130   5.405   4.247   4.172 -0.8969  0.1913  0.3076
17572TIP3    H174131   5.463   4.216   4.241 -0.2206  1.4740  0.3489
17572TIP3    H274132   5.398   4.174   4.111  0.0526 -0.2858  0.7559
17573TIP3   OH274133   2.983   3.628   4.939  0.7082  0.1488  0.2067
17573TIP3    H174134   2.991   3.654   5.031  0.1272  0.4812  0.1696
17573TIP3    H274135   3.003   3.708   4.891 -1.4958  0.6948  0.0944
17574TIP3   OH274136   4.406   3.302  11.938 -0.4630 -0.5862  0.7045
17574TIP3    H174137   4.349   3.379  11.925 -0.6844 -0.8240  0.2422
17574TIP3    H274138   4.464   3.327  12.009 -0.5795 -0.0091  0.6035
17575TIP3   OH274139   4.645   2.393  12.609  0.7048  0.4042 -0.0993
17575TIP3    H174140   4.566   2.343  12.628  0.9382 -1.1996 -2.7363
17575TIP3    H274141   4.613   2.481  12.590 -0.1859  0.3180  0.9087
17576TIP3   OH274142   1.191   3.872  12.044  0.6006 -0.3836  0.4673
17576TIP3    H174143   1.260   3.830  11.993  1.6131 -0.9641  2.2586
17576TIP3    H274144   1.235   3.906  12.122 -0.5733  2.1429  0.1261
17577TIP3   OH274145   6.133   0.760   0.280 -0.3104  0.1434 -0.3487
17577TIP3    H174146   6.100   0.670   0.279  0.9834 -0.3628  0.1984
17577TIP3    H274147   6.228   0.751   0.275 -0.1286  1.4588  0.3035
17578TIP3   OH274148   2.298   4.605   1.660 -0.1082 -0.0209  0.1847
17578TIP3    H174149   2.377   4.577   1.707 -1.7322 -1.2831  2.3363
17578TIP3    H274150   2.331   4.639   1.577  2.6102 -1.5128  0.5198
17579TIP3   OH274151   5.275   5.788   3.950  0.1328  0.1664  0.4539
17579TIP3    H174152   5.270   5.808   4.043 -0.3502 -0.7194  0.6319
17579TIP3    H274153   5.367   5.766   3.936  0.5906  1.9835  0.3334
17580TIP3   OH274154   1.345   5.023  12.569  0.4142  0.1140 -0.0226
17580TIP3    H174155   1.261   5.026  12.615  1.9656 -1.7285  3.2537
17580TIP3    H274156   1.398   5.091  12.611  1.0874  0.2019 -0.9762
17581TIP3   OH274157   0.045   3.122   4.838  0.4674  0.1549 -0.3021
17581TIP3    H174158   0.095   3.071   4.775 -0.6342 -0.2599 -0.8750
17581TIP3    H274159  -0.008   3.057   4.885  1.0019  0.4978  0.8079
17582TIP3   OH274160   4.766   3.665   5.171  0.1960  0.0547  0.2635
17582TIP3    H174161   4.716   3.741   5.203  1.5040  1.2899 -0.5209
17582TIP3    H274162   4.699   3.606   5.136 -1.1439 -0.5847  3.5265
17583TIP3   OH274163   2.768   1.156   2.286 -0.0146 -0.3774 -0.2342
17583TIP3    H174164   2.724   1.176   2.368  0.3953  0.0436 -0.1083
17583TIP3    H274165   2.721   1.080   2.251 -0.7774  0.0125 -0.0707
17584TIP3   OH274166   1.738   4.118  15.310  0.4108  0.2961  0.2246
17584TIP3    H174167   1.694   4.148  15.230  0.3323  0.4596  0.3279
17584TIP3    H274168   1.815   4.174  15.317  0.9896 -0.4142 -0.3036
17585TIP3   OH274169   0.804   5.309  12.353  0.2637 -0.6336 -0.2692
17585TIP3    H174170   0.743   5.379  12.377  0.0758 -1.0395  0.4730
17585TIP3    H274171   0.866   5.351  12.294 -1.2684 -0.4308 -1.8003
17586TIP3   OH274172   5.778   6.757   3.887  0.1124 -1.1089 -0.0272
17586TIP3    H174173   5.856   6.775   3.834  0.3137 -0.3757  0.4987
17586TIP3    H274174   5.754   6.667   3.865  1.5434 -1.6070  0.3563
17587TIP3   OH274175   5.096   1.134  17.047  0.3136 -0.4588 -0.3056
17587TIP3    H174176   5.072   1.055  16.997 -1.4836 -0.1125 -0.0452
17587TIP3    H274177   5.013   1.168  17.080  0.8258  2.4506 -1.7007
17588TIP3   OH274178   5.047   4.613  17.150  0.2593 -0.3666  0.3343
17588TIP3    H174179   4.960   4.573  17.145 -0.6881  1.6926 -0.4587
17588TIP3    H274180   5.039   4.683  17.214  1.9739 -1.5191  1.9157
17589TIP3   OH274181   6.101   2.423  13.857 -0.3992  0.3441 -0.4169
17589TIP3    H174182   6.034   2.419  13.926 -0.0297  0.8600 -0.0160
17589TIP3    H274183   6.170   2.364  13.887 -0.3850  0.3126 -0.5115
17590TIP3   OH274184   5.108   2.413   3.127  0.2509  0.6842 -0.1362
17590TIP3    H174185   5.116   2.490   3.071 -0.3419  1.1920  0.4594
17590TIP3    H274186   5.078   2.447   3.211  3.9950  0.3681  1.5265
17591TIP3   OH274187   4.697   1.234   6.385  0.0297  0.3810 -0.1409
17591TIP3    H174188   4.734   1.315   6.351 -0.5622  0.4146 -0.7095
17591TIP3    H274189   4.761   1.204   6.450  0.2560  1.2915  0.0708
17592TIP3   OH274190   5.587   5.217   1.411  0.0912 -0.3869 -0.2302
17592TIP3    H174191   5.539   5.191   1.332  1.5475 -0.2206 -1.2136
17592TIP3    H274192   5.647   5.144   1.428 -0.3276 -0.5011  0.8465
17593TIP3   OH274193   6.329   1.393   5.193  0.2893 -0.0303 -0.2454
17593TIP3    H174194   6.290   1.475   5.224  0.2863  0.1883 -0.8125
17593TIP3    H274195   6.379   1.418   5.115 -1.3755 -0.8596 -1.6585
17594TIP3   OH274196   2.860   4.415  13.624 -0.4904 -0.1706  0.8926
17594TIP3    H174197   2.806   4.466  13.685 -0.1626  1.9051 -0.4503
17594TIP3    H274198   2.873   4.473  13.549  1.2784 -1.6657 -0.0417
17595TIP3   OH274199   3.058   4.348   1.973  0.1066 -0.0197  0.0001
17595TIP3    H174200   3.035   4.290   2.046  3.8015 -0.5264  0.9406
17595TIP3    H274201   3.096   4.425   2.016  0.6189  0.4973 -1.3473
17596TIP3   OH274202   4.884   6.471   3.228  0.6124  0.4140 -0.3323
17596TIP3    H174203   4.802   6.469   3.179  1.9438 -0.2464 -2.6622
17596TIP3    H274204   4.879   6.552   3.279 -1.7581  0.0200  0.1673
17597TIP3   OH274205   1.742   0.650   2.903  0.1247  0.2728 -0.3593
17597TIP3    H174206   1.803   0.679   2.836  0.0682 -1.1451 -1.0798
17597TIP3    H274207   1.668   0.710   2.896  0.1383  0.1804 -1.5707
17598TIP3   OH274208   3.321   5.447  13.242 -0.4033 -0.5976 -0.5429
17598TIP3    H174209   3.333   5.518  13.180  0.3164  0.2601  0.5384
17598TIP3    H274210   3.226   5.434  13.246 -0.5190  0.0634 -1.0036
17599TIP3   OH274211   2.394   2.474   3.670 -0.0562 -0.1570  0.1383
17599TIP3    H174212   2.426   2.386   3.650 -0.5552 -0.1803 -0.5796
17599TIP3    H274213   2.464   2.514   3.722  0.9821 -0.3420 -1.0843
17600TIP3   OH274214   1.690   5.169  10.963  0.4350  0.1352  0.3774
17600TIP3    H174215   1.709   5.087  10.916  0.0080  0.4961 -0.4474
17600TIP3    H274216   1.740   5.235  10.916  0.0056  0.5068  0.4398
17601TIP3   OH274217   1.275   2.653  11.415  0.3054  0.7349 -0.1893
17601TIP3    H174218   1.222   2.730  11.435 -0.7163  0.4111 -1.5490
17601TIP3    H274219   1.324   2.677  11.336 -1.1961 -0.5210 -1.5518
17602TIP3   OH274220   4.331   0.396   1.379 -0.2050  0.1242 -0.3000
17602TIP3    H174221   4.354   0.309   1.410  1.5229  0.7367  0.2554
17602TIP3    H274222   4.407   0.424   1.327  0.0570  1.9429  0.9389
17603TIP3   OH274223   1.902   3.605  12.972  0.5542  0.2069  0.0181
17603TIP3    H174224   1.911   3.678  13.033  0.7409  0.9186 -0.8505
17603TIP3    H274225   1.885   3.646  12.887  0.0144 -0.7752 -0.3695
17604TIP3   OH274226   0.636   3.365   3.807  0.7960 -0.4867  0.1054
17604TIP3    H174227   0.646   3.431   3.876  0.9607  0.0354 -0.4045
17604TIP3    H274228   0.570   3.403   3.748  0.8164 -0.8301 -0.1376
17605TIP3   OH274229   5.159   0.977  11.008  0.1941  0.3533  0.0927
17605TIP3    H174230   5.205   0.944  10.931  0.4684  0.7630  0.0749
17605TIP3    H274231   5.206   0.938  11.082 -0.3091 -0.3492  0.0529
17606TIP3   OH274232   6.424   2.156  14.610  0.2471 -1.1149 -0.1881
17606TIP3    H174233   6.436   2.177  14.517 -0.7599 -0.9500 -0.2961
17606TIP3    H274234   6.331   2.175  14.626  0.4681 -0.9457  0.9031
17607TIP3   OH274235   0.887   2.274   6.473  0.2930 -0.1621 -0.0396
17607TIP3    H174236   0.973   2.313   6.460  0.1454  0.2538  0.2142
17607TIP3    H274237   0.905   2.181   6.491  0.6629 -0.1433 -0.3189
17608TIP3   OH274238   5.937   0.001   1.850 -0.1507 -0.2501 -0.0008
17608TIP3    H174239   5.982   0.086   1.843  0.1915 -0.4941 -0.8598
17608TIP3    H274240   5.981  -0.043   1.924  1.3216 -0.6403 -1.0613
17609TIP3   OH274241   0.631   0.690  14.075 -0.5152  0.2122  0.1809
17609TIP3    H174242   0.552   0.702  14.127 -0.1627  0.8780  0.5798
17609TIP3    H274243   0.663   0.603  14.102 -2.9387 -1.7114 -2.5473
17610TIP3   OH274244   0.120   5.784  16.676 -0.0718  0.3603 -0.0848
17610TIP3    H174245   0.084   5.752  16.759  1.2422 -1.5729 -0.1915
17610TIP3    H274246   0.064   5.744  16.609 -1.2548  2.0784 -0.1762
17611TIP3   OH274247   2.213   0.740   0.371 -0.7065 -0.4524 -0.2942
17611TIP3    H174248   2.247   0.670   0.316 -0.8129  0.1060 -1.0888
17611TIP3    H274249   2.208   0.816   0.313 -1.6120 -0.0647  0.2683
17612TIP3   OH274250   0.692   1.395  10.553 -0.0525 -0.1200 -0.0613
17612TIP3    H174251   0.788   1.390  10.559 -0.0950  0.0427  0.9167
17612TIP3    H274252   0.661   1.357  10.636 -0.8200  0.3459 -0.1305
17613TIP3   OH274253   6.433   0.354   3.020  0.1490 -0.0422  0.0536
17613TIP3    H174254   6.517   0.315   2.999  1.0329  2.3904 -1.3121
17613TIP3    H274255   6.383   0.350   2.938 -0.9805 -1.1824  0.7626
17614TIP3   OH274256   5.833   1.340   0.129  0.0892 -0.3518 -0.7166
17614TIP3    H174257   5.845   1.245   0.124  3.7868 -0.3752  3.2123
17614TIP3    H274258   5.919   1.374   0.153 -1.3263  3.9513 -0.8545
17615TIP3   OH274259   2.064   4.167   1.272 -0.4448  0.2005 -0.3949
17615TIP3    H174260   2.001   4.100   1.244  0.8809 -0.9796 -0.6833
17615TIP3    H274261   2.117   4.123   1.339  1.6639  0.2712 -1.9135
17616TIP3   OH274262   5.168   4.050  14.999  0.0376 -0.2656 -0.3958
17616TIP3    H174263   5.206   3.968  14.965 -0.3168  0.1355 -1.8267
17616TIP3    H274264   5.238   4.089  15.051 -0.2608 -2.1859  1.6388
17617TIP3   OH274265   4.559   2.611   3.986 -0.5102 -0.4295 -0.0256
17617TIP3    H174266   4.525   2.574   3.905 -3.3513  1.1197  0.3343
17617TIP3    H274267   4.529   2.702   3.986  0.2053 -0.1214  2.3416
17618TIP3   OH274268   0.074   3.544  16.522 -0.0409  0.3103  0.2984
17618TIP3    H174269   0.073   3.570  16.614 -0.0619  2.8853 -0.3476
17618TIP3    H274270   0.166   3.540  16.499  0.0808 -2.7325  0.9595
17619TIP3   OH274271   2.678   2.365  14.650 -0.2102  0.3526  0.4304
17619TIP3    H174272   2.742   2.435  14.636  0.3105  0.2354  2.0794
17619TIP3    H274273   2.658   2.369  14.743 -0.4030 -1.5052  0.4935
17620TIP3   OH274274   1.036   4.915   0.855  0.6602  0.3107  0.4336
17620TIP3    H174275   1.053   4.853   0.926  0.0741 -1.3688 -0.8260
17620TIP3    H274276   0.944   4.939   0.865  0.7697  0.6484  0.6563
17621TIP3   OH274277   1.523   2.400   1.064 -0.1157  0.3954  0.5990
17621TIP3    H174278   1.551   2.341   1.134 -1.3987 -3.4597 -1.7946
17621TIP3    H274279   1.599   2.404   1.005 -0.7636 -0.8474 -0.3639
17622TIP3   OH274280   5.602   4.300   1.175 -0.5145 -0.1211 -0.5431
17622TIP3    H174281   5.651   4.370   1.132 -1.6830 -0.5087 -2.6489
17622TIP3    H274282   5.622   4.222   1.124 -0.3885 -1.0685  0.8842
17623TIP3   OH274283   2.108   5.196  11.631  0.6418 -0.0459 -0.2077
17623TIP3    H174284   2.109   5.245  11.549 -0.9523 -0.9071 -0.7770
17623TIP3    H274285   2.037   5.235  11.681  0.2047 -0.9190 -0.1322
17624TIP3   OH274286   6.747   3.738  12.695 -0.1667  0.4683  0.6688
17624TIP3    H174287   6.737   3.723  12.601 -1.0586 -0.1236  0.8384
17624TIP3    H274288   6.814   3.805  12.702 -1.5809  2.0828 -0.4768
17625TIP3   OH274289   6.426   0.594  13.850 -0.5866  0.4420 -0.5078
17625TIP3    H174290   6.361   0.547  13.902 -0.2666  0.1883 -0.3326
17625TIP3    H274291   6.439   0.540  13.772  1.4836 -1.0177  0.7359
17626TIP3   OH274292   3.013   0.606  11.588 -0.5842 -0.4279 -0.2369
17626TIP3    H174293   3.079   0.561  11.535 -0.9587 -1.7947  0.4232
17626TIP3    H274294   2.964   0.536  11.630 -1.3888  0.6044  0.5977
17627TIP3   OH274295   0.145   2.641  12.667  0.3993 -0.1294  0.0786
17627TIP3    H174296   0.092   2.719  12.651 -0.6307 -0.5959  1.1166
17627TIP3    H274297   0.100   2.595  12.738  0.9411 -1.7140 -0.5550
17628TIP3   OH274298   4.718   0.165  15.276 -0.4295  0.0742  0.3298
17628TIP3    H174299   4.626   0.147  15.295 -0.8971 -0.1694 -1.9354
17628TIP3    H274300   4.764   0.084  15.299 -0.6130  0.4374  2.1631
17629TIP3   OH274301   1.119   3.648  12.416 -0.0285  0.1577 -0.3577
17629TIP3    H174302   1.138   3.738  12.392 -0.9738  0.3020 -0.6200
17629TIP3    H274303   1.172   3.631  12.494  1.0851  0.5329 -1.0307
17630TIP3   OH274304   1.852   6.469  13.374  0.0028  0.0352 -0.2889
17630TIP3    H174305   1.776   6.517  13.407 -0.6291 -0.9782 -0.2190
17630TIP3    H274306   1.905   6.535  13.328  0.2933  1.2458  1.6659
17631TIP3   OH274307   1.828   6.573   1.677 -0.3603  0.7461 -0.5394
17631TIP3    H174308   1.793   6.595   1.592 -0.1600  0.8691 -0.5906
17631TIP3    H274309   1.751   6.558   1.732 -0.5073 -0.6337 -1.0727
17632TIP3   OH274310   2.401   0.106  16.450 -0.2487  0.2765  0.4499
17632TIP3    H174311   2.425   0.150  16.532  0.2360 -0.5546  0.7656
17632TIP3    H274312   2.385   0.015  16.476  2.1156 -0.5500 -0.7187
17633TIP3   OH274313   1.284   3.045   0.837  0.1047  0.6983 -0.3588
17633TIP3    H174314   1.282   3.135   0.804  0.7864  1.3200  1.1714
17633TIP3    H274315   1.377   3.021   0.836 -0.1026 -0.1169 -1.0534
17634TIP3   OH274316   6.151   4.386   3.968 -0.0122 -0.1599  0.5179
17634TIP3    H174317   6.079   4.434   4.008 -0.3011 -0.0871 -0.0882
17634TIP3    H274318   6.193   4.341   4.041 -0.0049  0.6626  1.0294
17635TIP3   OH274319   2.488   0.095   4.369 -0.6965  0.3222  0.2497
17635TIP3    H174320   2.563   0.154   4.365 -0.9528  0.7573  1.6267
17635TIP3    H274321   2.474   0.069   4.278  0.5323  0.9737 -0.1475
17636TIP3   OH274322   5.565   6.075   0.915 -0.0210 -0.2825  0.6919
17636TIP3    H174323   5.525   6.124   0.987 -0.6628  1.2254 -0.6514
17636TIP3    H274324   5.493   6.053   0.857  0.7371  0.2154 -0.4694
17637TIP3   OH274325   0.173   1.594   4.418 -0.3323  0.0558 -0.4648
17637TIP3    H174326   0.180   1.654   4.344 -0.5827  0.5273 -0.1095
17637TIP3    H274327   0.177   1.650   4.495 -1.2664 -0.3088 -0.1382
17638TIP3   OH274328   1.415   0.260  16.774  0.4331  0.1730 -0.1116
17638TIP3    H174329   1.397   0.169  16.749  2.2758 -0.0184 -0.9210
17638TIP3    H274330   1.506   0.259  16.804  0.1831  1.5879  0.7858
17639TIP3   OH274331   6.732   4.234  11.080  0.4407 -0.0688 -0.0520
17639TIP3    H174332   6.653   4.191  11.045 -0.4843 -0.2272  2.0875
17639TIP3    H274333   6.797   4.223  11.011 -1.2306 -0.4401 -1.6679
17640TIP3   OH274334   2.770   6.347   3.570 -0.1105  0.3536  0.1672
17640TIP3    H174335   2.702   6.395   3.617  0.2675  1.1928 -0.1265
17640TIP3    H274336   2.722   6.296   3.505 -0.7306 -1.4708  1.9289
17641TIP3   OH274337   4.374   3.996   3.377  0.5865  0.5562  0.3065
17641TIP3    H174338   4.320   3.917   3.373 -0.6365  1.3790  0.1513
17641TIP3    H274339   4.447   3.972   3.434  0.3461 -0.7445  0.0987
17642TIP3   OH274340   0.152   0.450  12.988 -0.8824 -0.5691  0.0057
17642TIP3    H174341   0.088   0.510  13.028 -0.2830 -0.1628  0.3648
17642TIP3    H274342   0.224   0.506  12.961 -1.3086 -0.8281 -1.7604
17643TIP3   OH274343   3.404   4.792  11.067  0.1757 -0.0289  0.3240
17643TIP3    H174344   3.395   4.697  11.067 -0.8327  0.0357 -0.8330
17643TIP3    H274345   3.423   4.814  10.975 -2.3297  1.0734 -0.0155
17644TIP3   OH274346   1.618   4.096   5.896 -0.8313 -0.7003  0.2641
17644TIP3    H174347   1.608   4.189   5.877  0.9552 -0.5957 -0.4023
17644TIP3    H274348   1.602   4.089   5.990 -0.5377  0.3630  0.4052
17645TIP3   OH274349   0.826   2.867  12.856 -0.3270  0.2364 -0.2107
17645TIP3    H174350   0.763   2.898  12.921  0.6605  1.7892  0.0831
17645TIP3    H274351   0.833   2.940  12.794 -1.2747 -1.2146 -2.1266
17646TIP3   OH274352   3.381   3.728  15.606  0.0377  0.4298 -0.4702
17646TIP3    H174353   3.475   3.730  15.587 -0.0311  0.5518 -0.8037
17646TIP3    H274354   3.367   3.641  15.644  0.3878  0.6322  0.1358
17647TIP3   OH274355   5.437   1.600  14.630 -0.1215  0.4544 -0.0864
17647TIP3    H174356   5.372   1.623  14.563 -0.1620  2.2130  0.5110
17647TIP3    H274357   5.385   1.566  14.703 -0.1866 -0.2063 -0.4375
17648TIP3   OH274358   0.412   2.297   5.282  0.0005 -0.1458 -0.2984
17648TIP3    H174359   0.352   2.259   5.346 -1.5959 -0.9929 -2.1917
17648TIP3    H274360   0.486   2.236   5.281  0.1335 -0.0241  0.8458
17649TIP3   OH274361   1.869   5.462  14.815 -0.0544  0.1424  0.3001
17649TIP3    H174362   1.952   5.470  14.769 -0.2666  0.6347 -0.0009
17649TIP3    H274363   1.809   5.518  14.767 -1.0504 -1.6064 -0.5801
17650TIP3   OH274364   3.803   5.339  16.628 -0.3852  0.7514  0.2096
17650TIP3    H174365   3.735   5.319  16.564  1.0345  0.3336 -1.2446
17650TIP3    H274366   3.777   5.290  16.706 -0.8067 -0.9365 -0.9119
17651TIP3   OH274367   3.201   2.516  16.152 -0.5326  0.6421 -0.3563
17651TIP3    H174368   3.181   2.530  16.059 -0.8089 -0.8690 -0.5394
17651TIP3    H274369   3.296   2.510  16.156 -0.5928 -0.8864 -0.7988
17652TIP3   OH274370   0.156   0.137  11.455 -0.3277 -0.0898  0.2313
17652TIP3    H174371   0.170   0.085  11.534 -0.6900 -0.2151  0.2168
17652TIP3    H274372   0.134   0.072  11.388 -0.1574  0.0282  0.0595
17653TIP3   OH274373   6.142   4.308   2.866  0.1512  0.2173  0.5595
17653TIP3    H174374   6.213   4.250   2.837  0.2491  0.9070 -0.6181
17653TIP3    H274375   6.071   4.248   2.890  0.9039 -0.4529  1.1636
17654TIP3   OH274376   1.916   2.270   3.856  0.0026  0.6496 -0.1654
17654TIP3    H174377   1.955   2.222   3.930  1.8766  1.2357 -0.7148
17654TIP3    H274378   1.986   2.328   3.826 -2.1462  3.7567  0.4421
17655TIP3   OH274379   4.547   1.220  13.162 -0.3525  0.3124 -0.4968
17655TIP3    H174380   4.594   1.299  13.188  1.6139 -0.5942 -1.1513
17655TIP3    H274381   4.578   1.152  13.221 -3.5644  0.3334  1.4668
17656TIP3   OH274382   1.602   3.961   1.483 -0.1231 -0.6209  0.0100
17656TIP3    H174383   1.646   3.923   1.559  0.3616 -0.9046 -0.4023
17656TIP3    H274384   1.509   3.945   1.498 -0.2357  1.1429  1.5307
17657TIP3   OH274385   3.695   6.327   1.702 -0.5117 -0.0636  0.6775
17657TIP3    H174386   3.624   6.377   1.743 -0.7170 -0.2626  0.5657
17657TIP3    H274387   3.674   6.329   1.608 -0.6901 -0.6271  0.7058
17658TIP3   OH274388   3.542   2.069   2.867 -0.5159  0.7492 -0.5976
17658TIP3    H174389   3.473   2.005   2.850 -0.7854  0.8058  0.2513
17658TIP3    H274390   3.515   2.113   2.947  0.7006  0.4795 -0.0057
17659TIP3   OH274391   2.995   6.738  15.087  0.4056 -0.6347  0.2103
17659TIP3    H174392   2.954   6.693  15.013 -1.2269 -0.6686  1.0731
17659TIP3    H274393   2.923   6.751  15.150  1.4361  0.6274  1.2009
17660TIP3   OH274394   1.355   4.700  11.830  0.1042  0.1409 -0.2064
17660TIP3    H174395   1.288   4.648  11.787  0.0510 -0.6456  0.8009
17660TIP3    H274396   1.408   4.736  11.758 -0.9804  0.2306 -0.9763
17661TIP3   OH274397   0.855   0.480  11.899  0.1823  0.2305 -0.0981
17661TIP3    H174398   0.854   0.391  11.864 -0.1678 -0.6586  2.0291
17661TIP3    H274399   0.926   0.480  11.963 -0.4088  1.2196  0.5895
17662TIP3   OH274400   2.734   0.297  16.843 -0.1510 -0.0769  0.0029
17662TIP3    H174401   2.801   0.241  16.883 -0.5910  0.2419  1.2388
17662TIP3    H274402   2.768   0.386  16.852 -1.1185  0.1902  1.5409
17663TIP3   OH274403   0.763   4.746   6.386  0.6252 -0.4449 -0.2591
17663TIP3    H174404   0.806   4.831   6.387 -1.9306  1.0177 -2.2656
17663TIP3    H274405   0.821   4.690   6.334  1.3005  0.7159 -0.7966
17664TIP3   OH274406   5.832   1.504  14.311 -0.0605 -0.1887 -0.7919
17664TIP3    H174407   5.740   1.497  14.338  0.1621  3.8127  1.9613
17664TIP3    H274408   5.881   1.461  14.382  0.2002  1.2710 -0.0291
17665TIP3   OH274409   5.426   6.638   3.255  0.1289 -0.9182 -0.3560
17665TIP3    H174410   5.352   6.582   3.231  0.9881 -2.7096  0.9120
17665TIP3    H274411   5.444   6.689   3.176 -0.4113 -2.7750 -1.7646
17666TIP3   OH274412   2.228   5.677  11.617 -0.0544  0.0534  0.4684
17666TIP3    H174413   2.294   5.608  11.612 -1.5905 -1.4542 -0.1685
17666TIP3    H274414   2.277   5.758  11.608  1.6119 -1.0337 -0.9727
17667TIP3   OH274415   4.915   4.937  12.020 -0.3133  0.3575 -0.3370
17667TIP3    H174416   4.884   4.863  12.072  1.5753  0.3940  0.9192
17667TIP3    H274417   4.910   4.906  11.929 -3.7171  0.3174 -0.2521
17668TIP3   OH274418   4.156   6.337  14.042  0.2411  0.1329 -0.8438
17668TIP3    H174419   4.071   6.375  14.023  0.5493  0.0102 -2.7201
17668TIP3    H274420   4.160   6.258  13.988  0.4503 -1.4357  1.3732
17669TIP3   OH274421   0.424   3.570   4.500  0.3402  0.7836  0.5636
17669TIP3    H174422   0.489   3.615   4.445  0.3896 -1.4447 -1.4135
17669TIP3    H274423   0.345   3.568   4.446 -0.1154 -0.0732  1.2470
17670TIP3   OH274424   5.110   0.419  12.275 -0.4575 -0.1931  0.2999
17670TIP3    H174425   5.160   0.460  12.346  0.6596 -0.3673 -0.3634
17670TIP3    H274426   5.143   0.329  12.272 -0.3862 -0.1479 -0.5294
17671TIP3   OH274427   2.697   0.073  11.576 -0.4888  0.5228  0.5116
17671TIP3    H174428   2.628   0.129  11.541 -0.7932 -0.3395 -0.3469
17671TIP3    H274429   2.778   0.106  11.536 -0.7831 -0.1939 -0.7501
17672TIP3   OH274430   0.082   4.984  16.055 -0.0457  0.5513  0.4657
17672TIP3    H174431   0.066   5.047  16.125  0.6187 -0.6440  1.7270
17672TIP3    H274432  -0.004   4.970  16.016 -0.2278  2.1211  0.2247
17673TIP3   OH274433   0.687   3.042   1.908  0.4656 -0.0578 -0.3776
17673TIP3    H174434   0.656   2.952   1.896  0.0299 -0.1404  1.1060
17673TIP3    H274435   0.670   3.061   2.001 -0.3027  1.8774 -0.8521
17674TIP3   OH274436   1.286   5.802   2.118  0.8569 -0.1705  0.6481
17674TIP3    H174437   1.298   5.839   2.030 -1.4708 -1.2626 -0.2081
17674TIP3    H274438   1.309   5.710   2.109 -0.2067 -0.4786  0.9393
17675TIP3   OH274439   0.642   1.722   3.060 -0.0048  0.1617  0.1216
17675TIP3    H174440   0.693   1.646   3.033  0.3179 -0.2512  1.7585
17675TIP3    H274441   0.552   1.689   3.065  0.2846 -0.4642  1.8980
17676TIP3   OH274442   3.665   2.061   1.914  0.1027  0.4342  0.5200
17676TIP3    H174443   3.664   2.025   1.825  1.3288  0.0537  0.6423
17676TIP3    H274444   3.720   2.001   1.964 -1.0013  0.3496  1.6842
17677TIP3   OH274445   5.720   2.159  11.815 -0.4542 -0.1862  0.5998
17677TIP3    H174446   5.672   2.137  11.735  0.5254  1.8418 -0.6200
17677TIP3    H274447   5.787   2.090  11.822 -0.8578 -0.6569 -0.0254
17678TIP3   OH274448   3.418   5.909  12.793  0.2734  0.0601  0.3054
17678TIP3    H174449   3.358   5.840  12.821  0.2827 -0.2934 -0.5332
17678TIP3    H274450   3.499   5.863  12.772  0.4205  0.3825  0.1629
17679TIP3   OH274451   4.200   4.839  14.161 -0.2275  0.5762  0.2012
17679TIP3    H174452   4.105   4.846  14.170 -0.0358  1.2992  2.3710
17679TIP3    H274453   4.227   4.777  14.230  1.0342  2.1249  1.1974
17680TIP3   OH274454   1.343   4.329   1.630 -0.1293 -0.7599 -0.5460
17680TIP3    H174455   1.363   4.267   1.700 -1.5211 -0.3891  0.2158
17680TIP3    H274456   1.306   4.405   1.676 -1.1357 -0.5376 -1.6961
17681TIP3   OH274457   2.757   0.808  16.283  0.0100  0.2521 -0.3201
17681TIP3    H174458   2.759   0.712  16.282  2.3019  0.2230  0.9849
17681TIP3    H274459   2.753   0.830  16.376 -0.1300  1.4494 -0.5998
17682TIP3   OH274460   5.720   6.173  13.719 -0.4507  0.2897 -0.4089
17682TIP3    H174461   5.707   6.202  13.809  0.4692  1.6521 -0.6922
17682TIP3    H274462   5.689   6.245  13.665  1.4932  0.6429 -1.1354
17683TIP3   OH274463   1.018   6.188   4.339  0.8390  0.4127  0.2650
17683TIP3    H174464   1.064   6.243   4.402  1.7640  0.9924 -0.8673
17683TIP3    H274465   1.042   6.098   4.362  1.8119  0.6630  0.2452
17684TIP3   OH274466   1.868   1.975   4.173 -0.1371  0.1856  0.4557
17684TIP3    H174467   1.793   1.969   4.113 -0.0611  1.8679  0.1450
17684TIP3    H274468   1.875   1.888   4.211 -1.1114 -0.5131 -0.8818
17685TIP3   OH274469   6.455   2.306   0.334  0.4123 -0.5616  0.1106
17685TIP3    H174470   6.526   2.300   0.398  0.1650  1.0222  0.5647
17685TIP3    H274471   6.382   2.259   0.375  0.5583 -0.3982  0.5663
17686TIP3   OH274472   1.232   5.632   4.308 -0.1974  1.1604  0.2443
17686TIP3    H174473   1.170   5.588   4.250 -0.2851  1.1870  0.3168
17686TIP3    H274474   1.177   5.672   4.375 -0.1242  1.4635  0.1239
17687TIP3   OH274475   0.439   3.627   5.615  0.4129  0.1765 -0.1785
17687TIP3    H174476   0.457   3.537   5.588  0.2049 -0.1398  0.7287
17687TIP3    H274477   0.345   3.638   5.603  0.2285 -0.1391  0.9046
17688TIP3   OH274478   5.186   5.670   3.723  0.2232  0.1151 -0.0304
17688TIP3    H174479   5.262   5.661   3.666 -0.2628  1.8214 -1.0162
17688TIP3    H274480   5.217   5.722   3.797  0.0633  0.7024 -0.3699
17689TIP3   OH274481   3.833   6.432  16.187  0.7120  0.0181 -0.3218
17689TIP3    H174482   3.876   6.372  16.248  0.7779 -0.3835 -0.7557
17689TIP3    H274483   3.842   6.518  16.228 -1.2251 -0.5019  1.3613
17690TIP3   OH274484   6.341   4.982  13.461 -0.4979 -0.5523  0.1843
17690TIP3    H174485   6.369   5.064  13.419  1.1070  0.1429  2.4168
17690TIP3    H274486   6.279   5.009  13.528 -1.3365 -1.4012 -0.2202
17691TIP3   OH274487   5.822   2.789   3.123  0.0393 -0.0443  0.2050
17691TIP3    H174488   5.731   2.811   3.105  0.1824  0.5068  0.1114
17691TIP3    H274489   5.824   2.769   3.217  0.0270  1.0975  0.4637
17692TIP3   OH274490   2.528   6.619  14.533 -0.3552 -0.1551 -0.4379
17692TIP3    H174491   2.437   6.642  14.514 -1.5669 -3.9963 -0.1766
17692TIP3    H274492   2.524   6.571  14.616  2.2031  0.9329  0.4091
17693TIP3   OH274493   2.524   3.830   2.214 -0.1556 -0.8458 -0.2740
17693TIP3    H174494   2.564   3.845   2.300 -0.3089  0.5887 -0.4363
17693TIP3    H274495   2.448   3.887   2.213  1.3396  1.2854 -2.3843
17694TIP3   OH274496   0.176   3.453  15.436  0.3805  0.3846 -0.2552
17694TIP3    H174497   0.240   3.405  15.489  0.1140 -1.0442 -1.1827
17694TIP3    H274498   0.224   3.480  15.358  0.2038  0.5656 -0.3043
17695TIP3   OH274499   5.593   4.620   6.388  0.1095  0.5783 -0.1718
17695TIP3    H174500   5.608   4.604   6.481 -1.4371  0.3486  0.0618
17695TIP3    H274501   5.676   4.657   6.357  1.8902 -2.5053  0.4959
17696TIP3   OH274502   4.040   1.108  12.431 -0.0979 -0.2575  0.1367
17696TIP3    H174503   3.994   1.058  12.499  0.3180  0.8184  1.2562
17696TIP3    H274504   4.058   1.044  12.363 -3.0967 -0.7901 -0.3271
17697TIP3   OH274505   3.294   1.370   5.301  0.4394 -0.5768 -0.3303
17697TIP3    H174506   3.222   1.432   5.289  1.8662  1.3914  0.6282
17697TIP3    H274507   3.362   1.399   5.240  1.3815 -0.7774  0.5825
17698TIP3   OH274508   0.017   0.071   4.785  0.0824  0.3177 -0.4639
17698TIP3    H174509  -0.019   0.127   4.854  0.7457 -1.4790  1.4696
17698TIP3    H274510   0.112   0.082   4.791  0.2160 -0.8197 -0.1721
17699TIP3   OH274511   5.931   4.962  10.623 -0.1051 -0.4238  0.7114
17699TIP3    H174512   5.862   4.995  10.681  0.7910  1.0918  0.9800
17699TIP3    H274513   6.000   4.932  10.682 -0.3650 -1.6168  0.4392
17700TIP3   OH274514   2.197   1.018  10.961 -0.8962 -0.2497  0.0999
17700TIP3    H174515   2.257   1.062  10.902 -0.1245  0.0049  1.0423
17700TIP3    H274516   2.214   0.924  10.947 -1.3934 -0.2268 -0.7396
17701TIP3   OH274517   0.561   4.506   0.237  1.0092  0.2095  0.1749
17701TIP3    H174518   0.530   4.553   0.159  1.2372 -0.0588 -0.0815
17701TIP3    H274519   0.614   4.570   0.284  0.5462  0.4956  0.3181
17702TIP3   OH274520   1.305   1.108  13.243 -0.3824  0.0255  0.2632
17702TIP3    H174521   1.237   1.056  13.200 -0.0832 -0.0525 -0.1196
17702TIP3    H274522   1.383   1.092  13.191  0.3688 -1.2892  1.6941
17703TIP3   OH274523   5.664   5.427  16.141  0.0187 -0.0936  0.3470
17703TIP3    H174524   5.750   5.395  16.171 -0.1682 -0.0945  0.8956
17703TIP3    H274525   5.601   5.369  16.184 -0.2256 -1.7503 -2.0159
17704TIP3   OH274526   0.242   5.526   6.477  0.4147  0.1650 -0.3186
17704TIP3    H174527   0.241   5.456   6.412  1.9263 -0.1111 -0.0919
17704TIP3    H274528   0.321   5.576   6.457  1.7811 -0.8220  2.1516
17705TIP3   OH274529   4.306   4.452  11.638  0.9637  0.1332 -0.0390
17705TIP3    H174530   4.365   4.508  11.587  1.6290 -1.0482 -0.6151
17705TIP3    H274531   4.220   4.465  11.597  1.2701  0.1075 -0.7077
17706TIP3   OH274532   3.164   2.925  16.436  0.5160  0.4170 -0.4515
17706TIP3    H174533   3.165   2.986  16.510  0.1432  0.1040 -0.1892
17706TIP3    H274534   3.071   2.906  16.421  0.7021 -2.2514  1.2472
17707TIP3   OH274535   6.358   1.883   2.150  0.0256  0.5003 -0.0184
17707TIP3    H174536   6.266   1.859   2.145  0.0434  0.5073 -0.3996
17707TIP3    H274537   6.362   1.949   2.220 -0.0947 -0.2357  0.7070
17708TIP3   OH274538   4.937   3.596   0.245  0.4068 -0.0595  0.0961
17708TIP3    H174539   4.917   3.655   0.317 -0.0021  1.1091 -0.9523
17708TIP3    H274540   5.029   3.573   0.258  0.7602  1.3335  0.1686
17709TIP3   OH274541   0.488   6.748  16.502  0.5254 -0.2339 -0.5016
17709TIP3    H174542   0.456   6.682  16.564  0.2015 -0.9727 -1.4290
17709TIP3    H274543   0.542   6.806  16.555  0.4543 -0.9841  0.4281
17710TIP3   OH274544   4.454   4.413   0.724  0.1829  0.1695  0.2305
17710TIP3    H174545   4.530   4.417   0.783  0.5580  0.7904 -0.2920
17710TIP3    H274546   4.481   4.462   0.647 -0.9148  0.7665  0.2139
17711TIP3   OH274547   6.667   4.854  15.439  0.4098  0.1029  0.1305
17711TIP3    H174548   6.692   4.808  15.520  0.6693 -0.2802 -0.1670
17711TIP3    H274549   6.749   4.887  15.404  0.3692 -0.2623 -0.3057
17712TIP3   OH274550   2.051   0.179  12.810  0.4707  0.5517  0.3487
17712TIP3    H174551   2.115   0.188  12.740  0.6274 -0.1341  0.4018
17712TIP3    H274552   2.029   0.086  12.811 -1.8978  1.0162 -0.8662
17713TIP3   OH274553   5.705   3.201   2.289 -0.1486  0.3184 -0.1865
17713TIP3    H174554   5.628   3.146   2.271 -0.1826 -0.3658  1.7413
17713TIP3    H274555   5.776   3.159   2.240 -0.7445  0.2272 -0.9932
17714TIP3   OH274556   5.366   4.722  12.009 -0.1474  0.0278  0.2465
17714TIP3    H174557   5.281   4.682  11.989  0.0395 -0.4063  0.3158
17714TIP3    H274558   5.345   4.813  12.030 -0.7500 -0.3783  1.5202
17715TIP3   OH274559   2.684   2.264  16.684 -0.3558  0.0320 -0.0536
17715TIP3    H174560   2.662   2.181  16.724  1.1807  0.0478  0.9100
17715TIP3    H274561   2.741   2.241  16.611 -1.7974  0.1182 -1.2552
17716TIP3   OH274562   4.840   5.277  16.210  0.1862  0.0733 -0.2374
17716TIP3    H174563   4.869   5.336  16.280 -0.2456  0.4098 -0.3380
17716TIP3    H274564   4.802   5.334  16.144  1.6028 -0.1422 -1.2799
17717TIP3   OH274565   5.081   3.082   0.068 -0.3867  0.1465  0.1678
17717TIP3    H174566   5.134   3.006   0.043 -1.9870 -1.3802  1.1748
17717TIP3    H274567   5.144   3.146   0.102  1.1177 -0.2734 -1.6784
17718TIP3   OH274568   0.844   6.232   4.633  0.5022  0.5522  0.4497
17718TIP3    H174569   0.937   6.217   4.615  0.6486  1.8984 -0.0399
17718TIP3    H274570   0.827   6.320   4.600 -0.9608  0.3258  0.5132
17719TIP3   OH274571   5.562   5.976  11.711 -0.1163 -0.2971  0.0044
17719TIP3    H174572   5.579   6.010  11.623  0.2015 -0.1676  0.1124
17719TIP3    H274573   5.492   5.912  11.699  1.2971 -1.7954 -0.6827
17720TIP3   OH274574   5.019   5.887   4.881 -0.2263  0.1320  0.0578
17720TIP3    H174575   4.934   5.843   4.882 -0.7216  1.0753  1.1733
17720TIP3    H274576   5.056   5.870   4.968  1.4567 -1.5743 -0.9010
17721TIP3   OH274577   4.385   6.623   5.663  0.4069  0.4292  0.2793
17721TIP3    H174578   4.356   6.691   5.723 -1.9227  0.7651 -1.1062
17721TIP3    H274579   4.315   6.558   5.665  0.8218 -0.1012 -1.1898
17722TIP3   OH274580   2.292   4.331  12.489 -0.1025 -0.9593 -0.5829
17722TIP3    H174581   2.212   4.335  12.542  0.1074 -0.0290 -0.3248
17722TIP3    H274582   2.261   4.313  12.400 -0.6394 -0.0788 -0.5792
17723TIP3   OH274583   4.556   2.352  14.365 -0.0626 -0.1843 -0.1603
17723TIP3    H174584   4.514   2.360  14.279  1.7334  0.6714 -1.0180
17723TIP3    H274585   4.625   2.287  14.352  1.3978  1.2455  0.0956
17724TIP3   OH274586   2.382   5.503   4.110  0.0962  0.0389  0.0647
17724TIP3    H174587   2.464   5.455   4.103  0.5727  0.9383 -0.9060
17724TIP3    H274588   2.408   5.595   4.114 -0.7837  0.2618  1.9931
17725TIP3   OH274589   5.799   1.210   6.224 -0.1754  0.0938 -0.4237
17725TIP3    H174590   5.708   1.180   6.226 -0.6669  1.5199  1.5612
17725TIP3    H274591   5.793   1.305   6.220  1.2951  0.1598 -2.0914
17726TIP3   OH274592   3.381   6.203   3.808 -0.9017  0.1020  0.2148
17726TIP3    H174593   3.366   6.109   3.799 -0.2548  0.0880 -0.8522
17726TIP3    H274594   3.360   6.222   3.900  0.4051 -1.3700  0.8641
17727TIP3   OH274595   1.901   4.013  15.838 -0.4764 -0.4071 -0.4685
17727TIP3    H174596   1.930   4.051  15.755  1.5299  0.7527  0.7026
17727TIP3    H274597   1.918   4.080  15.903  1.1216 -2.4407  1.3623
17728TIP3   OH274598   3.306   0.567  16.191 -0.8744 -0.6800  0.2749
17728TIP3    H174599   3.303   0.502  16.262 -0.1963 -0.2598  0.7003
17728TIP3    H274600   3.373   0.534  16.131 -0.4596 -0.3332  0.5401
17729TIP3   OH274601   3.126   5.029   1.076 -0.1605  0.0906  0.0403
17729TIP3    H174602   3.090   5.117   1.088  1.5375  1.0687 -1.4697
17729TIP3    H274603   3.218   5.038   1.101  0.0729 -1.2111 -0.3113
17730TIP3   OH274604   2.308   2.226   0.611  0.0804 -0.3111 -0.5129
17730TIP3    H174605   2.340   2.142   0.645 -0.0566 -0.5478 -0.9602
17730TIP3    H274606   2.213   2.219   0.616  0.0769  0.3617  0.7364
17731TIP3   OH274607   4.234   2.733   6.214  0.9058 -0.3698 -0.5535
17731TIP3    H174608   4.268   2.717   6.302  1.7255 -0.0234 -0.7931
17731TIP3    H274609   4.198   2.649   6.186 -2.1191  0.1845  1.2282
17732TIP3   OH274610   3.452   1.119   3.495  0.6729  0.3232  0.0342
17732TIP3    H174611   3.506   1.067   3.437  0.3382  1.0257 -0.9234
17732TIP3    H274612   3.399   1.055   3.543  2.0980 -0.3453  0.7540
17733TIP3   OH274613   0.700   1.519   1.833  0.2737  0.2640  0.0763
17733TIP3    H174614   0.746   1.585   1.885  0.2800  0.6240 -0.3716
17733TIP3    H274615   0.768   1.456   1.808  1.3391  2.4245 -3.2426
17734TIP3   OH274616   0.796   2.452  16.621  0.1387 -0.5682  0.8385
17734TIP3    H174617   0.730   2.385  16.609  1.8257 -1.8465 -3.8506
17734TIP3    H274618   0.870   2.407  16.661  0.1618 -0.6794  0.6710
17735TIP3   OH274619   3.210   5.186  11.103  0.3083  0.4597 -0.0358
17735TIP3    H174620   3.137   5.190  11.041  0.0829 -0.0004  0.1925
17735TIP3    H274621   3.190   5.253  11.169 -0.5939 -0.5422  0.7455
17736TIP3   OH274622   1.231   0.682  14.290  0.4715  0.2779 -0.0031
17736TIP3    H174623   1.200   0.708  14.204  0.0865  0.8337  0.2984
17736TIP3    H274624   1.153   0.647  14.334 -0.0273  2.5557  1.1018
17737TIP3   OH274625   5.068   2.747   2.617 -0.0905  0.2188 -0.6183
17737TIP3    H174626   5.028   2.694   2.548  1.0332 -0.1082 -1.0416
17737TIP3    H274627   5.004   2.816   2.635 -2.0770 -1.8707  0.7368
17738TIP3   OH274628   1.300   5.758  12.431  0.3228 -0.4426  0.0654
17738TIP3    H174629   1.258   5.808  12.361  3.0898  0.6406 -0.9593
17738TIP3    H274630   1.250   5.676  12.434 -1.5550  0.5487 -1.3026
17739TIP3   OH274631   5.157   2.847  12.289 -0.7252 -0.0488 -0.0635
17739TIP3    H174632   5.200   2.933  12.292 -0.7299 -0.0620  0.4769
17739TIP3    H274633   5.073   2.860  12.333 -1.0226 -0.1747 -0.5732
17740TIP3   OH274634   1.044   1.000  16.998 -0.2479  0.4085  0.9355
17740TIP3    H174635   0.995   0.919  17.015 -0.4931  0.3262 -0.0945
17740TIP3    H274636   1.095   1.014  17.077 -1.4426  0.1399  1.7752
17741TIP3   OH274637   6.328   0.740  14.241  0.1143 -0.0834 -0.3441
17741TIP3    H174638   6.370   0.824  14.260 -0.4444  0.3135 -0.8544
17741TIP3    H274639   6.344   0.687  14.320  1.3859  0.1272 -0.4462
17742TIP3   OH274640   4.626   1.569   2.267  0.1480 -0.3596 -0.1452
17742TIP3    H174641   4.587   1.507   2.205 -0.1995 -0.9996  0.7024
17742TIP3    H274642   4.686   1.516   2.319  0.1500  0.1027  0.3267
17743TIP3   OH274643   6.321   1.006  16.343 -0.2964 -0.0596 -0.4490
17743TIP3    H174644   6.235   1.046  16.327 -1.0844 -0.7950  1.5077
17743TIP3    H274645   6.364   1.007  16.258 -1.0055  3.1110 -0.9125
17744TIP3   OH274646   1.334   3.601  15.902 -0.2376  0.0956 -0.1620
17744TIP3    H174647   1.352   3.553  15.983 -0.6260  1.4537  0.7625
17744TIP3    H274648   1.368   3.544  15.832  0.7325 -0.7973  0.9940
17745TIP3   OH274649   0.814   5.607   3.160 -0.2014  0.5516 -0.4531
17745TIP3    H174650   0.862   5.677   3.204  1.4526 -1.0226  0.3478
17745TIP3    H274651   0.876   5.569   3.099 -0.9204 -0.5088 -0.5538
17746TIP3   OH274652   6.156   0.451   3.203  0.1746  0.0911  0.0080
17746TIP3    H174653   6.088   0.385   3.213  0.3262  0.0872  1.2214
17746TIP3    H274654   6.182   0.472   3.293 -0.2717  2.2120 -0.3013
17747TIP3   OH274655   0.337   2.271  15.208 -0.0900 -0.3241  0.0258
17747TIP3    H174656   0.365   2.189  15.167 -1.6638 -1.9151  1.9485
17747TIP3    H274657   0.244   2.278  15.187  0.1113  1.2914 -0.5139
17748TIP3   OH274658   4.483   1.735   5.782 -0.4103  0.3882 -0.3009
17748TIP3    H174659   4.570   1.697   5.772 -1.1721 -1.5099 -0.2151
17748TIP3    H274660   4.424   1.669   5.747 -2.0578  0.1327  2.6079
17749TIP3   OH274661   4.472   6.633  11.630  0.4935 -0.4903 -0.6072
17749TIP3    H174662   4.405   6.648  11.563 -0.0770 -0.4301 -0.0382
17749TIP3    H274663   4.422   6.618  11.711  1.1672 -0.5240 -0.1870
17750TIP3   OH274664   2.721   1.920   4.200  0.1745 -0.1038 -0.4925
17750TIP3    H174665   2.768   1.880   4.126  0.2899 -0.6051 -0.1493
17750TIP3    H274666   2.766   1.888   4.278  0.5574  1.0655 -0.2146
17751TIP3   OH274667   6.635   1.077   5.195 -0.3573 -0.6031 -0.1319
17751TIP3    H174668   6.637   1.034   5.109 -1.8274  2.1260 -1.6823
17751TIP3    H274669   6.723   1.114   5.205 -0.1637 -0.9700 -0.4585
17752TIP3   OH274670   2.116   4.825  17.014  0.9642  0.3051 -0.5365
17752TIP3    H174671   2.167   4.756  16.972  0.8548  0.3814 -0.8003
17752TIP3    H274672   2.085   4.879  16.941 -2.2064 -1.5439 -0.7551
17753TIP3   OH274673   1.918   5.380   3.934 -0.1709  0.0024 -0.1423
17753TIP3    H174674   1.839   5.326   3.930 -1.4073  1.5679  1.4965
17753TIP3    H274675   1.970   5.341   4.004 -0.0270 -0.3270 -0.4271
17754TIP3   OH274676   3.076   2.399  10.831 -0.1832  0.0951 -1.0546
17754TIP3    H174677   3.172   2.395  10.826  0.0113 -1.0166  1.7696
17754TIP3    H274678   3.058   2.483  10.873 -0.4224  0.0672 -1.0995
17755TIP3   OH274679   1.120   3.741  14.244  0.3877 -0.0094 -0.2203
17755TIP3    H174680   1.154   3.791  14.319 -2.0244  1.3379  0.0557
17755TIP3    H274681   1.139   3.796  14.168 -0.3208  0.3193 -0.1665
17756TIP3   OH274682   0.212   3.400  15.935  0.6863  0.2543 -0.2007
17756TIP3    H174683   0.132   3.395  15.883  0.7792 -0.9677 -0.2561
17756TIP3    H274684   0.230   3.493  15.944 -1.5974  0.6221  1.1437
17757TIP3   OH274685   6.610   6.069   5.545  0.2711 -0.4651 -0.1845
17757TIP3    H174686   6.593   5.975   5.548  0.5295 -0.5702 -1.3666
17757TIP3    H274687   6.699   6.076   5.509  0.8406  0.2065  1.2733
17758TIP3   OH274688   3.220   3.156   0.093 -0.0049 -0.0599  0.2150
17758TIP3    H174689   3.257   3.071   0.070 -2.0933 -0.4003 -2.3406
17758TIP3    H274690   3.288   3.219   0.071  0.4579 -0.8939 -0.8165
17759TIP3   OH274691   5.858   6.689  10.997 -0.5823  0.3479 -0.0337
17759TIP3    H174692   5.950   6.704  10.976  0.1329 -0.7960  2.0037
17759TIP3    H274693   5.848   6.723  11.085 -1.9924 -0.0378 -0.0245
17760TIP3   OH274694   0.618   5.498   3.481 -0.9833  0.1816 -0.8104
17760TIP3    H174695   0.551   5.433   3.462  1.2980 -2.8650  0.5897
17760TIP3    H274696   0.692   5.473   3.427  0.4393  0.7325  0.7865
17761TIP3   OH274697   1.939   4.246   0.414  0.3021 -0.2248 -0.1554
17761TIP3    H174698   1.986   4.218   0.335 -0.0084  0.3441 -0.5488
17761TIP3    H274699   2.003   4.297   0.463 -0.3066  1.9035 -1.4489
17762TIP3   OH274700   1.827   6.562  14.531  0.1083  0.1534 -0.2349
17762TIP3    H174701   1.830   6.581  14.625 -0.3762 -0.0546 -0.1775
17762TIP3    H274702   1.747   6.603  14.500  0.3340  0.3365 -0.5880
17763TIP3   OH274703   1.155   6.024   3.239 -0.1477  0.1399 -0.3642
17763TIP3    H174704   1.233   5.969   3.233 -1.8019 -2.3965  0.1035
17763TIP3    H274705   1.113   6.018   3.153 -1.0207 -0.4294  0.0846
17764TIP3   OH274706   4.621   5.347   4.513 -0.6021 -0.2555 -0.9466
17764TIP3    H174707   4.645   5.425   4.462  0.6214 -1.1277 -1.7392
17764TIP3    H274708   4.526   5.355   4.524 -0.3644  2.0626  0.2159
17765TIP3   OH274709   3.059   2.667   4.616 -0.1089 -0.0278  0.3737
17765TIP3    H174710   3.132   2.716   4.654  0.9688 -1.0276 -0.3414
17765TIP3    H274711   3.041   2.598   4.680 -0.5450  0.3138  0.6243
17766TIP3   OH274712   4.987   2.921   0.519 -0.1661  0.0117 -0.0370
17766TIP3    H174713   4.970   2.866   0.443 -1.0305  1.3190 -0.8405
17766TIP3    H274714   4.906   2.920   0.568  0.1614 -0.2709  0.5032
17767TIP3   OH274715   5.061   2.272   4.863  0.5580 -0.4996  0.3182
17767TIP3    H174716   5.102   2.209   4.923 -0.4429  0.0324  1.6151
17767TIP3    H274717   5.095   2.249   4.777 -0.4729 -3.4221  0.5936
17768TIP3   OH274718   5.255   5.635   2.265  0.2649  0.3111 -0.2904
17768TIP3    H174719   5.278   5.574   2.195  0.3159  0.0869 -0.0812
17768TIP3    H274720   5.333   5.638   2.321  0.2613  0.5652 -0.2966
17769TIP3   OH274721   2.974   4.384   4.052  0.0645  0.0653  0.2998
17769TIP3    H174722   2.980   4.441   4.129  1.1297 -0.5410  0.6847
17769TIP3    H274723   3.052   4.329   4.057 -1.9461 -3.0173  1.2493
17770TIP3   OH274724   4.223   1.204   0.720 -0.0699 -0.0036  0.7431
17770TIP3    H174725   4.266   1.246   0.794  0.9486  2.6681 -1.2172
17770TIP3    H274726   4.282   1.132   0.697  1.2678  1.0847  0.6422
17771TIP3   OH274727   5.714   6.609  11.924  0.4033  0.9369 -0.2932
17771TIP3    H174728   5.697   6.626  12.017  0.5355  2.1606 -0.4799
17771TIP3    H274729   5.738   6.516  11.921 -1.1531  0.4642  0.6766
17772TIP3   OH274730   4.723   2.545   4.703  0.0322 -0.3708  0.1238
17772TIP3    H174731   4.658   2.615   4.704  1.5240  1.1397 -1.6186
17772TIP3    H274732   4.685   2.476   4.756 -2.1739  1.1645  0.6560
17773TIP3   OH274733   6.549   6.736   3.206 -0.3414  0.0810  0.6054
17773TIP3    H174734   6.504   6.820   3.216  1.6152  1.2613  0.0170
17773TIP3    H274735   6.553   6.722   3.111 -1.2815 -1.0703  0.7127
17774TIP3   OH274736   3.504   4.292  12.421  0.0640 -0.2408 -0.5185
17774TIP3    H174737   3.497   4.326  12.510  1.6599  1.1356 -0.8653
17774TIP3    H274738   3.594   4.258  12.417 -0.6274 -2.1070 -1.0228
17775TIP3   OH274739   0.299   0.339   2.853  0.3643 -0.1918  0.3039
17775TIP3    H174740   0.372   0.317   2.795  0.6075 -0.3463  0.6647
17775TIP3    H274741   0.280   0.258   2.900 -0.6228 -0.3953 -0.4110
17776TIP3   OH274742   5.364   3.623  12.541 -0.1308  0.2620  0.0344
17776TIP3    H174743   5.365   3.558  12.611 -2.7175  1.3518  1.2146
17776TIP3    H274744   5.364   3.572  12.460  0.9287 -1.0663  0.8234
17777TIP3   OH274745   0.466   0.510   6.365 -0.3168 -0.0235 -0.1258
17777TIP3    H174746   0.441   0.418   6.360  0.3553 -0.2994  1.0949
17777TIP3    H274747   0.457   0.543   6.276 -0.6871 -1.2370 -0.5503
17778TIP3   OH274748   4.721   6.441  15.090 -0.1264  0.3865  0.1662
17778TIP3    H174749   4.713   6.527  15.048 -0.0519  0.6783  0.7429
17778TIP3    H274750   4.708   6.459  15.183 -0.9873 -0.3629  0.1999
17779TIP3   OH274751   6.126   2.738  15.923  0.0345 -0.5115  0.3652
17779TIP3    H174752   6.098   2.669  15.983 -2.7663  0.0617 -0.1353
17779TIP3    H274753   6.047   2.762  15.875  1.3166  1.7753 -0.7993
17780TIP3   OH274754   4.504   2.140  12.996 -0.3952 -0.4249  0.1498
17780TIP3    H174755   4.432   2.104  13.049 -1.3048 -1.2314 -1.5569
17780TIP3    H274756   4.561   2.065  12.981 -2.0181 -1.1956 -2.9748
17781TIP3   OH274757   3.418   4.795  11.413  0.0180  0.0267 -0.0604
17781TIP3    H174758   3.448   4.828  11.498  0.0537  0.5710 -0.2804
17781TIP3    H274759   3.439   4.702  11.415  1.1584  0.2680  0.0457
17782TIP3   OH274760   4.630   3.450   2.282  0.3532 -0.1806 -0.3206
17782TIP3    H174761   4.714   3.483   2.312  1.3401 -1.8349 -1.0983
17782TIP3    H274762   4.651   3.368   2.236 -1.9145 -2.0280  1.6553
17783TIP3   OH274763   0.748   6.450  15.215 -0.0001 -0.7609 -0.3397
17783TIP3    H174764   0.815   6.517  15.224 -1.5460  0.7631  0.1860
17783TIP3    H274765   0.695   6.457  15.294 -0.6143 -2.1542 -0.5884
17784TIP3   OH274766   1.044   3.367   4.105 -0.2947 -0.2109  0.3697
17784TIP3    H174767   1.037   3.313   4.184 -0.2509 -0.7814 -0.0175
17784TIP3    H274768   1.016   3.454   4.134  0.7838 -0.1439  1.2954
17785TIP3   OH274769   0.554   3.059  13.286  0.1112 -0.0060  0.1894
17785TIP3    H174770   0.460   3.044  13.281 -0.1656  1.3599  0.8296
17785TIP3    H274771   0.569   3.086  13.377  0.9298  0.8834 -0.1916
17786TIP3   OH274772   3.857   2.529  15.834  0.0272  0.0279 -0.0558
17786TIP3    H174773   3.826   2.539  15.924 -0.8149  1.1346 -0.4473
17786TIP3    H274774   3.811   2.452  15.801  2.1427 -1.8764  1.1637
17787TIP3   OH274775   0.004   0.642   4.397 -0.7797 -0.1541  0.6704
17787TIP3    H174776  -0.030   0.565   4.352 -1.3054 -1.2612  2.8182
17787TIP3    H274777  -0.029   0.716   4.346 -0.1079 -1.2942 -1.5662
17788TIP3   OH274778   5.764   4.053  14.125  0.6680 -0.0004 -1.1272
17788TIP3    H174779   5.669   4.038  14.126  0.3823  1.3571  1.6196
17788TIP3    H274780   5.780   4.096  14.041 -1.2034  0.0303 -1.5254
17789TIP3   OH274781   3.423   2.481  12.602 -0.5491 -0.1776  0.3063
17789TIP3    H174782   3.338   2.525  12.607 -0.0185  0.8709  0.1781
17789TIP3    H274783   3.403   2.390  12.626 -1.7890 -0.0672 -0.1843
17790TIP3   OH274784   5.713   4.697  11.996  0.1522 -0.0859  0.4799
17790TIP3    H174785   5.724   4.791  11.989 -0.4732 -0.0360  0.0938
17790TIP3    H274786   5.630   4.685  12.042 -0.4814 -0.4413 -0.7245
17791TIP3   OH274787   3.100   4.012   3.007 -0.0866 -0.1851 -0.0274
17791TIP3    H174788   3.065   4.079   3.066 -2.1812  0.2491 -1.6554
17791TIP3    H274789   3.158   4.060   2.947 -0.9871  0.0626 -0.7132
17792TIP3   OH274790   1.437   6.290  16.003  0.2184  0.3977 -0.4109
17792TIP3    H174791   1.438   6.235  15.925 -0.7655  0.3608 -0.3994
17792TIP3    H274792   1.485   6.369  15.977 -0.3967  0.5262 -1.1559
17793TIP3   OH274793   0.867   5.563  14.746 -0.1781  0.0015  0.5952
17793TIP3    H174794   0.935   5.593  14.685 -0.7513 -0.0534 -0.0872
17793TIP3    H274795   0.886   5.470  14.760 -0.5265 -0.2000 -0.1807
17794TIP3   OH274796   2.461   2.573   1.832 -0.3368  0.0772  0.0215
17794TIP3    H174797   2.384   2.624   1.857 -0.3709 -0.7336  1.7437
17794TIP3    H274798   2.531   2.608   1.888 -0.0222 -0.7822  0.1736
17795TIP3   OH274799   2.142   1.562  12.983  0.1866 -0.2222 -0.0315
17795TIP3    H174800   2.105   1.475  12.996 -0.5408  0.2109  0.9146
17795TIP3    H274801   2.216   1.548  12.924  0.0357 -1.4630  0.0458
17796TIP3   OH274802   3.133   1.101   0.671  0.3840  0.1679  0.5471
17796TIP3    H174803   3.048   1.067   0.697  0.5022  0.5145  1.4497
17796TIP3    H274804   3.183   1.105   0.753  0.7497  1.4161  0.2860
17797TIP3   OH274805   5.097   5.719  11.701  0.0772 -0.1712 -0.3042
17797TIP3    H174806   5.018   5.670  11.680  0.4793  0.0355 -2.5590
17797TIP3    H274807   5.160   5.653  11.729 -1.0019 -0.2782  2.1217
17798TIP3   OH274808   0.202   5.839   0.928  1.1454  0.0799 -0.3088
17798TIP3    H174809   0.170   5.923   0.896 -1.2009 -1.1639 -1.5054
17798TIP3    H274810   0.246   5.859   1.010 -0.3733  2.3437  0.0252
17799TIP3   OH274811   3.716   5.841   1.883  0.3386 -0.0185 -0.4782
17799TIP3    H174812   3.768   5.806   1.811  0.4037 -0.6157 -0.1519
17799TIP3    H274813   3.669   5.914   1.845 -3.4613 -3.1508 -2.5598
17800TIP3   OH274814   1.435   1.490   5.161 -0.4836  0.1250 -0.7069
17800TIP3    H174815   1.453   1.519   5.251  1.9678 -1.0063 -0.7390
17800TIP3    H274816   1.502   1.533   5.108  0.0600 -1.5696 -1.4864
17801TIP3   OH274817   5.295   5.475  11.354 -0.0171 -0.6392  0.3171
17801TIP3    H174818   5.328   5.387  11.370 -0.0694 -0.6857  0.1755
17801TIP3    H274819   5.202   5.462  11.333 -0.6925 -0.3217  2.7983
17802TIP3   OH274820   0.844   3.547   3.937  0.2747  0.5798 -0.0414
17802TIP3    H174821   0.783   3.618   3.923  0.0278  0.3980  0.1073
17802TIP3    H274822   0.929   3.590   3.947  0.3428  0.7643 -1.2993
17803TIP3   OH274823   5.725   1.317   5.922  0.5795 -0.3148  0.2175
17803TIP3    H174824   5.709   1.354   6.009 -0.3766 -3.0688  1.3330
17803TIP3    H274825   5.651   1.347   5.869  1.3242  1.6270  0.2254
17804TIP3   OH274826   1.217   0.090  15.586 -0.1040 -0.3469 -0.8363
17804TIP3    H174827   1.138   0.106  15.638  0.2352  0.4046 -0.5520
17804TIP3    H274828   1.184   0.068  15.499 -0.7220 -2.5909 -0.1094
17805TIP3   OH274829   1.728   0.403  15.756  0.1569 -0.1577 -0.0408
17805TIP3    H174830   1.691   0.393  15.843  0.8624 -0.4125  0.2395
17805TIP3    H274831   1.758   0.315  15.733 -0.3811 -0.1761 -0.7104
17806TIP3   OH274832   2.169   3.854  11.164 -0.5421 -0.1881  0.1392
17806TIP3    H174833   2.107   3.804  11.216 -0.8229 -0.6859 -0.6484
17806TIP3    H274834   2.121   3.877  11.085  0.2637 -0.5951 -0.4913
17807TIP3   OH274835   6.005   4.078  12.534  0.0568  0.2669 -0.0412
17807TIP3    H174836   6.047   4.134  12.470 -0.4137 -0.4270 -0.9809
17807TIP3    H274837   5.989   4.135  12.609 -1.6281  1.7769 -1.4583
17808TIP3   OH274838   1.021   2.827  12.225 -0.7448  0.4316  0.0850
17808TIP3    H174839   0.952   2.886  12.195  1.1932  2.8915  0.1351
17808TIP3    H274840   1.056   2.788  12.145  0.0754  1.8808 -0.2847
17809TIP3   OH274841   6.517   3.950  17.196 -0.2377 -0.3136 -0.1010
17809TIP3    H174842   6.509   3.885  17.266  1.9356 -1.0329 -0.4399
17809TIP3    H274843   6.458   3.918  17.128  0.6048 -1.8836 -0.1668
17810TIP3   OH274844   5.505   2.945   4.757 -0.2472  0.4566 -0.3513
17810TIP3    H174845   5.504   3.015   4.691  0.4627  0.5811 -0.2346
17810TIP3    H274846   5.542   2.986   4.835  0.8801 -0.2244 -0.4986
17811TIP3   OH274847   6.210   3.356  11.267  0.0068 -0.7091  0.1160
17811TIP3    H174848   6.161   3.339  11.186 -2.8450  0.3474  1.4746
17811TIP3    H274849   6.230   3.449  11.264 -0.5098 -0.5712  0.8183
17812TIP3   OH274850   5.207   2.246   0.115  0.0240 -0.1847  0.2584
17812TIP3    H174851   5.181   2.154   0.108 -2.6117  0.3308  1.9463
17812TIP3    H274852   5.167   2.288   0.039  0.0701 -0.1856  0.2330
17813TIP3   OH274853   5.506   3.651   4.454 -0.1022 -0.2813  0.3481
17813TIP3    H174854   5.513   3.562   4.421  0.7127 -0.4137  0.8629
17813TIP3    H274855   5.454   3.644   4.534  0.1746 -0.3296  0.5239
17814TIP3   OH274856   3.952   0.328  16.692 -0.1010  0.0695  0.3065
17814TIP3    H174857   4.027   0.378  16.661  0.1501 -1.4048 -1.7035
17814TIP3    H274858   3.875   0.379  16.665  0.1651  0.0398 -0.5243
17815TIP3   OH274859   2.177   5.284   2.864  0.0641 -0.0203  0.3363
17815TIP3    H174860   2.094   5.280   2.816  1.2522 -1.1535 -1.7860
17815TIP3    H274861   2.206   5.193   2.869  2.1200  0.5200 -0.7696
17816TIP3   OH274862   6.051   3.219  15.108  0.2608 -0.4132  0.2779
17816TIP3    H174863   6.060   3.229  15.203  0.0736 -0.4931  0.3058
17816TIP3    H274864   6.140   3.210  15.076  0.3901  0.5810  0.3408
17817TIP3   OH274865   0.998   5.634  13.524 -0.0019 -0.4830  0.4869
17817TIP3    H174866   1.078   5.632  13.576  0.2565 -2.1711  0.0885
17817TIP3    H274867   1.017   5.696  13.453  1.5339 -1.9293 -0.4243
17818TIP3   OH274868   2.075   2.350  12.540  0.1775  0.4818 -0.2771
17818TIP3    H174869   1.984   2.344  12.568  0.7972 -0.3730  1.6988
17818TIP3    H274870   2.076   2.305  12.455 -1.0230 -0.6035  0.2415
17819TIP3   OH274871   5.632   0.269   3.349  0.3510 -0.1470 -0.3781
17819TIP3    H174872   5.567   0.339   3.348  1.0104  0.4806 -0.1964
17819TIP3    H274873   5.623   0.229   3.436  0.7089  0.4298 -0.0693
17820TIP3   OH274874   4.775   1.032  13.688 -0.4603 -0.1189  0.7311
17820TIP3    H174875   4.791   1.123  13.661 -2.3313  0.9155  2.8226
17820TIP3    H274876   4.802   1.028  13.779 -1.4077 -1.3607  0.9909
17821TIP3   OH274877   3.691   0.585   5.484 -0.2757  0.1587 -1.3809
17821TIP3    H174878   3.643   0.667   5.472  0.6399  0.7061 -1.3883
17821TIP3    H274879   3.631   0.518   5.452 -1.4007  0.7266 -0.5267
17822TIP3   OH274880   2.923   6.032   2.657  0.3831 -0.2269  0.2569
17822TIP3    H174881   2.974   5.951   2.657 -1.1409 -1.2291  0.1721
17822TIP3    H274882   2.986   6.100   2.632  1.5892 -1.4439 -0.1472
17823TIP3   OH274883   2.997   1.274   2.501 -0.1655 -0.1216 -0.0116
17823TIP3    H174884   3.030   1.343   2.557  1.0759  1.5142 -2.5716
17823TIP3    H274885   2.924   1.314   2.453 -1.3565 -1.5451  0.5075
17824TIP3   OH274886   3.763   5.372   5.654  0.7076 -0.3296  0.7149
17824TIP3    H174887   3.716   5.395   5.735  0.6209 -0.6122  0.7464
17824TIP3    H274888   3.745   5.278   5.642 -1.8631  0.2832 -1.2759
17825TIP3   OH274889   1.173   1.905  13.480  0.4359 -0.1132 -0.7472
17825TIP3    H174890   1.129   1.829  13.518  1.4262 -1.0229 -1.3598
17825TIP3    H274891   1.186   1.882  13.388  1.0587  0.6510 -0.8633
17826TIP3   OH274892   0.862   5.730  16.338 -0.3603  0.2334 -0.3496
17826TIP3    H174893   0.792   5.676  16.374  0.6218 -1.7870 -1.3301
17826TIP3    H274894   0.942   5.697  16.380  0.2675  0.8876 -1.0073
17827TIP3   OH274895   2.092   0.316   2.987 -0.7197 -0.1078  0.0580
17827TIP3    H174896   2.121   0.236   3.030 -2.0563  0.4407  2.1974
17827TIP3    H274897   2.143   0.385   3.030  0.8755  0.2309 -2.1905
17828TIP3   OH274898   6.712   1.832  14.201  0.4616  0.0430 -1.0588
17828TIP3    H174899   6.702   1.926  14.186  0.2338  0.3995  0.9563
17828TIP3    H274900   6.805   1.821  14.220  0.1417  0.2844  0.8805
17829TIP3   OH274901   3.242   6.073  11.223 -0.2990  0.3481  0.2882
17829TIP3    H174902   3.279   6.157  11.195 -1.8953  1.3403  1.0195
17829TIP3    H274903   3.266   6.012  11.153  2.8619  0.8137  0.8042
17830TIP3   OH274904   4.857   0.249  11.754  0.0690  0.1142  0.1777
17830TIP3    H174905   4.836   0.160  11.784  0.3450  0.2826  0.8812
17830TIP3    H274906   4.936   0.272  11.801 -0.5076  1.0875  0.7049
17831TIP3   OH274907   5.380   6.020   0.116 -0.3732 -0.1945 -0.1706
17831TIP3    H174908   5.453   5.966   0.143 -1.5355 -1.1442  1.2421
17831TIP3    H274909   5.344   6.055   0.198 -1.2748  0.5489 -0.8552
17832TIP3   OH274910   0.368   0.531   3.041  0.1416  0.0676 -0.0723
17832TIP3    H174911   0.348   0.462   2.979  1.2952 -0.4612  0.1072
17832TIP3    H274912   0.297   0.594   3.032 -1.4317 -1.5604  0.3917
17833TIP3   OH274913   6.779   4.682   5.594 -0.4624  0.4473 -0.1033
17833TIP3    H174914   6.829   4.622   5.649  0.2405  1.2713  0.1725
17833TIP3    H274915   6.703   4.707   5.647 -0.2650  0.5310  0.1391
17834TIP3   OH274916   0.727   5.017  10.744 -0.4293 -1.0935 -0.0565
17834TIP3    H174917   0.698   5.097  10.701 -0.0717 -0.2569  1.2274
17834TIP3    H274918   0.808   4.994  10.698  1.2548  1.1067  1.6037
17835TIP3   OH274919   6.109   4.288   2.045 -0.4338  0.1175  0.6346
17835TIP3    H174920   6.090   4.202   2.083  3.2556 -0.6001  1.2800
17835TIP3    H274921   6.093   4.349   2.117  1.4765 -0.6570  1.8122
17836TIP3   OH274922   2.140   1.668  15.436 -0.7576  0.7566  0.3074
17836TIP3    H174923   2.206   1.601  15.416 -1.2556  0.2950  0.1992
17836TIP3    H274924   2.192   1.745  15.460 -0.1765  0.0095  1.5271
17837TIP3   OH274925   2.600   2.884   6.602  0.1648 -0.1283  0.4761
17837TIP3    H174926   2.574   2.855   6.690 -3.0691 -0.6511 -0.4988
17837TIP3    H274927   2.662   2.818   6.572 -1.2911 -1.8912  1.1662
17838TIP3   OH274928   0.425   6.376  11.101 -0.1115 -0.0711  0.2324
17838TIP3    H174929   0.467   6.369  11.187  2.7559 -1.0942 -1.1359
17838TIP3    H274930   0.495   6.404  11.043 -1.6842 -0.5433 -2.0029
17839TIP3   OH274931   2.735   3.605   5.286 -0.4425 -0.4690  0.2792
17839TIP3    H174932   2.686   3.639   5.362  1.0433 -0.5762  1.3263
17839TIP3    H274933   2.672   3.607   5.214 -0.8670  3.2066  0.5717
17840TIP3   OH274934   1.021   4.588  12.820 -0.4796 -0.3469 -0.0557
17840TIP3    H174935   1.000   4.515  12.763 -3.3517  0.0268  0.3790
17840TIP3    H274936   1.070   4.649  12.765 -0.7043 -1.2516 -1.2830
17841TIP3   OH274937   5.749   2.596  12.868  0.1103  0.1623  0.1256
17841TIP3    H174938   5.728   2.690  12.869 -0.7541  0.0423 -1.7124
17841TIP3    H274939   5.809   2.584  12.941  0.2124  2.1404  0.4314
17842TIP3   OH274940   0.396   5.496   1.490 -0.0940  0.5529 -0.7291
17842TIP3    H174941   0.447   5.476   1.568 -0.9784 -1.9406 -0.6720
17842TIP3    H274942   0.336   5.565   1.517 -0.5868 -0.4599  0.9558
17843TIP3   OH274943   4.002   5.907   3.121 -0.0529  0.0142 -0.7740
17843TIP3    H174944   3.951   5.979   3.083  1.0357  1.1092 -0.2109
17843TIP3    H274945   3.946   5.873   3.191  0.2143  1.6198  0.2543
17844TIP3   OH274946   4.306   3.414  12.980 -0.0753 -0.4357 -0.2686
17844TIP3    H174947   4.218   3.376  12.976  0.7133 -2.2853 -0.6588
17844TIP3    H274948   4.296   3.488  13.040 -1.5673 -1.5894  1.0108
17845TIP3   OH274949   4.229   4.426   3.826  0.5786  0.6772 -0.0262
17845TIP3    H174950   4.189   4.353   3.778  0.3208 -0.0769  1.2694
17845TIP3    H274951   4.270   4.384   3.902  0.0492  1.9253  0.9898
17846TIP3   OH274952   3.532   0.344   0.058  0.4041  0.7597 -0.1683
17846TIP3    H174953   3.529   0.438   0.075  2.8835  1.0850 -1.1196
17846TIP3    H274954   3.569   0.337  -0.030 -0.2199 -1.0933 -0.3096
17847TIP3   OH274955   2.762   2.945  16.695  0.3746  0.2740  0.5542
17847TIP3    H174956   2.750   2.966  16.602 -2.1111 -1.9251  0.2565
17847TIP3    H274957   2.856   2.948  16.708  0.6963  2.5056 -1.5262
17848TIP3   OH274958   3.288   3.348   2.940  0.2542 -0.4439  0.5654
17848TIP3    H174959   3.290   3.281   3.009 -1.3341 -1.2992 -0.1401
17848TIP3    H274960   3.299   3.431   2.986 -1.0957 -0.9643  1.9352
17849TIP3   OH274961   4.581   2.162  12.144 -0.5835 -0.1083  0.3511
17849TIP3    H174962   4.570   2.249  12.105 -0.0704  0.6099  1.7158
17849TIP3    H274963   4.500   2.117  12.125 -1.2818  1.0467  0.4754
17850TIP3   OH274964   3.957   5.833   5.004 -0.2723  0.5492  0.3766
17850TIP3    H174965   4.023   5.902   5.010 -0.6676  0.9031  0.7355
17850TIP3    H274966   3.888   5.861   5.063 -1.2605  0.7457 -0.8414
17851TIP3   OH274967   2.409   6.538  11.656  0.7741  0.7432  0.2568
17851TIP3    H174968   2.401   6.586  11.738 -0.0969  0.3582  0.4084
17851TIP3    H274969   2.485   6.577  11.613  0.1395  2.1970  0.3995
17852TIP3   OH274970   5.451   2.711  12.981 -0.8882  0.1859  0.7223
17852TIP3    H174971   5.432   2.803  12.962  0.1124  0.8375  2.6412
17852TIP3    H274972   5.375   2.681  13.032 -0.7655  0.2300  0.9293
17853TIP3   OH274973   0.357   3.220   0.931  0.2617 -0.0668 -0.1500
17853TIP3    H174974   0.295   3.203   0.860 -0.2398  0.1267  0.2305
17853TIP3    H274975   0.374   3.314   0.925  0.8546 -0.1902 -0.5135
17854TIP3   OH274976   2.433   5.959   0.369  0.0473  0.2710 -0.4609
17854TIP3    H174977   2.506   6.009   0.332 -0.2019  0.2101 -1.0459
17854TIP3    H274978   2.419   5.888   0.306 -2.5077  2.0027 -1.9879
17855TIP3   OH274979   1.341   2.842   6.371 -0.3617  0.1329 -0.2374
17855TIP3    H174980   1.293   2.760   6.363  0.0025 -0.0294 -0.8174
17855TIP3    H274981   1.279   2.902   6.413 -0.2143 -0.7722  1.3346
17856TIP3   OH274982   6.628   3.202  13.126  0.4702 -0.4856  0.7432
17856TIP3    H174983   6.632   3.204  13.222  1.5363 -1.5199  0.7471
17856TIP3    H274984   6.705   3.251  13.098  1.1539 -1.6991  0.4541
17857TIP3   OH274985   2.557   0.281   3.899  0.8227 -0.4789  0.1683
17857TIP3    H174986   2.519   0.297   3.813  3.5291 -0.8278 -1.1675
17857TIP3    H274987   2.498   0.326   3.960 -1.4342 -0.6280 -1.7629
17858TIP3   OH274988   4.565   5.021   0.845 -0.3991  0.3189  0.4012
17858TIP3    H174989   4.478   4.992   0.816 -0.5299 -0.6521  1.6705
17858TIP3    H274990   4.609   4.940   0.871  0.7137  0.8621  0.2423
17859TIP3   OH274991   6.487   2.403  16.186 -0.3675 -0.2134 -0.1764
17859TIP3    H174992   6.397   2.436  16.190 -0.2662  0.2262 -1.2842
17859TIP3    H274993   6.524   2.426  16.272 -1.5903 -1.3040  0.6910
17860TIP3   OH274994   3.899   3.075   3.651  0.1697 -0.2180 -0.1198
17860TIP3    H174995   3.984   3.054   3.692 -0.0849  0.6021  0.8680
17860TIP3    H274996   3.865   2.990   3.623  0.0470 -0.9597  2.0333
17861TIP3   OH274997   4.677   3.601  15.682 -0.4651  0.1456  0.2733
17861TIP3    H174998   4.601   3.646  15.646 -0.4012  1.0155  1.1688
17861TIP3    H274999   4.673   3.513  15.646 -2.0498  0.1024  0.4967
17862TIP3   OH275000   6.760   1.442  16.581 -0.1323  0.1238 -0.5061
17862TIP3    H175001   6.777   1.391  16.660  0.4956  0.8237 -0.1698
17862TIP3    H275002   6.678   1.488  16.599 -1.0004 -1.1708 -1.0341
17863TIP3   OH275003   5.377   6.029   0.661 -0.3660  0.1995  0.0371
17863TIP3    H175004   5.408   5.998   0.576 -0.2467  0.7061 -0.1098
17863TIP3    H275005   5.291   6.066   0.642 -0.9717 -0.9786  0.3977
17864TIP3   OH275006   3.908   3.814   4.470 -0.2454 -0.5158 -0.6728
17864TIP3    H175007   3.847   3.869   4.519  0.5799  0.6484 -0.9294
17864TIP3    H275008   3.857   3.784   4.394 -1.1446 -1.3343  0.2136
17865TIP3   OH275009   3.555   3.281   4.573 -0.3764 -0.5272 -0.1900
17865TIP3    H175010   3.555   3.376   4.563  0.1240 -0.3725  1.0855
17865TIP3    H275011   3.498   3.249   4.503  1.2261  0.5366 -2.0854
17866TIP3   OH275012   4.918   4.305   4.515 -0.2438 -0.4859  1.1324
17866TIP3    H175013   4.833   4.307   4.559 -1.0406 -1.0343 -0.3324
17866TIP3    H275014   4.916   4.380   4.455  0.3263 -0.4870  1.1020
17867TIP3   OH275015   2.495   2.701   6.091 -1.0844 -0.0667  0.4349
17867TIP3    H175016   2.536   2.782   6.062 -1.4403 -0.1833 -0.4307
17867TIP3    H275017   2.546   2.674   6.167  0.2194 -0.0169 -0.3846
17868TIP3   OH275018   5.670   4.991  11.248 -0.1834  0.1365 -0.1320
17868TIP3    H175019   5.732   4.953  11.186  2.1174 -0.4694  2.3664
17868TIP3    H275020   5.584   4.969  11.212  1.0009 -0.4119 -2.8907
17869TIP3   OH275021   3.416   1.721   4.950 -0.2753  0.1152  0.3314
17869TIP3    H175022   3.356   1.707   5.024 -1.0216  1.2088 -0.0435
17869TIP3    H275023   3.497   1.753   4.990 -0.0162 -1.0721  0.8152
17870TIP3   OH275024   1.394   0.546  17.031 -0.5901 -0.0880 -0.1227
17870TIP3    H175025   1.360   0.468  16.989 -0.5071 -0.1885 -0.0056
17870TIP3    H275026   1.451   0.513  17.100 -0.6342  0.0763 -0.0078
17871TIP3   OH275027   6.427   5.004   3.563  0.0237  0.0596 -0.2044
17871TIP3    H175028   6.444   4.911   3.547  0.8037  0.1093  0.2972
17871TIP3    H275029   6.334   5.015   3.543 -0.3434 -1.0595  0.7557
17872TIP3   OH275030   0.707   2.526   5.848  0.3148 -0.0755 -0.2293
17872TIP3    H175031   0.644   2.455   5.853 -0.5920  0.4410 -2.7801
17872TIP3    H275032   0.776   2.501   5.909 -0.7294 -2.3425  0.1280
17873TIP3   OH275033   5.964   4.219   1.073  0.3864 -0.2949 -0.1989
17873TIP3    H175034   5.978   4.156   1.002  0.7600  0.1238 -0.5028
17873TIP3    H275035   5.916   4.291   1.032  1.0914  0.2039 -0.1661
17874TIP3   OH275036   4.536   5.835  14.156 -0.4178  0.4154 -0.5482
17874TIP3    H175037   4.524   5.853  14.249 -1.0575 -0.1667 -0.5117
17874TIP3    H275038   4.586   5.910  14.123 -2.8856  2.2339 -0.3957
17875TIP3   OH275039   4.722   2.243   0.197  0.3653  0.3457 -0.0312
17875TIP3    H175040   4.679   2.297   0.263  0.2004 -0.7183  0.7480
17875TIP3    H275041   4.808   2.225   0.234  1.2598  1.8107 -1.2351
17876TIP3   OH275042   1.077   6.399  16.638  0.3812 -0.5420 -0.3489
17876TIP3    H175043   1.007   6.368  16.580  0.0738 -0.1139 -0.2037
17876TIP3    H275044   1.043   6.384  16.727  1.0269 -1.6101 -0.2560
17877TIP3   OH275045   2.830   3.409   4.020  0.2593 -0.7740 -0.2479
17877TIP3    H175046   2.818   3.459   4.100 -1.0857 -1.4676  0.0146
17877TIP3    H275047   2.853   3.321   4.050  0.3716 -0.8799 -0.6378
17878TIP3   OH275048   1.826   3.965   1.230  0.5254 -0.2288 -0.0574
17878TIP3    H175049   1.823   3.904   1.304 -1.8859  1.9070  1.7714
17878TIP3    H275050   1.742   3.952   1.185  0.5685  0.7890 -0.4568
17879TIP3   OH275051   3.495   4.665  14.811 -0.2559  0.4925 -0.6145
17879TIP3    H175052   3.459   4.586  14.851  1.4945  0.2524  0.5634
17879TIP3    H275053   3.579   4.637  14.775 -0.5609  1.3588 -2.0734
17880TIP3   OH275054   1.726   4.787  15.324  0.5844  0.1723 -0.1230
17880TIP3    H175055   1.678   4.775  15.405 -0.1815 -1.3653 -0.7597
17880TIP3    H275056   1.798   4.723  15.329  0.0509 -0.5162 -0.9853
17881TIP3   OH275057   2.410   0.756   2.990  0.0954  0.3500  0.7037
17881TIP3    H175058   2.401   0.663   3.011 -1.1755  0.7914  2.2748
17881TIP3    H275059   2.329   0.779   2.946 -0.3784  1.0915  1.9163
17882TIP3   OH275060   6.207   4.741   3.052 -0.2792 -0.0550  0.4896
17882TIP3    H175061   6.285   4.779   3.012  2.1988 -1.2534  3.7281
17882TIP3    H275062   6.215   4.647   3.038 -1.4205 -0.1705  0.4841
17883TIP3   OH275063   3.695   0.432   2.015 -0.0109  0.0939  0.0823
17883TIP3    H175064   3.721   0.486   2.090  3.1148 -0.0584 -0.7513
17883TIP3    H275065   3.660   0.495   1.952 -1.4203  0.3887  1.1008
17884TIP3   OH275066   2.719   1.392   2.145 -0.7017  0.3708  0.1325
17884TIP3    H175067   2.690   1.309   2.107 -1.4693  0.5546  0.2969
17884TIP3    H275068   2.752   1.369   2.232 -1.7216  0.3495  0.5199
17885TIP3   OH275069   1.659   2.019  13.744 -0.5830  0.4042  0.4065
17885TIP3    H175070   1.752   1.998  13.747 -0.8177 -0.5729  2.6184
17885TIP3    H275071   1.651   2.082  13.673  1.7570  0.5190  0.1692
17886TIP3   OH275072   5.857   1.512  15.485 -0.3519 -0.1601 -0.2642
17886TIP3    H175073   5.904   1.448  15.538 -0.3975 -0.4069 -0.5211
17886TIP3    H275074   5.765   1.496  15.504 -0.3258  1.4160  1.5308
17887TIP3   OH275075   1.665   2.909   0.333 -0.1809 -0.0598  0.4513
17887TIP3    H175076   1.679   2.817   0.312 -1.9340 -0.2400 -0.0770
17887TIP3    H275077   1.686   2.956   0.253  1.0958  0.0572  0.8389
17888TIP3   OH275078   2.782   4.702   5.451 -0.2281  0.2257 -0.0597
17888TIP3    H175079   2.726   4.777   5.431  0.8353  1.2844  0.7161
17888TIP3    H275080   2.789   4.703   5.547  0.4528 -0.3756 -0.0930
17889TIP3   OH275081   6.092   1.028  15.421 -0.4287  0.3377  0.3048
17889TIP3    H175082   6.163   1.091  15.422  0.3529 -0.4911 -0.6135
17889TIP3    H275083   6.099   0.986  15.335 -0.5117 -1.4402  1.1256
17890TIP3   OH275084   6.264   5.466   1.270 -0.1595  0.4984  0.4847
17890TIP3    H175085   6.188   5.434   1.221  0.1242 -1.3680  1.1982
17890TIP3    H275086   6.232   5.481   1.358  0.2791 -0.2154  0.7692
17891TIP3   OH275087   5.382   4.555   5.869  0.0210 -0.1869  0.1013
17891TIP3    H175088   5.466   4.596   5.886 -0.4737  0.4913  1.0362
17891TIP3    H275089   5.346   4.602   5.794  0.6099 -0.6989 -0.5088
17892TIP3   OH275090   2.486   3.630   0.007  0.0754 -0.0040 -0.0704
17892TIP3    H175091   2.432   3.580  -0.054  0.3075 -0.9176  0.4396
17892TIP3    H275092   2.424   3.676   0.063 -0.2365 -1.7094  1.0612
17893TIP3   OH275093   2.490   5.223   1.636  0.3968  0.0781  0.0971
17893TIP3    H175094   2.463   5.293   1.577 -0.5205  0.2322  0.6745
17893TIP3    H275095   2.408   5.191   1.675  0.7844 -1.3299 -0.1646
17894TIP3   OH275096   3.314   6.770   5.238  0.0506 -0.6412  0.0240
17894TIP3    H175097   3.337   6.682   5.269  0.0455 -1.5395 -2.3571
17894TIP3    H275098   3.383   6.826   5.273  0.1318 -1.5935  1.4618
17895TIP3   OH275099   6.768   3.744  12.425  0.3018 -0.2349 -0.1166
17895TIP3    H175100   6.786   3.678  12.358  1.9305 -1.4780  1.4419
17895TIP3    H275101   6.804   3.825  12.390 -0.8798 -0.3377 -1.6657
17896TIP3   OH275102   2.263   5.727  13.415  0.0867  0.6193 -0.0566
17896TIP3    H175103   2.245   5.808  13.369  1.5244  1.4130  0.7220
17896TIP3    H275104   2.177   5.689  13.431 -0.5023  0.2554 -3.3887
17897TIP3   OH275105   4.618   3.111   1.555 -0.0398 -0.1884 -0.4625
17897TIP3    H175106   4.642   3.175   1.622  0.1165 -0.1380 -0.5672
17897TIP3    H275107   4.571   3.043   1.603 -0.9316  0.4065 -0.4695
17898TIP3   OH275108   5.682   0.777   5.196 -0.1121 -0.2131 -0.0701
17898TIP3    H175109   5.730   0.827   5.129 -0.2020 -1.7901 -1.3692
17898TIP3    H275110   5.736   0.700   5.212 -2.2045 -2.2213 -1.8118
17899TIP3   OH275111   5.502   2.773   5.231  0.0251 -0.5012 -0.5591
17899TIP3    H175112   5.480   2.680   5.238  1.1999 -0.7135  1.0080
17899TIP3    H275113   5.545   2.793   5.314  3.0470  0.5088 -2.2025
17900TIP3   OH275114   2.528   6.761  13.577  0.9117 -0.2124 -0.1513
17900TIP3    H175115   2.560   6.677  13.611 -0.0845  0.3613  2.4213
17900TIP3    H275116   2.579   6.827  13.623 -0.8230  0.6233  0.6757
17901TIP3   OH275117   0.314   5.170  11.736  0.4574  0.7272  0.3144
17901TIP3    H175118   0.375   5.243  11.749  0.7486  0.2678  1.6904
17901TIP3    H275119   0.293   5.140  11.825 -2.2958  1.2689 -0.0850
17902TIP3   OH275120   1.940   6.428   0.698  0.1426 -0.2306 -0.4782
17902TIP3    H175121   1.939   6.342   0.656 -0.7549  0.1240 -1.2148
17902TIP3    H275122   1.946   6.490   0.625  3.7391  0.3234  0.1069
17903TIP3   OH275123   1.382   1.291  16.041 -0.7629  0.4106 -0.3808
17903TIP3    H175124   1.350   1.369  15.996 -2.4286  0.2527  0.4362
17903TIP3    H275125   1.319   1.223  16.018 -0.5838 -0.1311  0.6574
17904TIP3   OH275126   2.406   0.653   4.181  0.4147 -0.5931 -0.2320
17904TIP3    H175127   2.460   0.733   4.181 -0.8237  0.3079 -1.7442
17904TIP3    H275128   2.377   0.645   4.272 -0.1469  1.2170 -0.1981
17905TIP3   OH275129   1.219   2.321   2.338 -0.2324 -0.0831  0.4211
17905TIP3    H175130   1.156   2.251   2.355 -0.8934  0.6615  1.1316
17905TIP3    H275131   1.173   2.380   2.277  0.7091 -0.7804 -1.0201
17906TIP3   OH275132   5.113   5.565  15.489 -0.0846 -0.5636  0.0866
17906TIP3    H175133   5.095   5.510  15.565 -0.9485 -0.2116  0.1516
17906TIP3    H275134   5.175   5.631  15.521  0.5396 -1.1640  0.1446
17907TIP3   OH275135   0.394   2.965   3.911  0.1813 -0.6106  0.6967
17907TIP3    H175136   0.428   2.902   3.847  2.8395  2.0745 -0.7635
17907TIP3    H275137   0.362   3.038   3.858  0.5638  0.8306  2.3816
17908TIP3   OH275138   2.129   1.082   6.421  0.1334  0.5026 -0.5217
17908TIP3    H175139   2.134   1.056   6.513 -5.3617 -0.0733 -0.0454
17908TIP3    H275140   2.204   1.039   6.380  3.3688  1.4905  3.6289
17909TIP3   OH275141   2.265   5.477   0.173 -0.4958  0.3680 -0.6138
17909TIP3    H175142   2.195   5.475   0.108 -0.6180 -3.4748 -0.5665
17909TIP3    H275143   2.345   5.458   0.122 -0.1257  0.4255 -0.0634
17910TIP3   OH275144   5.641   0.614  17.084  0.0579 -0.2999  0.6937
17910TIP3    H175145   5.685   0.586  17.004 -0.4264 -1.9322  0.9699
17910TIP3    H275146   5.552   0.635  17.057  0.1379  0.0229  0.6673
17911TIP3   OH275147   0.404   4.025   3.431 -0.2822  0.1337 -1.2196
17911TIP3    H175148   0.487   3.979   3.442 -0.1063  0.7255  0.1520
17911TIP3    H275149   0.392   4.032   3.336 -0.0695 -2.2615 -1.4863
17912TIP3   OH275150   4.981   6.131   4.985  0.0567  0.6013 -0.1738
17912TIP3    H175151   5.061   6.161   4.941  0.8353 -0.7145  0.2702
17912TIP3    H275152   4.982   6.036   4.974 -1.8404  0.6138 -0.7681
17913TIP3   OH275153   4.835   1.961   4.128  0.6745 -0.2263  0.6896
17913TIP3    H175154   4.851   2.054   4.145  0.1284 -0.1226  0.6313
17913TIP3    H275155   4.866   1.917   4.207  2.2747 -0.1350  0.1639
17914TIP3   OH275156   5.887   6.725  10.643 -0.1486 -0.0690  0.1694
17914TIP3    H175157   5.901   6.639  10.604 -0.1112 -0.0290  0.0936
17914TIP3    H275158   5.858   6.707  10.732 -2.3925 -0.2265 -0.5205
17915TIP3   OH275159   0.042   4.828  11.961 -0.1265 -0.2297  0.2701
17915TIP3    H175160   0.046   4.763  11.891 -0.7486  0.1934 -0.1647
17915TIP3    H275161  -0.016   4.896  11.927  1.4266  1.1375  0.2302
17916TIP3   OH275162   3.781   3.408  15.054  0.3163 -0.0958  0.0952
17916TIP3    H175163   3.702   3.462  15.049 -0.5404 -1.3099  0.1726
17916TIP3    H275164   3.801   3.387  14.962  0.2911 -0.1496  0.1013
17917TIP3   OH275165   3.321   4.750  15.665  0.3014 -0.2016 -0.3931
17917TIP3    H175166   3.264   4.826  15.674  3.0358  2.3135 -2.3478
17917TIP3    H275167   3.325   4.712  15.753 -1.9863  1.2146  0.4003
17918TIP3   OH275168   1.124   5.211  11.859 -0.0767 -0.0952  0.4684
17918TIP3    H175169   1.148   5.285  11.804 -0.4971  1.4893  2.3206
17918TIP3    H275170   1.193   5.207  11.926 -0.0906 -1.3615  0.4312
17919TIP3   OH275171   0.371   2.672  14.703 -0.3038  0.0360  0.4597
17919TIP3    H175172   0.391   2.722  14.623 -0.6955  2.8328  1.9773
17919TIP3    H275173   0.284   2.636  14.687 -0.3647  0.5215 -0.3990
17920TIP3   OH275174   1.319   1.996  12.019  0.0203 -1.1100  0.6794
17920TIP3    H175175   1.351   2.022  11.932  2.1086  0.6695  1.8621
17920TIP3    H275176   1.249   2.058  12.038 -1.0215 -2.0420 -0.0482
17921TIP3   OH275177   3.870   4.992  12.251 -0.3311  0.0501  0.3243
17921TIP3    H175178   3.850   4.917  12.195 -1.3424 -0.2426  1.0363
17921TIP3    H275179   3.958   4.973  12.286  0.2668  0.1922 -1.0450
17922TIP3   OH275180   3.479   2.629   5.172  0.2047 -0.1715 -0.0572
17922TIP3    H175181   3.512   2.674   5.249 -1.1728 -0.7806  0.9408
17922TIP3    H275182   3.536   2.553   5.162 -0.5084 -0.9323  1.3294
17923TIP3   OH275183   1.851   2.150  17.125 -0.0784  0.2856  0.2336
17923TIP3    H175184   1.931   2.202  17.115 -1.4623  2.4723 -0.1757
17923TIP3    H275185   1.843   2.137  17.219  2.0808 -2.3228  0.1948
17924TIP3   OH275186   3.658   5.662  14.829 -0.0203 -0.5324 -0.3247
17924TIP3    H175187   3.737   5.612  14.807  0.0751 -1.2451  1.4636
17924TIP3    H275188   3.586   5.605  14.803  0.0331 -0.1668 -1.3318
17925TIP3   OH275189   3.572   3.602  12.333  0.1696  0.4600  0.6024
17925TIP3    H175190   3.569   3.506  12.331 -0.1102  0.4669 -1.3330
17925TIP3    H275191   3.660   3.623  12.300 -0.1854  0.8787 -0.0847
17926TIP3   OH275192   1.401   6.376  13.536  0.3089 -0.0766  0.2696
17926TIP3    H175193   1.413   6.364  13.630  0.7633 -1.8578  0.0211
17926TIP3    H275194   1.307   6.389  13.525  0.0302 -1.4452  0.8548
17927TIP3   OH275195   3.517   2.256   0.358 -0.4432 -0.7108  0.2404
17927TIP3    H175196   3.588   2.254   0.422 -1.2473  0.3967  1.2050
17927TIP3    H275197   3.506   2.164   0.332 -0.0737 -1.1866  1.6778
17928TIP3   OH275198   0.787   0.699  16.296  0.3794  0.0557  0.2123
17928TIP3    H175199   0.847   0.727  16.227  0.2947 -0.3434 -0.0228
17928TIP3    H275200   0.734   0.777  16.315  1.8622  0.8347  1.3822
17929TIP3   OH275201   0.705   1.620   4.992 -0.2293 -0.2228 -0.3270
17929TIP3    H175202   0.738   1.707   4.973  1.4190 -0.6532  0.4279
17929TIP3    H275203   0.750   1.593   5.073 -2.7102 -0.7155  1.0024
17930TIP3   OH275204   5.813   1.998   2.488 -0.1866 -0.1602  0.0331
17930TIP3    H175205   5.781   2.065   2.428 -0.6817 -0.2831  0.1595
17930TIP3    H275206   5.764   2.013   2.569 -0.2094 -0.5945  0.1005
17931TIP3   OH275207   6.529   5.622  13.314 -0.3477 -0.0147 -0.0510
17931TIP3    H175208   6.556   5.550  13.257 -0.3835  0.4717 -0.6881
17931TIP3    H275209   6.610   5.663  13.342 -0.3481  1.5494 -2.0962
17932TIP3   OH275210   1.438   5.280   3.877  0.1655 -0.5949 -0.5430
17932TIP3    H175211   1.423   5.351   3.939  1.2182 -0.5088 -0.3607
17932TIP3    H275212   1.351   5.254   3.848 -0.1870  2.7237 -2.9005
17933TIP3   OH275213   5.405   5.008   0.422  0.0922 -0.1069  0.0401
17933TIP3    H175214   5.326   4.957   0.440  0.6931 -0.9277  0.4033
17933TIP3    H275215   5.400   5.027   0.328 -0.5717 -0.0813  0.0755
17934TIP3   OH275216   6.218   2.316   5.408  0.2969 -0.1352  0.4479
17934TIP3    H175217   6.212   2.251   5.478 -0.9300  0.1083  0.5823
17934TIP3    H275218   6.295   2.368   5.431  0.5389 -0.7292  1.0214
17935TIP3   OH275219   6.252   1.204  15.860 -0.5073 -0.1864  0.4478
17935TIP3    H175220   6.266   1.136  15.795 -0.0612 -0.7870  1.1590
17935TIP3    H275221   6.322   1.267  15.843 -2.4072  1.4869 -1.8934
17936TIP3   OH275222   5.798   6.345   3.241  0.1010 -0.4783  0.1390
17936TIP3    H175223   5.886   6.321   3.212  1.7058  2.1330  2.3199
17936TIP3    H275224   5.790   6.304   3.327 -0.4045  0.0620  0.3563
17937TIP3   OH275225   3.681   0.326  11.097 -0.0364 -0.2619  0.4453
17937TIP3    H175226   3.658   0.262  11.030  2.2382  0.5200 -1.2027
17937TIP3    H275227   3.709   0.403  11.049  0.1028  0.9355  2.3424
17938TIP3   OH275228   2.911   3.673  12.262 -0.5439 -0.1147 -0.3024
17938TIP3    H175229   2.934   3.581  12.277 -2.6373 -0.6368  0.0218
17938TIP3    H275230   2.868   3.673  12.176  1.5970  1.0259 -1.4584
17939TIP3   OH275231   2.829   2.668  11.240 -0.4584  0.3555  0.5348
17939TIP3    H175232   2.916   2.698  11.217 -1.4844  1.8492 -1.7110
17939TIP3    H275233   2.835   2.646  11.333  2.7794 -1.5673 -0.0038
17940TIP3   OH275234   6.608   3.940   4.487 -1.2230 -0.4796  0.0938
17940TIP3    H175235   6.533   3.881   4.482 -1.4443 -0.1591 -0.4709
17940TIP3    H275236   6.573   4.025   4.460 -1.0576  0.0680  1.5214
17941TIP3   OH275237   3.835   5.419   1.380  0.4496 -0.0990 -0.1844
17941TIP3    H175238   3.806   5.392   1.294  2.0861 -0.5460 -0.6396
17941TIP3    H275239   3.789   5.361   1.441  0.2273 -0.6213 -0.8401
17942TIP3   OH275240   4.844   0.741  16.747  0.8668 -0.4446 -0.2883
17942TIP3    H175241   4.901   0.680  16.794  0.1134 -2.7326 -2.1062
17942TIP3    H275242   4.806   0.688  16.677  0.5286  2.2983 -2.3393
17943TIP3   OH275243   2.311   0.964  16.778 -0.2641  0.2660  0.4679
17943TIP3    H175244   2.309   1.015  16.697  0.5647  0.5177  0.6020
17943TIP3    H275245   2.219   0.960  16.806 -0.2701  2.5661  0.9935
17944TIP3   OH275246   3.437   3.423   2.408  0.0118  0.3723  0.3508
17944TIP3    H175247   3.424   3.358   2.339 -1.1017  2.1141 -1.1514
17944TIP3    H275248   3.464   3.502   2.363 -1.4369  1.7685  1.7965
17945TIP3   OH275249   0.340   1.844  12.253  0.2616 -0.0746 -0.0570
17945TIP3    H175250   0.379   1.925  12.287  0.5426  0.1626 -0.9119
17945TIP3    H275251   0.345   1.854  12.158 -3.7095  0.8538 -0.3318
17946TIP3   OH275252   1.003   4.006   3.896 -0.7524 -0.1324 -0.1347
17946TIP3    H175253   1.026   4.098   3.881 -1.1118 -0.0832 -0.4136
17946TIP3    H275254   0.910   4.009   3.921 -0.9819 -0.4740 -0.9059
17947TIP3   OH275255   4.707   1.729   4.788  0.1541  0.1824 -0.2667
17947TIP3    H175256   4.785   1.692   4.745  0.1767 -1.2019  0.9050
17947TIP3    H275257   4.688   1.669   4.860 -1.0967  1.3407  0.4187
17948TIP3   OH275258   2.402   1.890   0.559  0.3766  0.4267 -0.0322
17948TIP3    H175259   2.366   1.862   0.474  1.6344 -2.2854  0.2095
17948TIP3    H275260   2.381   1.818   0.618  0.4342  1.8076  1.7352
17949TIP3   OH275261   6.437   2.169  15.575  0.7387 -0.2679  0.0370
17949TIP3    H175262   6.483   2.104  15.627  1.9721  0.2613 -0.3596
17949TIP3    H275263   6.490   2.248  15.583 -0.2378  0.4331 -0.2396
17950TIP3   OH275264   6.169   6.298  14.819 -0.2849  0.1052  0.0522
17950TIP3    H175265   6.228   6.247  14.763 -1.8204 -0.3053 -1.2739
17950TIP3    H275266   6.172   6.386  14.783 -1.6093 -0.2524 -1.0547
17951TIP3   OH275267   5.138   0.919  15.340  0.1613 -0.2071  0.3044
17951TIP3    H175268   5.091   0.877  15.412  0.4372 -0.7934  0.1477
17951TIP3    H275269   5.219   0.869  15.333 -0.3154 -0.8235 -1.0942
17952TIP3   OH275270   3.539   0.280   6.006 -0.1058 -0.0975  0.0316
17952TIP3    H175271   3.528   0.371   5.980  0.3738  0.2691  1.0695
17952TIP3    H275272   3.606   0.282   6.075 -0.9989 -1.0802  0.9674
17953TIP3   OH275273   4.337   5.925   0.125  0.5366  0.0230 -0.4344
17953TIP3    H175274   4.428   5.947   0.143  0.8150  0.1783 -1.9799
17953TIP3    H275275   4.328   5.835   0.155  1.0210  0.2022  0.2805
17954TIP3   OH275276   3.789   4.666  14.698 -0.0577 -0.2028 -0.5279
17954TIP3    H175277   3.838   4.699  14.623  1.0305 -0.7861 -0.0978
17954TIP3    H275278   3.790   4.571  14.689  1.7570 -0.4271  1.1615
17955TIP3   OH275279   3.417   4.703   2.982  0.5098 -0.1617  0.5192
17955TIP3    H175280   3.362   4.772   3.020 -0.1819 -0.6310  0.3921
17955TIP3    H275281   3.361   4.661   2.918  0.9340 -0.8400  0.5885
17956TIP3   OH275282   5.569   0.866  14.447 -0.1335 -0.6078 -0.0326
17956TIP3    H175283   5.498   0.834  14.391  0.5765  1.0099 -1.9725
17956TIP3    H275284   5.644   0.873  14.388  0.8596  0.4930  1.3031
17957TIP3   OH275285   6.367   0.485  11.873 -0.4020  0.2076 -0.1619
17957TIP3    H175286   6.399   0.396  11.888 -1.4192  0.0182  1.0521
17957TIP3    H275287   6.313   0.477  11.795 -1.0891 -0.4206  0.3566
17958TIP3   OH275288   1.516   1.793   4.699 -0.3921 -0.1521 -0.1024
17958TIP3    H175289   1.430   1.751   4.694  0.1941 -1.4556  0.3308
17958TIP3    H275290   1.543   1.802   4.607 -0.2658 -1.3172 -0.1949
17959TIP3   OH275291   5.993   3.871   2.543  0.9055 -0.1859  0.2299
17959TIP3    H175292   5.923   3.867   2.478  2.3187  2.0445 -1.5547
17959TIP3    H275293   6.071   3.842   2.497  1.9456  1.4262  0.9104
17960TIP3   OH275294   1.184   0.346   4.767 -0.1804  0.0374 -0.0839
17960TIP3    H175295   1.242   0.390   4.705  1.1843  1.2116  1.9053
17960TIP3    H275296   1.242   0.305   4.830 -1.4776  0.2863  1.3533
17961TIP3   OH275297   3.426   1.374   2.978 -0.2686 -0.1888 -0.0782
17961TIP3    H175298   3.491   1.386   3.047  1.2928 -0.5651 -1.4194
17961TIP3    H275299   3.350   1.337   3.022  0.4103  0.2642  1.5414
17962TIP3   OH275300   4.001   3.099   1.869  0.0136  0.0381  0.4930
17962TIP3    H175301   3.994   3.192   1.847 -0.3409 -0.2641 -0.7646
17962TIP3    H275302   3.914   3.076   1.902 -0.7575 -0.4037 -1.6401
17963TIP3   OH275303   0.162   5.371   1.357 -0.9205 -0.0365  0.2510
17963TIP3    H175304   0.133   5.449   1.404  0.1564  0.4208  0.1837
17963TIP3    H275305   0.235   5.337   1.409  0.1797  0.3831 -0.9712
17964TIP3   OH275306   2.499   0.666  14.201 -0.0668  0.1166 -0.5110
17964TIP3    H175307   2.518   0.588  14.149 -0.4589 -0.6664  0.4892
17964TIP3    H275308   2.474   0.732  14.136 -2.2797 -1.3330 -1.2579
17965TIP3   OH275309   1.710   3.842  13.475 -0.1509 -0.0945  0.4209
17965TIP3    H175310   1.692   3.748  13.474 -1.2024  0.1092 -0.0547
17965TIP3    H275311   1.644   3.878  13.534  0.1293  0.3745  0.4477
17966TIP3   OH275312   3.750   1.880   4.865  0.1898  0.3348 -0.3763
17966TIP3    H175313   3.796   1.880   4.949  2.3604 -0.4274 -1.5016
17966TIP3    H275314   3.790   1.951   4.815 -0.7397  0.4704 -0.9594
17967TIP3   OH275315   2.011   2.096  14.113 -0.4147  0.6469 -0.4361
17967TIP3    H175316   1.959   2.176  14.105  1.1807  1.8954  0.9934
17967TIP3    H275317   2.087   2.110  14.057 -0.4095 -0.1450 -0.6476
17968TIP3   OH275318   1.754   1.546  12.882  0.0424  0.2811  0.2805
17968TIP3    H175319   1.833   1.596  12.861 -0.7613  1.6216  0.2893
17968TIP3    H275320   1.697   1.610  12.926 -1.4812 -0.3289 -0.7181
17969TIP3   OH275321   4.680   3.787  10.835  0.2726 -0.1412 -0.1355
17969TIP3    H175322   4.590   3.811  10.858  0.4641  0.0086  0.4778
17969TIP3    H275323   4.683   3.692  10.845  0.0830 -0.1895 -0.5223
17970TIP3   OH275324   3.432   0.046   1.327  0.1311 -0.3630 -0.4381
17970TIP3    H175325   3.414  -0.027   1.386 -2.2510  1.1200  0.8356
17970TIP3    H275326   3.509   0.089   1.364  0.6812 -1.4057 -0.3705
17971TIP3   OH275327   5.973   6.571   2.780  0.8141 -0.0888  0.6322
17971TIP3    H175328   5.947   6.615   2.860  2.0974  1.1977  0.3785
17971TIP3    H275329   5.954   6.478   2.796 -2.1620  0.4979  1.0857
17972TIP3   OH275330   0.916   6.352   0.321 -0.6533  0.4875  0.0558
17972TIP3    H175331   0.894   6.265   0.355  0.9025  0.9727  2.5801
17972TIP3    H275332   0.948   6.336   0.232 -1.9361 -1.2805 -0.1392
17973TIP3   OH275333   6.149   2.312  14.497  0.3023  0.3399  0.6455
17973TIP3    H175334   6.193   2.390  14.463 -3.8860  2.6059 -0.3233
17973TIP3    H275335   6.180   2.305  14.587  1.4926  2.6305  0.5028
17974TIP3   OH275336   3.551   2.782  11.230  0.0199 -0.0004 -0.1595
17974TIP3    H175337   3.478   2.724  11.208  0.8998 -1.3550  0.3587
17974TIP3    H275338   3.582   2.815  11.146  0.8482 -1.9960 -0.6816
17975TIP3   OH275339   1.979   1.294  12.049 -0.0739  0.0972  0.0710
17975TIP3    H175340   1.968   1.359  11.980 -2.3427 -0.3531 -0.0519
17975TIP3    H275341   1.986   1.346  12.129  2.0319  0.5948 -0.3674
17976TIP3   OH275342   6.316   4.839  15.149 -0.4431 -1.3908 -0.1364
17976TIP3    H175343   6.276   4.784  15.216  1.2106 -1.4477  0.8755
17976TIP3    H275344   6.387   4.786  15.113 -0.7309 -1.0154 -1.3025
17977TIP3   OH275345   6.099   0.824  17.202  0.4113 -0.0555 -0.0215
17977TIP3    H175346   6.183   0.856  17.233  0.6347  0.2824 -0.9364
17977TIP3    H275347   6.046   0.814  17.281  1.8472 -1.9418  0.7927
17978TIP3   OH275348   2.869   6.359   4.239  0.0564 -0.3363  0.3299
17978TIP3    H175349   2.788   6.336   4.194  0.7295  0.5225 -1.4082
17978TIP3    H275350   2.878   6.453   4.227  1.3376 -0.4239  0.4410
17979TIP3   OH275351   1.913   4.661  10.784  0.4717 -0.1011  0.2539
17979TIP3    H175352   1.979   4.609  10.828 -0.4120  0.4509  2.3690
17979TIP3    H275353   1.839   4.601  10.771  0.4405 -0.0638  0.2558
17980TIP3   OH275354   3.961   0.767  17.090 -0.1182  0.2543  0.0089
17980TIP3    H175355   3.950   0.679  17.055 -1.0515  0.4062 -0.1138
17980TIP3    H275356   3.986   0.820  17.015 -1.5682  0.4712 -0.3587
17981TIP3   OH275357   6.697   1.025  13.899  0.1083  0.1771  0.3545
17981TIP3    H175358   6.780   1.068  13.920  0.0701  0.3706  0.1177
17981TIP3    H275359   6.708   0.935  13.930  0.4761  0.1510  0.1484
17982TIP3   OH275360   4.010   1.466   0.241  0.1036 -0.3993 -0.2158
17982TIP3    H175361   4.084   1.405   0.245 -0.9539 -1.7197 -0.0115
17982TIP3    H275362   3.938   1.419   0.284  0.0512  2.2187  3.0079
17983TIP3   OH275363   6.425   3.655  13.471 -0.2420 -0.0286 -0.4535
17983TIP3    H175364   6.481   3.702  13.410 -1.1829  0.5532 -0.8978
17983TIP3    H275365   6.440   3.562  13.451  0.7984  0.1005 -0.3228
17984TIP3   OH275366   3.912   4.277   1.421 -0.3470  0.5547 -0.5213
17984TIP3    H175367   3.817   4.290   1.411 -0.7827  0.1433  2.3424
17984TIP3    H275368   3.933   4.315   1.506  2.4691  2.3015 -1.8688
17985TIP3   OH275369   3.474   1.879   1.401 -0.1035  0.7364 -0.5095
17985TIP3    H175370   3.526   1.809   1.440 -2.2989  0.5967  2.5932
17985TIP3    H275371   3.412   1.835   1.344  0.8214  0.5738 -1.4201
17986TIP3   OH275372   0.271   4.323   5.587  0.4380  0.0419  1.0190
17986TIP3    H175373   0.284   4.350   5.496  0.5120 -0.7365  0.7874
17986TIP3    H275374   0.357   4.333   5.627  0.3510  0.6103  1.0655
17987TIP3   OH275375   1.984   6.090  13.093 -0.5273 -0.1704 -0.1108
17987TIP3    H175376   1.894   6.113  13.070 -0.6132  1.0429  1.2672
17987TIP3    H275377   2.026   6.174  13.110  0.2705 -0.8209  1.3019
17988TIP3   OH275378   3.487   0.318  16.718 -0.0521  0.7484  0.2772
17988TIP3    H175379   3.409   0.351  16.763 -2.2248 -0.3319 -2.4338
17988TIP3    H275380   3.527   0.395  16.678  0.3610  1.3124  1.7186
17989TIP3   OH275381   5.347   2.109  13.057  0.4833  0.5341 -0.4430
17989TIP3    H175382   5.262   2.129  13.018 -2.6919 -2.3109  4.1103
17989TIP3    H275383   5.365   2.019  13.030 -0.3521 -0.4645  2.1045
17990TIP3   OH275384   5.768   0.277   4.723  0.2150 -0.1519 -0.0080
17990TIP3    H175385   5.755   0.191   4.763 -0.4342 -1.1902 -2.2826
17990TIP3    H275386   5.683   0.298   4.683  1.4630 -0.5872 -3.2302
17991TIP3   OH275387   6.215   1.799  15.029  0.3433  0.0563 -0.2837
17991TIP3    H175388   6.141   1.852  15.059  1.4993  0.8483  1.3288
17991TIP3    H275389   6.233   1.740  15.102  1.9098  0.5622 -0.2256
17992TIP3   OH275390   1.952   0.633   5.902  0.2117 -0.3930 -0.2424
17992TIP3    H175391   1.967   0.554   5.954  0.6544  0.2504  0.6269
17992TIP3    H275392   1.905   0.693   5.961  1.1392  0.5266 -0.4037
17993TIP3   OH275393   6.765   1.816  11.914  0.1052  0.0066  0.3991
17993TIP3    H175394   6.774   1.909  11.934 -0.5100  1.1955 -3.8116
17993TIP3    H275395   6.854   1.785  11.901  0.2294  0.9355 -1.2571
17994TIP3   OH275396   0.572   3.401  12.797 -0.2401 -0.1609  0.3951
17994TIP3    H175397   0.583   3.434  12.708  0.2263 -2.0788 -0.2935
17994TIP3    H275398   0.549   3.309  12.787 -0.3813 -0.3789  2.2565
17995TIP3   OH275399   4.180   4.177  14.604  0.0303 -0.3411  0.5593
17995TIP3    H175400   4.121   4.249  14.584 -0.1305 -0.5786  0.1578
17995TIP3    H275401   4.266   4.207  14.574  0.0367 -0.1657  0.7506
17996TIP3   OH275402   3.472   2.542   0.872  0.4034  0.2686  0.4239
17996TIP3    H175403   3.412   2.567   0.942 -0.6738 -2.7374  0.7283
17996TIP3    H275404   3.559   2.562   0.906 -0.1857  0.4378  1.9101
17997TIP3   OH275405   6.134   4.282   1.270  1.2991  0.5443 -0.0157
17997TIP3    H175406   6.109   4.211   1.329 -0.9070  1.5923  0.4302
17997TIP3    H275407   6.079   4.270   1.193  1.2861  1.4347 -0.1663
17998TIP3   OH275408   1.469   2.950   2.575 -0.2331  0.2506  0.0518
17998TIP3    H175409   1.439   3.000   2.499 -0.3500 -0.7917 -0.6191
17998TIP3    H275410   1.397   2.890   2.595  0.7394 -1.2108 -0.6080
17999TIP3   OH275411   3.858   0.331   1.085  0.5103  0.1097 -0.3180
17999TIP3    H175412   3.899   0.264   1.139  1.8215  0.1738 -1.1938
17999TIP3    H275413   3.811   0.387   1.147  0.6562 -0.7321  0.5704
18000TIP3   OH275414   1.280   0.223   3.131 -0.1613  0.1807 -0.0817
18000TIP3    H175415   1.224   0.174   3.071 -0.0201  1.8264 -1.6240
18000TIP3    H275416   1.324   0.156   3.183 -2.9068 -1.2181  0.6468
18001TIP3   OH275417   0.891   4.654   5.232  0.1976 -0.3693 -0.2240
18001TIP3    H175418   0.982   4.640   5.205  0.7138  1.1479  0.6012
18001TIP3    H275419   0.844   4.576   5.201  2.0780 -2.0021  0.7906
18002TIP3   OH275420   6.738   3.727  15.713  0.3291 -0.5713 -0.2484
18002TIP3    H175421   6.723   3.737  15.619  2.6319 -0.5207 -0.6598
18002TIP3    H275422   6.658   3.762  15.753 -0.5355 -0.2104 -2.1556
18003TIP3   OH275423   6.554   4.171  16.137  0.3962  0.1837 -0.0458
18003TIP3    H175424   6.636   4.220  16.128  1.5798 -2.0170 -3.0008
18003TIP3    H275425   6.573   4.105  16.203  0.2883  0.9073  0.7247
18004TIP3   OH275426   0.324   5.089  15.854  0.2104  0.2804 -0.2167
18004TIP3    H175427   0.307   5.004  15.814  1.3104  1.1668 -2.7770
18004TIP3    H275428   0.247   5.105  15.909  0.0894 -2.4321  0.5534
18005TIP3   OH275429   2.530   4.240  11.521 -0.2799 -0.1805 -0.0870
18005TIP3    H175430   2.619   4.213  11.545 -0.9673 -2.0037  0.5733
18005TIP3    H275431   2.527   4.227  11.426  0.2055  0.0067 -0.1299
18006TIP3   OH275432   4.683   1.836  14.369  0.4999  0.0312 -0.9248
18006TIP3    H175433   4.706   1.929  14.361  1.6080 -0.2984 -1.7396
18006TIP3    H275434   4.741   1.802  14.437 -1.6194  0.4390  1.2425
18007TIP3   OH275435   2.594   5.601  13.610 -0.4801  0.0288  0.1606
18007TIP3    H175436   2.565   5.690  13.634 -1.4574  0.0680 -1.0459
18007TIP3    H275437   2.652   5.614  13.535 -1.0519 -0.3558 -0.3677
18008TIP3   OH275438   2.385   2.884  14.596 -0.0341 -0.3194 -0.4014
18008TIP3    H175439   2.305   2.848  14.634  0.2272  0.0754  0.5423
18008TIP3    H275440   2.451   2.816  14.612  0.2074  0.0908  0.3878
18009TIP3   OH275441   5.509   6.718  16.394 -0.1985 -0.9709 -1.1069
18009TIP3    H175442   5.572   6.655  16.428 -0.4566 -1.0535 -0.7792
18009TIP3    H275443   5.554   6.803  16.399 -1.0851 -0.5650  1.8195
18010TIP3   OH275444   6.381   3.331  16.657 -0.0311 -0.0314  0.0075
18010TIP3    H175445   6.432   3.312  16.736  0.1703  0.8075  0.0865
18010TIP3    H275446   6.326   3.254  16.645 -0.3058 -0.0263  1.1558
18011TIP3   OH275447   1.972   6.669   3.100  0.4518  0.2493 -0.1253
18011TIP3    H175448   2.057   6.628   3.116  0.0878 -1.0859 -1.3830
18011TIP3    H275449   1.914   6.629   3.164  0.3284 -0.4433 -0.6572
18012TIP3   OH275450   0.920   3.680   2.985 -0.4080 -0.6671  0.4111
18012TIP3    H175451   0.983   3.616   2.952  0.3664 -0.8484  2.1287
18012TIP3    H275452   0.903   3.738   2.910  1.5330 -0.8258 -0.2182
18013TIP3   OH275453   0.175   5.201  15.179 -0.3560 -0.4074  0.4799
18013TIP3    H175454   0.082   5.211  15.200 -0.4636  0.6693 -0.4143
18013TIP3    H275455   0.221   5.245  15.250 -0.6526  1.6710 -0.5575
18014TIP3   OH275456   5.599   0.249  11.583 -0.6362 -0.5637  0.3583
18014TIP3    H175457   5.508   0.278  11.579 -0.4098  0.1324  0.0814
18014TIP3    H275458   5.594   0.154  11.578 -1.2347 -0.4745 -1.9102
18015TIP3   OH275459   2.171   1.790  15.171  0.3559 -0.2627  0.0035
18015TIP3    H175460   2.166   1.732  15.247  1.4189 -1.2680 -0.6676
18015TIP3    H275461   2.203   1.735  15.100  2.5137  1.3734 -0.3864
18016TIP3   OH275462   2.521   0.901   1.950  0.1404  0.0358 -0.0574
18016TIP3    H175463   2.552   0.810   1.953  1.3142  0.3292 -1.8899
18016TIP3    H275464   2.431   0.894   1.919  0.6509 -0.4629 -1.5026
18017TIP3   OH275465   5.663   0.024   2.129 -0.1992 -0.1773 -0.2171
18017TIP3    H175466   5.723  -0.038   2.171 -0.8064 -0.1673  0.7173
18017TIP3    H275467   5.653  -0.009   2.040  0.2661 -0.8504 -0.0339
18018TIP3   OH275468   3.120   4.405   6.114  0.3386  0.1034 -0.0520
18018TIP3    H175469   3.151   4.332   6.169  2.4621  1.3081  0.4662
18018TIP3    H275470   3.102   4.475   6.176  1.7659  1.1485 -0.7748
18019TIP3   OH275471   2.875   5.047   4.618  0.1366  0.5586 -0.2325
18019TIP3    H175472   2.908   5.032   4.706  1.2721  3.0539 -0.1482
18019TIP3    H275473   2.781   5.062   4.630  0.2142  0.4908  0.5043
18020TIP3   OH275474   6.292   6.402   2.526  0.0309  0.1374 -0.3352
18020TIP3    H175475   6.364   6.352   2.565  0.0472 -1.6479 -2.4392
18020TIP3    H275476   6.314   6.407   2.433 -3.3662 -2.1996 -1.4703
18021TIP3   OH275477   5.921   6.239  14.280  0.4578 -0.1297 -0.2389
18021TIP3    H175478   5.875   6.290  14.214  0.2959  0.1177  0.0598
18021TIP3    H275479   5.971   6.304  14.330  0.1334 -0.2424  0.2430
18022TIP3   OH275480   6.384   6.433   4.263 -0.0019  0.1126  0.0318
18022TIP3    H175481   6.326   6.483   4.320 -0.9299  0.0514 -0.8184
18022TIP3    H275482   6.405   6.493   4.192 -0.5235 -0.4448 -0.6107
18023TIP3   OH275483   1.691   4.466   4.016  0.4794  0.2644  0.5238
18023TIP3    H175484   1.668   4.455   4.108 -1.0356  2.7051  0.5090
18023TIP3    H275485   1.698   4.560   4.003  2.2076 -0.0575 -1.5473
18024TIP3   OH275486   1.854   2.192  10.618  0.2248  0.1802 -0.0043
18024TIP3    H175487   1.837   2.138  10.541 -2.1004 -1.2910  1.4335
18024TIP3    H275488   1.949   2.186  10.630  0.2961 -1.7910 -1.1592
18025TIP3   OH275489   5.245   1.033   5.671 -1.0871  0.9080  0.5942
18025TIP3    H175490   5.317   1.096   5.661  0.8310 -1.0342  1.3496
18025TIP3    H275491   5.288   0.950   5.693 -3.6463 -0.0611  2.4743
18026TIP3   OH275492   0.729   3.781   3.792 -0.5722 -0.0971 -0.0982
18026TIP3    H175493   0.658   3.824   3.745 -1.6094 -1.6514 -0.0180
18026TIP3    H275494   0.758   3.847   3.856 -1.6757  0.7109 -0.3888
18027TIP3   OH275495   2.254   1.293   3.343  0.7417 -0.4799  0.1111
18027TIP3    H175496   2.286   1.382   3.359  0.4676 -0.1884 -0.8942
18027TIP3    H275497   2.321   1.253   3.288 -0.1128 -0.1854 -1.1961
18028TIP3   OH275498   5.639   2.832   0.251 -0.1853  0.0552 -0.1148
18028TIP3    H175499   5.612   2.907   0.303  0.4597  1.5253 -1.7858
18028TIP3    H275500   5.707   2.790   0.303 -0.0879  1.0284  0.5773
18029TIP3   OH275501   5.196   6.537  13.846  0.4099  0.2947 -0.2653
18029TIP3    H175502   5.139   6.510  13.917  0.4368  0.2516 -0.2604
18029TIP3    H275503   5.274   6.572  13.889  0.7567 -0.4531 -0.2784
18030TIP3   OH275504   0.589   2.311  13.285 -0.0748  0.3063 -0.0913
18030TIP3    H175505   0.601   2.329  13.192 -0.2314  0.1366 -0.1467
18030TIP3    H275506   0.654   2.366  13.329  1.5771 -1.2861 -0.4200
18031TIP3   OH275507   1.052   2.511  11.451  0.3412 -0.2848  0.6727
18031TIP3    H175508   1.039   2.439  11.389 -3.9596  0.6515  0.1899
18031TIP3    H275509   1.086   2.583  11.398 -1.5983 -0.0412 -0.3122
18032TIP3   OH275510   0.533   5.758   0.449  0.2853 -0.3680  0.4451
18032TIP3    H175511   0.485   5.677   0.468 -0.5891  0.0485  0.0808
18032TIP3    H275512   0.533   5.765   0.354  0.7951 -0.1992  0.4566
18033TIP3   OH275513   4.415   6.092   2.736  0.0557  0.5731  0.3220
18033TIP3    H175514   4.322   6.086   2.761  0.4112 -1.1191  1.3626
18033TIP3    H275515   4.419   6.050   2.651 -0.0593  0.2491  0.4756
18034TIP3   OH275516   5.225   2.723   2.270  0.3833  0.0046  0.3124
18034TIP3    H175517   5.134   2.718   2.238 -0.2056  0.7289  1.7839
18034TIP3    H275518   5.256   2.633   2.268 -0.8414 -0.4551  1.0454
18035TIP3   OH275519   5.309   5.505  11.831 -0.0796 -0.1991  0.0910
18035TIP3    H175520   5.229   5.453  11.841 -0.2455  0.0770  0.2520
18035TIP3    H275521   5.347   5.477  11.748 -0.3306 -0.3504  0.0272
18036TIP3   OH275522   1.856   3.552   3.411  0.1632 -0.0720 -0.4693
18036TIP3    H175523   1.841   3.601   3.492  0.2893  0.2984 -0.6673
18036TIP3    H275524   1.921   3.486   3.434  1.1737  0.8491 -0.5654
18037TIP3   OH275525   0.508   4.840   5.521  0.5331  0.0737 -0.4029
18037TIP3    H175526   0.461   4.798   5.593  2.7359  0.6691  1.5447
18037TIP3    H275527   0.529   4.769   5.460  0.9311 -0.9835  0.9193
18038TIP3   OH275528   0.687   6.581  12.216 -0.6131 -1.0414  0.1357
18038TIP3    H175529   0.781   6.565  12.214  0.1162  2.2692  1.4876
18038TIP3    H275530   0.661   6.559  12.305 -1.2541 -2.3143 -0.3405
18039TIP3   OH275531   3.295   3.944   6.568 -0.4070  0.1100  0.4878
18039TIP3    H175532   3.207   3.964   6.536  0.3301 -1.2088 -2.6936
18039TIP3    H275533   3.314   3.857   6.534  3.1589  1.4434 -1.4882
18040TIP3   OH275534   5.158   6.519   3.178 -0.0885 -0.6563  0.2643
18040TIP3    H175535   5.067   6.505   3.204 -0.6976  0.1234 -1.2971
18040TIP3    H275536   5.152   6.576   3.101  1.8049  0.6341  1.0244
18041TIP3   OH275537   5.896   4.448   5.829 -0.1202 -0.4177 -0.0038
18041TIP3    H175538   5.988   4.456   5.854 -0.0398 -0.0790 -0.4049
18041TIP3    H275539   5.880   4.354   5.830  0.4576 -0.5337 -0.7275
18042TIP3   OH275540   3.675   3.279  11.425 -0.0429 -0.0054  0.1873
18042TIP3    H175541   3.630   3.196  11.412  0.4093  0.0005 -1.6072
18042TIP3    H275542   3.657   3.330  11.346 -0.5140  1.7353  1.3465
18043TIP3   OH275543   5.408   6.724   5.040  0.3609 -0.5251  0.4314
18043TIP3    H175544   5.393   6.738   5.133 -0.8030  2.3788 -0.0672
18043TIP3    H275545   5.502   6.710   5.032  0.7888  1.1155  1.9287
18044TIP3   OH275546   5.670   3.165   0.705  0.1161  0.3668  0.1652
18044TIP3    H175547   5.576   3.176   0.718 -0.0042  0.4194 -0.7122
18044TIP3    H275548   5.702   3.254   0.687  0.3182  0.3321  0.3486
18045TIP3   OH275549   0.421   5.871  11.980  0.1162 -0.4709 -0.7802
18045TIP3    H175550   0.341   5.825  12.004 -1.0276  1.5618 -0.4253
18045TIP3    H275551   0.452   5.827  11.901 -0.0776 -2.6957  0.3259
18046TIP3   OH275552   5.784   3.093  11.172  0.2385  0.2621  0.7580
18046TIP3    H175553   5.798   3.007  11.131  0.0010  0.7505 -0.3807
18046TIP3    H275554   5.722   3.076  11.243 -1.6897 -0.1558 -0.9458
18047TIP3   OH275555   5.050   6.151   0.343 -0.0572 -0.0063  0.4553
18047TIP3    H175556   5.010   6.079   0.293 -1.2821  0.6391  0.4551
18047TIP3    H275557   5.142   6.148   0.319 -0.2461 -1.0233 -0.2310
18048TIP3   OH275558   3.451   5.937   4.604  0.3320  0.4690  0.3503
18048TIP3    H175559   3.358   5.941   4.582  0.3555  0.9687  0.3286
18048TIP3    H275560   3.496   5.959   4.522  0.5126 -1.2462 -0.0319
18049TIP3   OH275561   0.995   1.564   4.336  0.6022  0.1754  0.1139
18049TIP3    H175562   1.025   1.546   4.247 -0.4139  0.9067 -0.3932
18049TIP3    H275563   0.905   1.532   4.339  0.9907 -0.9128  1.2547
18050TIP3   OH275564   2.481   4.184   5.355  0.4571  0.1272  0.0747
18050TIP3    H175565   2.540   4.259   5.351 -0.6014  0.9344 -0.9927
18050TIP3    H275566   2.537   4.108   5.337  1.5930  0.5933  1.4696
18051TIP3   OH275567   0.033   4.693   0.729 -0.3195  0.4444 -0.1548
18051TIP3    H175568  -0.036   4.719   0.790 -0.3977  0.0376 -0.0663
18051TIP3    H275569   0.112   4.737   0.762 -0.5630  1.0453 -0.3526
18052TIP3   OH275570   4.577   1.658   4.332  0.1486  0.2599 -0.0721
18052TIP3    H175571   4.547   1.744   4.300  0.6794  0.3578 -0.3372
18052TIP3    H275572   4.498   1.605   4.336 -0.4083  1.1533  1.3920
18053TIP3   OH275573   1.277   6.503  16.875 -0.0441 -0.1093 -0.3397
18053TIP3    H175574   1.241   6.524  16.788 -0.0251 -0.1776 -0.3634
18053TIP3    H275575   1.324   6.421  16.862  2.3927  1.2675 -0.9429
18054TIP3   OH275576   3.500   2.248   3.079 -0.0518 -0.1540  0.2634
18054TIP3    H175577   3.537   2.245   3.167 -0.7253 -0.6486  0.5425
18054TIP3    H275578   3.445   2.326   3.078 -0.7972 -0.6594  0.6066
18055TIP3   OH275579   4.401   1.905  12.818 -0.0865  0.0697  0.2472
18055TIP3    H175580   4.465   1.931  12.884 -0.9754 -0.3159  1.2961
18055TIP3    H275581   4.433   1.942  12.736  1.1525  0.3798  0.8607
18056TIP3   OH275582   2.339   2.545  15.522 -0.3590  0.7488  0.1375
18056TIP3    H175583   2.422   2.509  15.552 -1.1514 -0.9751  0.3833
18056TIP3    H275584   2.359   2.582  15.436  0.6147  0.1929  0.1123
18057TIP3   OH275585   1.486   3.578   0.637  0.3330  0.6639  0.6237
18057TIP3    H175586   1.529   3.505   0.592 -0.7228  0.6019 -0.3393
18057TIP3    H275587   1.552   3.611   0.698  0.7736 -1.2247  1.2429
18058TIP3   OH275588   3.543   5.555   2.327 -0.3054 -0.4643 -0.5613
18058TIP3    H175589   3.616   5.611   2.354 -1.1833  0.3091  0.2826
18058TIP3    H275590   3.517   5.589   2.241  0.2845 -0.7124 -0.8441
18059TIP3   OH275591   1.884   2.218   5.471 -0.1527  0.4453 -0.2737
18059TIP3    H175592   1.926   2.255   5.393  1.8844  2.1765  1.4849
18059TIP3    H275593   1.862   2.294   5.524  1.1088 -0.6856  2.0380
18060TIP3   OH275594   6.332   4.632   5.971  0.3117  0.0503 -0.6270
18060TIP3    H175595   6.306   4.615   5.880  0.8848  0.4467 -0.8676
18060TIP3    H275596   6.272   4.579   6.023  0.1202 -0.3496 -1.2459
18061TIP3   OH275597   5.123   0.582   2.199 -0.4371  0.0142  0.2275
18061TIP3    H175598   5.169   0.589   2.283  0.0958 -0.5303 -0.0046
18061TIP3    H275599   5.101   0.672   2.176  2.8525  0.6822 -0.9071
18062TIP3   OH275600   4.732   4.034  14.008 -0.1024 -0.6645  0.9174
18062TIP3    H175601   4.777   4.100  13.955 -0.2027 -0.4793  1.0604
18062TIP3    H275602   4.678   4.085  14.069 -1.6421 -0.8780 -0.2133
18063TIP3   OH275603   5.866   1.962   5.799 -0.3519 -0.1474  0.4551
18063TIP3    H175604   5.784   1.942   5.754  0.4581 -3.8071  0.2989
18063TIP3    H275605   5.929   1.980   5.729 -0.5264  0.5372  0.4704
18064TIP3   OH275606   4.024   3.855  16.384  0.3165  0.2573  0.1480
18064TIP3    H175607   3.967   3.861  16.307 -1.3735 -2.0550  1.0895
18064TIP3    H275608   3.964   3.839  16.457  2.0888 -3.5389  1.0536
18065TIP3   OH275609   1.338   1.719  11.337 -0.0763 -0.3058 -0.2639
18065TIP3    H175610   1.387   1.698  11.417 -1.5642 -0.8155  0.5669
18065TIP3    H275611   1.367   1.653  11.273  0.4871 -0.4513  0.1384
18066TIP3   OH275612   0.246   4.325  11.429  0.2766 -0.2289 -0.0178
18066TIP3    H175613   0.165   4.342  11.382 -0.5714  1.2879  1.8681
18066TIP3    H275614   0.312   4.316  11.360 -1.4196 -1.3758 -1.5933
18067TIP3   OH275615   1.170   2.877  12.712 -0.5122 -0.0689  0.4100
18067TIP3    H175616   1.205   2.788  12.703 -1.8727 -0.5491 -0.4733
18067TIP3    H275617   1.153   2.905  12.622 -1.8108  0.3705  0.7718
18068TIP3   OH275618   0.424   6.746  12.269 -0.3770  0.5433  0.0033
18068TIP3    H175619   0.460   6.727  12.356 -0.4411  1.9916  0.3736
18068TIP3    H275620   0.399   6.661  12.235 -0.0432 -0.0973  1.2684
18069TIP3   OH275621   1.105   4.958  17.097  0.0404 -0.0189  0.3859
18069TIP3    H175622   1.075   4.932  17.183 -2.7460  0.5976 -0.2953
18069TIP3    H275623   1.200   4.967  17.106 -0.0713 -0.7917  3.1194
18070TIP3   OH275624   6.368   5.708   0.876  0.6470  0.4185  0.0642
18070TIP3    H175625   6.415   5.653   0.813  0.8855  1.4702 -0.6861
18070TIP3    H275626   6.295   5.745   0.826 -0.5509 -0.5662  1.0132
18071TIP3   OH275627   0.395   3.194  17.197  0.9042  0.1540 -0.2168
18071TIP3    H175628   0.303   3.209  17.176  0.9806  0.4532 -0.3390
18071TIP3    H275629   0.434   3.165  17.114  0.7666 -0.6744  0.0067
18072TIP3   OH275630   3.816   0.266  16.229 -0.5217 -0.7706 -0.4016
18072TIP3    H175631   3.833   0.184  16.183 -0.9787 -0.9653 -0.2315
18072TIP3    H275632   3.721   0.273  16.231 -0.4891 -0.2805 -0.3311
18073TIP3   OH275633   3.657   3.032   6.569 -0.3496 -0.2596  0.0704
18073TIP3    H175634   3.610   2.950   6.579 -0.9773 -0.1327 -1.6018
18073TIP3    H275635   3.633   3.064   6.482 -0.2118  1.7598  0.7222
18074TIP3   OH275636   1.488   4.812   1.225  0.4041  0.1143  0.1317
18074TIP3    H175637   1.566   4.854   1.263  0.9452 -2.0584  1.6200
18074TIP3    H275638   1.415   4.860   1.263  0.9994  0.4866  0.8523
18075TIP3   OH275639   0.891   4.223   0.652  0.2960 -0.0876  0.0613
18075TIP3    H175640   0.910   4.192   0.740  1.5149 -0.0510 -0.1784
18075TIP3    H275641   0.972   4.264   0.622  0.0727 -0.5822 -1.2828
18076TIP3   OH275642   6.090   2.804   4.489  0.2651  0.6904 -0.4926
18076TIP3    H175643   6.028   2.876   4.478 -2.9886 -2.1119 -2.0497
18076TIP3    H275644   6.073   2.770   4.577 -1.0386 -0.5398 -1.1889
18077TIP3   OH275645   4.437   3.488  16.252  0.0523 -0.5048  0.9182
18077TIP3    H175646   4.434   3.546  16.176  0.2999 -1.3443  0.2503
18077TIP3    H275647   4.503   3.423  16.229 -0.9340 -1.6434  1.2254
18078TIP3   OH275648   0.490   0.795   0.381 -0.3386  0.0313 -0.2130
18078TIP3    H175649   0.560   0.859   0.391 -0.2733  0.1728 -1.3648
18078TIP3    H275650   0.417   0.844   0.342 -1.3828  0.0635  1.6869
18079TIP3   OH275651   5.956   1.024   5.844  0.5611 -0.0135  0.2773
18079TIP3    H175652   5.879   0.985   5.885 -1.8035  3.5610 -0.3082
18079TIP3    H275653   5.982   1.095   5.904 -0.3915  2.6316 -2.1938
18080TIP3   OH275654   3.592   3.437  11.711 -0.5945  0.4438  0.2805
18080TIP3    H175655   3.634   3.392  11.638  1.1720  1.9845  0.2812
18080TIP3    H275656   3.628   3.395  11.789 -0.6008  0.4326  0.2775
18081TIP3   OH275657   1.550   0.758  11.420  0.5109 -1.1725 -0.4312
18081TIP3    H175658   1.565   0.814  11.343  0.9098 -0.7475 -0.0527
18081TIP3    H275659   1.635   0.716  11.436  0.8835 -0.0432  0.7220
18082TIP3   OH275660   3.971   5.756  15.624  0.3329  0.7123 -0.4121
18082TIP3    H175661   4.031   5.810  15.572 -0.3947  0.7864 -1.2037
18082TIP3    H275662   4.020   5.676  15.642  0.6158  0.7032 -1.1898
18083TIP3   OH275663   0.297   0.854  15.405  0.3392  0.7060  0.3284
18083TIP3    H175664   0.317   0.761  15.398 -0.6576  0.3791  1.5330
18083TIP3    H275665   0.243   0.873  15.328  2.9357  1.0225 -1.5637
18084TIP3   OH275666   1.712   0.487  15.373 -0.1747 -0.8117 -0.6339
18084TIP3    H175667   1.625   0.479  15.333 -0.4039 -1.1952 -0.0710
18084TIP3    H275668   1.695   0.493  15.467  0.3619  0.0128 -0.5795
18085TIP3   OH275669   0.380   4.492   6.639  0.1794  0.3503  0.2013
18085TIP3    H175670   0.339   4.407   6.621  0.6290  0.3341 -0.8106
18085TIP3    H275671   0.461   4.470   6.685 -1.1989  0.4122  2.8798
18086TIP3   OH275672   2.323   1.537   2.585 -0.0621 -0.0127  0.1368
18086TIP3    H175673   2.313   1.467   2.520 -0.5506 -0.1342  0.3347
18086TIP3    H275674   2.242   1.587   2.578  1.2302  1.9870 -1.6700
18087TIP3   OH275675   5.127   3.051   4.664  0.2826 -0.1539  0.7359
18087TIP3    H175676   5.147   3.115   4.733 -0.1038  1.6181 -0.6948
18087TIP3    H275677   5.043   3.014   4.689  0.3188  0.1985  1.4111
18088TIP3   OH275678   2.681   5.855   3.629  0.6406 -0.3591 -0.6533
18088TIP3    H175679   2.588   5.839   3.611  0.1089  0.8572  0.7488
18088TIP3    H275680   2.723   5.850   3.544 -0.2252 -3.6585 -1.0266
18089TIP3   OH275681   0.362   4.782  10.449 -0.2745  0.6260 -0.4245
18089TIP3    H175682   0.317   4.860  10.483 -0.4890  0.9154 -1.3328
18089TIP3    H275683   0.309   4.755  10.374  1.4646  1.4592 -2.0336
18090TIP3   OH275684   0.855   5.318   5.111  0.3037 -0.0966 -0.7364
18090TIP3    H175685   0.905   5.330   5.191 -0.3961 -1.5505 -0.0605
18090TIP3    H275686   0.807   5.400   5.100 -1.1090 -0.5678  1.4242
18091TIP3   OH275687   5.288   3.708  15.640 -0.0716 -0.2969 -0.8009
18091TIP3    H175688   5.340   3.788  15.631 -0.2727  0.4791  3.1403
18091TIP3    H275689   5.352   3.637  15.643  0.3701  0.1025 -0.8185
18092TIP3   OH275690   1.051   3.371  13.247 -0.5545 -0.4711 -0.0691
18092TIP3    H175691   1.100   3.318  13.185  2.2361  1.5712  0.1599
18092TIP3    H275692   0.982   3.412  13.195 -0.1538 -1.1317 -1.1457
18093TIP3   OH275693   1.243   1.853  13.200 -0.5878  0.4510  0.1736
18093TIP3    H175694   1.188   1.813  13.132  2.0713 -0.4684 -1.6202
18093TIP3    H275695   1.301   1.781  13.228  1.0384  1.8174  0.4632
18094TIP3   OH275696   3.114   1.162  14.057  0.2296 -0.8265 -0.2257
18094TIP3    H175697   3.147   1.075  14.080 -0.1128 -0.7328  0.6616
18094TIP3    H275698   3.019   1.152  14.057  0.1498 -0.2022  0.9452
18095TIP3   OH275699   4.169   4.844   5.688  0.1724 -0.1083  0.6058
18095TIP3    H175700   4.175   4.934   5.654  1.4034  0.7780  2.9188
18095TIP3    H275701   4.255   4.828   5.727 -0.0234 -2.3365  0.2143
18096TIP3   OH275702   3.099   3.590  13.200 -0.0014 -0.0093 -0.2456
18096TIP3    H175703   3.182   3.568  13.241  0.6127  0.4827 -1.1833
18096TIP3    H275704   3.106   3.556  13.111 -1.1297 -0.6691 -0.0996
18097TIP3   OH275705   1.621   2.308   0.663  0.1322 -0.1225  0.0557
18097TIP3    H175706   1.535   2.293   0.702 -0.1905  1.5897  0.0779
18097TIP3    H275707   1.605   2.367   0.590  1.3677  0.8229  0.5060
18098TIP3   OH275708   5.033   1.291   2.985 -0.4139  0.2436 -0.4029
18098TIP3    H175709   5.059   1.206   2.949  0.4788  0.7501 -0.9757
18098TIP3    H275710   5.046   1.282   3.080 -0.1399 -0.1952 -0.4801
18099TIP3   OH275711   5.672   3.523   3.543  0.0363  0.2961  0.2635
18099TIP3    H175712   5.593   3.468   3.550  0.0293  0.3538  0.6277
18099TIP3    H275713   5.638   3.612   3.539  0.1234  0.3922  1.4528
18100TIP3   OH275714   4.515   5.242  13.041  0.3534 -0.0478 -0.2582
18100TIP3    H175715   4.542   5.329  13.012 -0.6100  0.5368  0.5127
18100TIP3    H275716   4.595   5.201  13.074  0.6011  1.0374  0.5467
18101TIP3   OH275717   5.160   6.267  14.253 -0.4347  0.2148 -0.2189
18101TIP3    H175718   5.174   6.295  14.344  1.0643 -0.0269 -0.3513
18101TIP3    H275719   5.235   6.303  14.205 -1.6553  1.1166 -1.5602
18102TIP3   OH275720   5.966   1.712   3.401  0.3837 -0.5989  0.3042
18102TIP3    H175721   5.923   1.651   3.341 -0.3588 -2.3541  2.4685
18102TIP3    H275722   5.902   1.781   3.416  0.7365  0.0900 -1.1807
18103TIP3   OH275723   5.084   6.435  14.820 -0.0813  0.0839 -0.1480
18103TIP3    H175724   5.099   6.353  14.774  2.3149  0.5661 -0.3685
18103TIP3    H275725   5.040   6.410  14.901 -0.4961 -1.2427 -0.7498
18104TIP3   OH275726   1.711   3.557   0.800  0.1283 -0.4649 -0.5744
18104TIP3    H175727   1.794   3.572   0.755  0.2916  0.1923 -0.0663
18104TIP3    H275728   1.736   3.505   0.877 -0.0545 -0.9821 -0.8571
18105TIP3   OH275729   0.075   0.462   0.040 -0.0444  0.5259 -0.3690
18105TIP3    H175730   0.129   0.510  -0.023  0.7461  0.9791  0.6257
18105TIP3    H275731   0.119   0.474   0.124  0.0696 -1.7451 -0.0265
18106TIP3   OH275732   2.485   1.074   0.198  0.4884  0.1802  0.1121
18106TIP3    H175733   2.453   1.103   0.284 -0.5489  0.7124 -0.4382
18106TIP3    H275734   2.427   1.003   0.174  1.3910 -0.6246  0.2725
18107TIP3   OH275735   4.342   1.696  13.309  0.1989 -0.4367  0.4221
18107TIP3    H175736   4.300   1.734  13.386  1.6478 -0.0560  1.0562
18107TIP3    H275737   4.315   1.604  13.309 -1.8100  0.1243 -0.0467
18108TIP3   OH275738   2.982   1.177   4.054  0.2916  0.4337 -0.0735
18108TIP3    H175739   3.007   1.084   4.060  0.5147  0.4971 -0.0021
18108TIP3    H275740   3.025   1.218   4.129  1.2336  0.8218 -0.8110
18109TIP3   OH275741   4.974   4.049   1.679  0.9511  0.2999 -0.1281
18109TIP3    H175742   5.000   4.017   1.765 -0.1036  0.2936  0.2117
18109TIP3    H275743   4.911   4.119   1.697  1.1717  0.7042 -0.8860
18110TIP3   OH275744   0.381   0.870  12.747 -0.3080  0.4963  0.3222
18110TIP3    H175745   0.325   0.885  12.823  1.4633  0.7298  1.6584
18110TIP3    H275746   0.384   0.954  12.701 -2.0993  0.1183 -0.5592
18111TIP3   OH275747   5.989   6.497   4.818  0.1613 -0.1756  0.8283
18111TIP3    H175748   6.064   6.448   4.783  1.6939  2.7834 -0.3313
18111TIP3    H275749   5.989   6.476   4.911  1.8634 -0.9582  0.6954
18112TIP3   OH275750   2.182   0.065   3.072  0.6138  0.5004  0.4577
18112TIP3    H175751   2.133  -0.013   3.098  0.0989  0.3950 -0.7497
18112TIP3    H275752   2.261   0.062   3.126  0.0836 -0.2375  1.2382
18113TIP3   OH275753   0.690   4.712   0.375  0.4896 -0.0287 -0.2230
18113TIP3    H175754   0.718   4.784   0.318  1.2488 -0.5231 -0.4827
18113TIP3    H275755   0.755   4.710   0.445  1.3414 -1.4202 -1.0255
18114TIP3   OH275756   5.440   5.784   5.181  0.7211  0.4602  0.0868
18114TIP3    H175757   5.452   5.697   5.221 -0.1159 -0.3584 -1.3523
18114TIP3    H275758   5.432   5.766   5.087 -2.2200  1.7695 -0.0249
18115TIP3   OH275759   0.564   1.707  13.259  0.3798  0.5513 -0.1601
18115TIP3    H175760   0.524   1.706  13.346  2.0503 -2.7117  0.7428
18115TIP3    H275761   0.658   1.694  13.276  1.0129  1.7202 -2.4062
18116TIP3   OH275762   0.325   0.914  13.920  0.5983  0.2993  0.4411
18116TIP3    H175763   0.325   0.818  13.928  2.3457  0.2761  0.6225
18116TIP3    H275764   0.384   0.943  13.990  0.2220  1.4969  0.2746
18117TIP3   OH275765   3.128   6.756  12.318  0.0967 -0.7181  0.1249
18117TIP3    H175766   3.165   6.681  12.272  0.5371 -1.7314  2.0070
18117TIP3    H275767   3.122   6.727  12.409 -2.1958  0.6155  0.4780
18118TIP3   OH275768   1.187   5.112   4.229  0.1722 -0.1841  0.5049
18118TIP3    H175769   1.105   5.146   4.264  0.7676  1.6337  0.2389
18118TIP3    H275770   1.243   5.189   4.222  1.0452 -0.9661 -1.7151
18119TIP3   OH275771   2.568   5.651   2.471  0.7914  0.0902 -0.2949
18119TIP3    H175772   2.635   5.714   2.501  1.2886  0.0826 -1.3589
18119TIP3    H275773   2.617   5.570   2.456  1.0298  0.6664 -3.2368
18120TIP3   OH275774   0.518   0.368   3.846 -0.3958  0.1461  0.4380
18120TIP3    H175775   0.442   0.424   3.833 -1.1655 -0.8385  0.5170
18120TIP3    H275776   0.506   0.331   3.934 -0.1843 -0.5231  0.1941
18121TIP3   OH275777   1.640   5.004  16.178  0.0357 -0.8830  0.1759
18121TIP3    H175778   1.621   4.913  16.201 -1.2728 -0.6420  0.1695
18121TIP3    H275779   1.686   4.999  16.095  1.1342 -1.5819  0.7930
18122TIP3   OH275780   0.409   0.179   3.171  0.1150  0.8091 -0.8217
18122TIP3    H175781   0.343   0.158   3.105  0.3630  0.6057 -1.0074
18122TIP3    H275782   0.364   0.238   3.232  0.1036  1.6424 -1.6052
18123TIP3   OH275783   3.171   4.965  16.810  0.6424  0.2618  0.0121
18123TIP3    H175784   3.177   5.019  16.889  1.3228 -0.1896  0.2712
18123TIP3    H275785   3.109   4.895  16.833 -0.3638  0.9896 -0.3741
18124TIP3   OH275786   2.681   4.422  12.947  0.6587 -0.6323 -0.3787
18124TIP3    H175787   2.604   4.440  13.000  0.3822 -0.8532 -0.7002
18124TIP3    H275788   2.654   4.443  12.857  1.0265 -0.5462 -0.4721
18125TIP3   OH275789   0.900   5.082  11.420  0.1095 -0.6498  0.3221
18125TIP3    H175790   0.864   5.169  11.403  1.8578 -0.2204 -1.5528
18125TIP3    H275791   0.892   5.036  11.336  0.5058 -1.8256  0.8993
18126TIP3   OH275792   6.263   4.065   1.138  0.3363  0.1431  0.3870
18126TIP3    H175793   6.225   4.008   1.205  2.2079  0.3012  1.6574
18126TIP3    H275794   6.239   4.154   1.166  0.2997  0.1635  0.2931
18127TIP3   OH275795   6.153   4.657   0.302 -0.0446 -0.9651 -0.5188
18127TIP3    H175796   6.138   4.731   0.243  0.1373  0.6184  1.3058
18127TIP3    H275797   6.070   4.610   0.305 -0.4559 -0.2797 -0.9903
18128TIP3   OH275798   6.083   1.820   4.203  0.3010  0.2154  0.0269
18128TIP3    H175799   6.146   1.830   4.274  0.8537 -1.2453 -0.2242
18128TIP3    H275800   6.013   1.767   4.240  1.9177 -3.0872 -1.1752
18129TIP3   OH275801   1.226   0.053   4.680  0.0139  0.6460 -0.2080
18129TIP3    H175802   1.293   0.009   4.733 -1.1452 -0.4841  0.3752
18129TIP3    H275803   1.215   0.139   4.722  0.5646  0.5579  0.1302
18130TIP3   OH275804   3.363   6.301   4.089 -0.2789 -0.9350 -0.2426
18130TIP3    H175805   3.362   6.389   4.125  0.0926 -0.8258 -0.4933
18130TIP3    H275806   3.270   6.279   4.077 -0.3744  0.2943 -2.2853
18131TIP3   OH275807   5.803   3.021   6.509  0.1007 -1.0395  0.6840
18131TIP3    H175808   5.763   2.972   6.437  0.2780  0.4604 -0.4737
18131TIP3    H275809   5.890   2.984   6.518  1.3718  0.8939 -2.1967
18132TIP3   OH275810   3.462   0.978  14.042 -0.7776 -0.3311 -0.0175
18132TIP3    H175811   3.434   1.064  14.011 -2.0947 -0.5072  0.5698
18132TIP3    H275812   3.394   0.953  14.105  0.1699 -1.3189  0.6542
18133TIP3   OH275813   5.234   2.854  11.902 -0.3333 -0.0939  0.5614
18133TIP3    H175814   5.143   2.837  11.879 -0.3302  1.3537 -0.7433
18133TIP3    H275815   5.284   2.824  11.825 -0.0021  1.8560 -0.0270
18134TIP3   OH275816   6.744   1.879  14.698 -0.1294  0.4827 -0.2296
18134TIP3    H175817   6.750   1.788  14.729 -3.1480 -0.0912 -0.9607
18134TIP3    H275818   6.771   1.875  14.607  1.3795  0.6927  0.1845
18135TIP3   OH275819   3.612   1.350   1.963 -0.4902  0.1354 -0.6721
18135TIP3    H175820   3.653   1.348   1.876 -0.7601 -0.9860 -0.8027
18135TIP3    H275821   3.528   1.395   1.949  0.0999  1.2549 -0.6785
18136TIP3   OH275822   0.703   0.464   3.391  0.1690  0.2227 -0.5037
18136TIP3    H175823   0.768   0.535   3.390 -1.5212  1.9274 -3.4184
18136TIP3    H275824   0.635   0.495   3.451 -1.5333  2.2550 -3.2316
18137TIP3   OH275825   1.440   5.254   3.212  0.0844 -0.5705  0.3474
18137TIP3    H175826   1.470   5.172   3.252 -1.4330 -1.0370  0.5810
18137TIP3    H275827   1.515   5.284   3.161  0.9270 -1.7025  0.8720
18138TIP3   OH275828   5.096   3.360  17.032  0.4584 -0.5165  0.9502
18138TIP3    H175829   5.067   3.423  17.098  0.3018 -0.4796  0.8466
18138TIP3    H275830   5.050   3.279  17.054  0.9437 -0.7005  1.3081
18139TIP3   OH275831   0.385   3.702  17.024  0.0165 -0.2829 -0.0867
18139TIP3    H175832   0.452   3.767  17.005  0.3095 -1.4542 -3.8753
18139TIP3    H275833   0.304   3.740  16.991 -0.5452 -0.3503  1.1563
18140TIP3   OH275834   0.443   4.403  14.953  0.6412  0.2556  0.0597
18140TIP3    H175835   0.362   4.389  14.903  0.0450 -2.6276  1.5966
18140TIP3    H275836   0.507   4.345  14.911  0.0699 -2.4063  2.5116
18141TIP3   OH275837   6.589   0.803  11.033 -0.0755  0.4338 -0.5319
18141TIP3    H175838   6.595   0.897  11.014  0.0974  0.5060 -0.1334
18141TIP3    H275839   6.573   0.762  10.948 -0.1079  0.8207 -0.7143
18142TIP3   OH275840   2.435   0.816  12.880 -0.1030 -0.3439  0.2737
18142TIP3    H175841   2.352   0.820  12.929 -0.4979 -1.4652 -0.2544
18142TIP3    H275842   2.408   0.809  12.789  0.6063  0.4016  0.0021
18143TIP3   OH275843   1.542   1.453   2.506  0.3523  0.3964 -0.1553
18143TIP3    H175844   1.528   1.425   2.416  0.6270  0.7045 -0.2996
18143TIP3    H275845   1.455   1.462   2.543  0.2581 -1.6610  0.2310
18144TIP3   OH275846   1.604   5.547   5.179 -0.2588 -0.3510  0.6622
18144TIP3    H175847   1.558   5.556   5.096  1.0169  1.1970  0.0749
18144TIP3    H275848   1.653   5.465   5.170  2.3017  1.2246 -1.4823
18145TIP3   OH275849   1.946   3.011  12.797 -0.1780 -0.1546 -0.5584
18145TIP3    H175850   2.022   2.956  12.778 -0.9297 -0.8092 -1.7843
18145TIP3    H275851   1.955   3.032  12.890  0.2631 -2.1552 -0.1002
18146TIP3   OH275852   3.309   3.137  12.420 -0.4465  0.0673  0.2939
18146TIP3    H175853   3.378   3.201  12.435 -0.1650  0.2322 -1.5017
18146TIP3    H275854   3.268   3.164  12.338  1.2178 -3.2878 -1.8744
18147TIP3   OH275855   2.768   5.256   1.604 -0.0450 -0.4466 -0.5605
18147TIP3    H175856   2.697   5.299   1.652 -0.2298 -0.0067 -1.2107
18147TIP3    H275857   2.725   5.220   1.526  0.4143 -0.3500 -0.8619
18148TIP3   OH275858   0.231   2.859   2.569  0.0927 -0.4551 -0.3229
18148TIP3    H175859   0.244   2.780   2.621  2.7535 -0.0846 -0.2607
18148TIP3    H275860   0.187   2.920   2.628 -0.7483 -1.4019  0.0630
18149TIP3   OH275861   5.321   0.881  13.355  0.2463  0.7329  0.4953
18149TIP3    H175862   5.376   0.812  13.390 -1.7045 -1.1143  0.1741
18149TIP3    H275863   5.359   0.962  13.387  1.2031 -0.6106  2.9871
18150TIP3   OH275864   2.099   5.492   5.667  0.1935 -0.2344 -0.1435
18150TIP3    H175865   2.006   5.475   5.684  0.0361  0.2577 -0.5035
18150TIP3    H275866   2.109   5.474   5.573  0.8695 -2.1050  0.2331
18151TIP3   OH275867   5.750   4.733  14.740  0.4935 -0.5857 -0.1571
18151TIP3    H175868   5.702   4.666  14.690 -0.8672 -0.1564  0.5203
18151TIP3    H275869   5.841   4.721  14.714 -0.1901  0.0499 -3.2857
18152TIP3   OH275870   3.689   3.953  12.575  0.0440  0.3792 -0.3281
18152TIP3    H175871   3.679   3.875  12.629  0.8879  1.1222  0.9804
18152TIP3    H275872   3.780   3.951  12.546  0.0225  0.7742 -0.4297
18153TIP3   OH275873   5.658   5.308  15.577  0.1901  0.1085  0.0846
18153TIP3    H175874   5.583   5.265  15.536  0.8520 -1.0074  0.0226
18153TIP3    H275875   5.718   5.326  15.506  1.1466 -1.4365  0.4596
18154TIP3   OH275876   4.527   1.267  15.966  0.1966  0.0052  0.4949
18154TIP3    H175877   4.452   1.247  15.910  0.2219 -0.0746  0.4903
18154TIP3    H275878   4.598   1.211  15.934  0.2929  0.1694  0.4219
18155TIP3   OH275879   5.765   2.007  15.590  0.4121  0.0091  0.2850
18155TIP3    H175880   5.773   1.948  15.516 -3.0409  2.7706 -2.6776
18155TIP3    H275881   5.842   2.064  15.584  0.5414 -0.2641 -0.7913
18156TIP3   OH275882   5.986   4.329  14.732 -0.1704 -0.1195 -0.3353
18156TIP3    H175883   6.035   4.284  14.801 -0.9023  0.0129  0.2884
18156TIP3    H275884   6.022   4.418  14.731 -1.4036  0.4248  1.1666
18157TIP3   OH275885   0.158   1.274  16.464 -0.5233 -0.2236  0.3003
18157TIP3    H175886   0.126   1.348  16.514 -1.1137  0.0801 -0.5059
18157TIP3    H275887   0.247   1.300  16.437 -0.7523  0.2221 -0.0351
18158TIP3   OH275888   0.079   1.656  10.870  0.1262 -0.0434  0.9874
18158TIP3    H175889  -0.011   1.624  10.871  0.7492 -2.0730 -0.3821
18158TIP3    H275890   0.127   1.589  10.822  1.9389  2.1276 -0.4609
18159TIP3   OH275891   0.846   5.112   0.532 -0.1850  0.1170 -0.2422
18159TIP3    H175892   0.904   5.040   0.553 -0.2890  0.0598 -0.1480
18159TIP3    H275893   0.761   5.071   0.518 -0.1868  0.1907 -0.4520
18160TIP3   OH275894   6.058   0.933   4.094  0.0147  0.4055 -0.0787
18160TIP3    H175895   5.987   0.946   4.031  0.3803 -0.8766 -0.7909
18160TIP3    H275896   6.026   0.864   4.151 -0.2571  1.4630  1.0988
18161TIP3   OH275897   6.117   4.813   4.804  0.0425  0.5361  0.2512
18161TIP3    H175898   6.185   4.838   4.867  0.6302  0.2456 -0.2627
18161TIP3    H275899   6.153   4.834   4.718 -0.6197  0.6092 -0.0211
18162TIP3   OH275900   1.212   5.864   0.459  0.3780  0.3816 -0.1088
18162TIP3    H175901   1.185   5.773   0.470 -1.8284  0.8700 -1.0843
18162TIP3    H275902   1.221   5.875   0.364  5.1374  0.0579  0.0183
18163TIP3   OH275903   2.532   0.363  12.197  0.5026  0.5872 -0.2216
18163TIP3    H175904   2.589   0.286  12.191 -0.9458 -0.5084 -0.4949
18163TIP3    H275905   2.444   0.329  12.177 -0.8466  1.5079  3.4210
18164TIP3   OH275906   3.943   1.856  13.925 -0.4004  0.0268  0.4488
18164TIP3    H175907   3.902   1.791  13.982  1.0646 -0.3317  1.1565
18164TIP3    H275908   3.974   1.924  13.985 -0.6118  0.6391 -0.1326
18165TIP3   OH275909   1.632   3.454   2.732  0.3069 -0.1780  0.4364
18165TIP3    H175910   1.690   3.454   2.809  0.2275 -0.1124  0.4956
18165TIP3    H275911   1.550   3.490   2.764  0.3303  0.0165  0.2774
18166TIP3   OH275912   6.474   0.526  17.116  0.2037 -0.2339  0.1933
18166TIP3    H175913   6.403   0.501  17.175 -1.4427  1.6074 -0.9014
18166TIP3    H275914   6.499   0.614  17.144 -0.7568  0.7772 -1.8780
18167TIP3   OH275915   6.364   2.569  11.541  0.2014  0.2498 -0.2480
18167TIP3    H175916   6.330   2.657  11.556  1.0409  0.7306 -1.0433
18167TIP3    H275917   6.445   2.565  11.592 -0.3083 -0.4083  0.5417
18168TIP3   OH275918   6.741   3.104  11.176  0.0000  0.0733 -0.0861
18168TIP3    H175919   6.761   3.141  11.090 -1.1195  1.5639  0.2464
18168TIP3    H275920   6.821   3.059  11.202  0.6614  0.3616 -1.5071
18169TIP3   OH275921   2.570   6.033  12.506 -0.2133  0.3693  0.6249
18169TIP3    H175922   2.492   6.048  12.560  0.1778  0.5998  1.1384
18169TIP3    H275923   2.545   5.963  12.447 -0.6243  0.0280  1.1883
18170TIP3   OH275924   4.431   4.214  15.418  0.5359 -0.3147 -0.1471
18170TIP3    H175925   4.463   4.126  15.436  0.6083 -0.2863 -0.1341
18170TIP3    H275926   4.491   4.249  15.353  1.3040  0.1998  0.8026
18171TIP3   OH275927   4.585   2.435   3.322  0.6889 -0.4302 -0.0598
18171TIP3    H175928   4.615   2.493   3.252 -1.9229  0.2021 -0.7397
18171TIP3    H275929   4.581   2.491   3.400 -0.3818 -0.0649 -0.3705
18172TIP3   OH275930   5.966   0.155  15.963 -0.1824 -0.1692  0.3578
18172TIP3    H175931   5.954   0.091  15.893 -3.5813  0.5293  0.0864
18172TIP3    H275932   5.959   0.240  15.919  1.3724  0.3646  1.0902
18173TIP3   OH275933   3.043   4.124  10.557  0.0938 -0.7417  0.5406
18173TIP3    H175934   2.964   4.073  10.576 -2.1362  0.9277 -3.1368
18173TIP3    H275935   3.097   4.067  10.503  0.1660 -0.9603  0.8383
18174TIP3   OH275936   0.223   3.287  13.734 -0.1751  0.3694  0.2506
18174TIP3    H175937   0.234   3.228  13.660 -0.1147  1.1186 -0.3484
18174TIP3    H275938   0.311   3.315  13.756 -0.1861  0.0872  0.6612
18175TIP3   OH275939   1.191   1.827   0.545 -0.2806 -0.1219 -0.6455
18175TIP3    H175940   1.140   1.750   0.518  0.0325 -1.0165  1.1316
18175TIP3    H275941   1.279   1.792   0.561 -0.1036  0.6265  0.0528
18176TIP3   OH275942   1.726   4.501  16.547 -0.1293 -0.7155 -0.2966
18176TIP3    H175943   1.749   4.465  16.462 -0.1668 -2.0859  0.2389
18176TIP3    H275944   1.793   4.566  16.566 -0.0770 -0.4662 -1.3296
18177TIP3   OH275945   0.332   5.814   4.617  0.1628 -0.1322  0.5976
18177TIP3    H175946   0.371   5.749   4.676  0.6473 -0.0205  0.4043
18177TIP3    H275947   0.279   5.762   4.557  1.5522 -0.5054 -0.3654
18178TIP3   OH275948   4.554   5.129   5.221  0.4088  0.2390 -0.3762
18178TIP3    H175949   4.503   5.200   5.259  0.6976  0.1076  0.2716
18178TIP3    H275950   4.520   5.049   5.262  0.8361  0.1095 -0.2651
18179TIP3   OH275951   0.509   1.844   4.471  0.7207  0.4965 -0.5385
18179TIP3    H175952   0.590   1.819   4.515  0.8502  0.5502 -0.7463
18179TIP3    H275953   0.496   1.936   4.494  1.0808  0.6810 -1.0591
18180TIP3   OH275954   6.390   4.947   0.358  0.2449 -0.1200  0.1518
18180TIP3    H175955   6.463   4.955   0.296  0.4554 -1.6553  0.1519
18180TIP3    H275956   6.357   5.036   0.369 -0.5028  0.1181 -3.0345
18181TIP3   OH275957   2.472   6.079  16.244  0.6245 -0.1534 -0.6810
18181TIP3    H175958   2.553   6.086  16.294 -0.9576  2.9112  1.8548
18181TIP3    H275959   2.490   6.126  16.163  1.1450  1.6133  0.3885
18182TIP3   OH275960   2.412   5.875   3.604  0.4940 -0.2966 -0.1385
18182TIP3    H175961   2.435   5.927   3.526  1.3328 -2.1593 -1.1843
18182TIP3    H275962   2.320   5.854   3.592  0.3416  0.3144 -0.0794
18183TIP3   OH275963   1.038   2.224   0.090  0.2779  0.1171 -0.1628
18183TIP3    H175964   1.075   2.165   0.155  0.7033  2.1333  1.5394
18183TIP3    H275965   0.946   2.232   0.116  0.2676  0.3343 -0.2683
18184TIP3   OH275966   6.137   3.179   5.208 -0.1044  0.4943 -0.3950
18184TIP3    H175967   6.184   3.220   5.136 -0.7554  1.8269 -0.0914
18184TIP3    H275968   6.078   3.116   5.166  0.8574 -0.1119 -0.8701
18185TIP3   OH275969   6.725   0.535  16.064  0.3865 -0.3412  0.4990
18185TIP3    H175970   6.785   0.477  16.016 -0.7389 -0.3734 -0.9378
18185TIP3    H275971   6.754   0.623  16.041  2.2720 -0.2264  2.8994
18186TIP3   OH275972   2.966   0.118  14.776 -0.3427  0.5252  0.2864
18186TIP3    H175973   2.988   0.204  14.740  0.6272  0.1750 -0.0033
18186TIP3    H275974   2.890   0.133  14.831 -1.0856  1.3076 -0.9088
18187TIP3   OH275975   2.505   5.293  14.265 -0.8040  0.0480 -0.3004
18187TIP3    H175976   2.435   5.355  14.284 -0.8607  0.6733 -2.3195
18187TIP3    H275977   2.462   5.224  14.214 -0.2001 -0.2349 -0.4312
18188TIP3   OH275978   1.944   0.879   5.334 -0.5233 -0.0559  0.0009
18188TIP3    H175979   2.013   0.813   5.344 -0.9721 -0.4355  0.6539
18188TIP3    H275980   1.888   0.867   5.411 -0.2002  1.5905  0.5312
18189TIP3   OH275981   4.145   6.422   4.903 -0.4991  0.4568 -0.6672
18189TIP3    H175982   4.082   6.354   4.880  0.9687 -0.3573 -2.4686
18189TIP3    H275983   4.211   6.377   4.955 -0.3223  0.8491 -0.5507
18190TIP3   OH275984   0.534   5.724   3.241  0.2229 -0.0935  0.1932
18190TIP3    H175985   0.567   5.813   3.236  0.9317 -0.2095  1.8428
18190TIP3    H275986   0.610   5.669   3.221  0.2419 -0.3279  0.8687
18191TIP3   OH275987   6.547   5.458  14.967 -0.2133  0.0945 -0.3347
18191TIP3    H175988   6.546   5.519  14.893  1.2661 -1.0264 -1.3153
18191TIP3    H275989   6.548   5.371  14.928  1.1555 -0.5288  0.9814
18192TIP3   OH275990   0.516   1.334  17.066 -0.0977  0.0039 -0.5688
18192TIP3    H175991   0.575   1.372  17.131  0.8647 -0.0095 -1.4164
18192TIP3    H275992   0.429   1.348  17.103  0.4549 -0.9970  1.2533
18193TIP3   OH275993   4.005   1.355   4.356 -0.1642 -0.3603 -0.0270
18193TIP3    H175994   3.919   1.394   4.371 -0.2811 -0.1531 -1.1380
18193TIP3    H275995   4.057   1.380   4.433 -0.7496  0.5096  0.0976
18194TIP3   OH275996   4.553   3.086  13.789 -0.0695 -0.8422 -0.4334
18194TIP3    H175997   4.489   3.016  13.801 -1.4425  0.3269 -0.6184
18194TIP3    H275998   4.562   3.125  13.876  0.1069 -0.7519 -0.4911
18195TIP3   OH275999   1.989   1.420  14.830  0.3135  0.5846 -0.2219
18195TIP3    H176000   1.970   1.463  14.914 -2.4581  0.7956 -0.8547
18195TIP3    H276001   1.916   1.445  14.773 -0.1453 -2.8752 -1.4233
18196TIP3   OH276002   4.230   3.369   0.002 -0.2493  0.1765  0.1054
18196TIP3    H176003   4.292   3.306   0.040 -0.5034 -0.7612 -0.9716
18196TIP3    H276004   4.230   3.442   0.063  2.1638  0.3499  0.0172
18197TIP3   OH276005   2.398   4.984   2.054 -0.2822  0.4309  0.4247
18197TIP3    H176006   2.317   4.979   2.105 -1.1190 -0.2578 -0.9192
18197TIP3    H276007   2.438   4.898   2.064 -1.0398 -0.1123 -0.9731
18198TIP3   OH276008   6.149   0.661   4.728  0.2104 -0.1150  0.1373
18198TIP3    H176009   6.180   0.580   4.688 -0.6856 -0.4121  0.0150
18198TIP3    H276010   6.103   0.632   4.807 -1.1959  0.1384 -0.5509
18199TIP3   OH276011   5.476   0.076   0.167 -0.2778 -0.2687 -0.3016
18199TIP3    H176012   5.403   0.036   0.120 -0.9996  0.2482  0.3402
18199TIP3    H276013   5.509   0.006   0.224  0.5165 -0.8546 -1.4580
18200TIP3   OH276014   6.260   0.123   1.334 -0.7990  0.1507 -0.2323
18200TIP3    H176015   6.231   0.213   1.352 -1.3252  0.6196 -3.0033
18200TIP3    H276016   6.354   0.125   1.353 -0.6385  1.5638 -1.0035
18201TIP3   OH276017   0.655   0.548  15.415  0.2517 -0.3434 -0.2629
18201TIP3    H176018   0.621   0.549  15.326 -0.9406  1.8971  0.1516
18201TIP3    H276019   0.721   0.479  15.415  0.9474  0.2105 -3.1433
18202TIP3   OH276020   2.782   1.438   2.435 -0.2019  0.7716 -0.1015
18202TIP3    H176021   2.715   1.378   2.468 -0.8037  1.3371 -0.2803
18202TIP3    H276022   2.737   1.522   2.424  0.9354  1.6882  1.5628
18203TIP3   OH276023   2.808   6.262   5.691  0.3294  0.6227 -0.3189
18203TIP3    H176024   2.784   6.252   5.783  1.0100  0.4859 -0.1512
18203TIP3    H276025   2.768   6.345   5.665 -0.7820  0.1432 -0.2108
18204TIP3   OH276026   2.353   2.084  14.767  0.7139 -1.1267  0.4369
18204TIP3    H176027   2.409   2.074  14.690 -1.3845 -1.1548 -1.1559
18204TIP3    H276028   2.318   1.997  14.783 -1.0351 -0.6132 -0.3541
18205TIP3   OH276029   0.572   1.173   5.367 -0.0642  0.2567 -0.1768
18205TIP3    H176030   0.664   1.153   5.380  0.1416  1.1653 -0.1720
18205TIP3    H276031   0.534   1.173   5.455  0.0217  0.2753 -0.1399
18206TIP3   OH276032   5.047   1.371   1.609  0.2301  0.3377 -0.2011
18206TIP3    H176033   4.972   1.355   1.665 -1.2093  0.6330 -1.9506
18206TIP3    H276034   5.114   1.309   1.640 -0.8696 -0.2363  1.1085
18207TIP3   OH276035   4.176   1.105  13.760 -0.2155  0.3516  0.6611
18207TIP3    H176036   4.110   1.107  13.829 -2.2509  3.9627 -1.0782
18207TIP3    H276037   4.206   1.196  13.753  2.5086 -0.5624 -0.8808
18208TIP3   OH276038   4.516   1.139   0.388 -0.0576 -0.2046 -0.1429
18208TIP3    H176039   4.492   1.232   0.379 -2.8872 -0.5620  2.2031
18208TIP3    H276040   4.584   1.139   0.456 -2.8275  0.0128  2.8308
18209TIP3   OH276041   5.923   3.645   1.922  0.0245  0.2419  0.2480
18209TIP3    H176042   5.962   3.675   1.839 -1.4126  0.3452 -0.4249
18209TIP3    H276043   5.910   3.551   1.910 -0.6015  0.3323  0.1599
18210TIP3   OH276044   4.283   4.936   4.649  0.1742 -0.0551 -0.3692
18210TIP3    H176045   4.373   4.932   4.617 -0.0586 -0.1667 -1.0231
18210TIP3    H276046   4.265   4.848   4.682  0.7329  0.3036  0.9942
18211TIP3   OH276047   4.644   1.821  13.381 -0.3490  0.6354  0.1512
18211TIP3    H176048   4.684   1.881  13.444 -1.9946 -0.8369  2.7935
18211TIP3    H276049   4.553   1.851  13.374 -0.7187 -0.4591  0.1125
18212TIP3   OH276050   5.600   5.262   1.893 -0.2359  0.2026  0.0530
18212TIP3    H176051   5.618   5.305   1.809 -0.9090  0.7728  0.1902
18212TIP3    H276052   5.652   5.310   1.957  0.5396 -0.4462 -0.0817
18213TIP3   OH276053   6.158   3.846   3.498 -0.1073 -0.5048  0.0023
18213TIP3    H176054   6.117   3.771   3.456  0.3691 -1.2068  0.7735
18213TIP3    H276055   6.169   3.820   3.589  0.0985  0.4886  0.2740
18214TIP3   OH276056   1.386   4.023  12.601 -0.1953 -0.7055 -0.4577
18214TIP3    H176057   1.321   4.075  12.648  0.0105  0.7194 -1.7054
18214TIP3    H276058   1.422   3.964  12.668 -1.9016 -0.6947  0.5111
18215TIP3   OH276059   2.819   5.025   1.143 -0.1000  0.1816 -0.7759
18215TIP3    H176060   2.881   5.097   1.135  1.2856 -0.5624  1.8758
18215TIP3    H276061   2.873   4.949   1.164 -1.7853 -0.6564  0.8969
18216TIP3   OH276062   6.619   3.906   3.907 -0.0649  0.1345 -0.3910
18216TIP3    H176063   6.590   3.821   3.940  0.5520 -0.3713 -1.1210
18216TIP3    H276064   6.689   3.933   3.966 -0.4856  0.2994  0.0378
18217TIP3   OH276065   6.755   5.200   0.719  0.0519 -0.3395  0.1972
18217TIP3    H176066   6.800   5.216   0.636  0.3897 -0.2877  0.3923
18217TIP3    H276067   6.781   5.273   0.775 -0.7219  0.0031  0.1260
18218TIP3   OH276068   2.893   0.441  12.069 -0.0189  0.3457  0.3154
18218TIP3    H176069   2.829   0.428  12.140 -0.9523  1.3020 -0.3287
18218TIP3    H276070   2.909   0.353  12.035  0.0965 -0.0739  1.4080
18219TIP3   OH276071   6.363   5.539   5.533 -0.3992 -0.1801 -0.4644
18219TIP3    H176072   6.431   5.493   5.483 -0.6224  0.4114 -1.3403
18219TIP3    H276073   6.341   5.614   5.478  0.4018  1.3548  1.2161
18220TIP3   OH276074   4.648   2.519  16.987  0.1361  0.4116 -0.0457
18220TIP3    H176075   4.574   2.510  17.048  0.2441  2.4006  0.4270
18220TIP3    H276076   4.650   2.435  16.940 -0.6574 -0.7587  1.8762
18221TIP3   OH276077   2.576   6.719   1.379  0.1077  0.2866  0.3539
18221TIP3    H176078   2.599   6.756   1.294 -0.3589 -0.9623 -0.3501
18221TIP3    H276079   2.481   6.709   1.375  0.2098 -0.8698  0.5429
18222TIP3   OH276080   2.903   6.638  16.979 -0.1414 -0.3108  0.4601
18222TIP3    H176081   2.994   6.616  16.962 -0.1187 -1.1306  1.5690
18222TIP3    H276082   2.871   6.569  17.037 -1.6185 -0.3261 -0.3076
18223TIP3   OH276083   5.359   1.472  16.878  0.6637 -0.0448 -0.2239
18223TIP3    H176084   5.343   1.415  16.953  1.3650  0.4924  0.3469
18223TIP3    H276085   5.452   1.495  16.884  1.0231 -0.8922 -1.9050
18224TIP3   OH276086   0.917   5.389  12.727 -0.2867  0.0531  0.3398
18224TIP3    H176087   0.967   5.347  12.657 -0.7594  3.3976 -2.2563
18224TIP3    H276088   0.978   5.451  12.767 -1.0246  0.8520  0.2749
18225TIP3   OH276089   1.871   2.311  14.007  0.0046  0.2455 -0.0238
18225TIP3    H176090   1.842   2.297  13.916  0.3475 -0.2877 -0.0552
18225TIP3    H276091   1.901   2.402  14.008  0.3634  0.1405 -0.5518
18226TIP3   OH276092   0.188   1.323   1.091  0.0338 -0.6013 -1.0620
18226TIP3    H176093   0.170   1.255   1.157  0.7760 -2.4252 -2.6314
18226TIP3    H276094   0.127   1.304   1.021 -0.3553  0.9566 -1.1585
18227TIP3   OH276095   3.753   4.107   5.675  0.2163  0.9022  0.2019
18227TIP3    H176096   3.725   4.111   5.767 -0.1323 -0.5742  0.1849
18227TIP3    H276097   3.695   4.168   5.630  1.0474  2.4239  1.0868
18228TIP3   OH276098   5.025   2.334   6.004 -0.4089  0.5556 -0.5081
18228TIP3    H176099   5.035   2.413   6.057 -2.3454  1.0316 -0.7817
18228TIP3    H276100   4.958   2.283   6.049 -0.6957  0.0678 -1.4687
18229TIP3   OH276101   6.259   2.895   3.743  0.2468  0.2926 -0.0046
18229TIP3    H176102   6.189   2.932   3.689  0.5309 -0.0834 -0.6469
18229TIP3    H276103   6.305   2.971   3.778 -0.5442  0.5421  0.5093
18230TIP3   OH276104   5.815   2.660   0.403  0.3953 -0.2701 -0.1940
18230TIP3    H176105   5.754   2.602   0.447 -1.3660  1.2540 -0.5128
18230TIP3    H276106   5.855   2.711   0.473  0.4367 -0.4764 -0.0689
18231TIP3   OH276107   2.072   2.130  11.469 -0.0820 -0.4330  0.0126
18231TIP3    H176108   2.167   2.120  11.474 -0.0757 -0.2677  0.2133
18231TIP3    H276109   2.053   2.211  11.516 -0.4831 -1.2552  1.2957
18232TIP3   OH276110   6.397   2.190   4.674 -0.0736 -0.0252 -0.6111
18232TIP3    H176111   6.371   2.282   4.674  0.4579  0.1757  1.1074
18232TIP3    H276112   6.403   2.166   4.582 -2.7748  0.8878 -1.1040
18233TIP3   OH276113   0.913   6.275  12.215 -0.2064 -0.6929 -0.4003
18233TIP3    H176114   0.919   6.352  12.272 -1.5504 -0.9952  0.1856
18233TIP3    H276115   0.866   6.210  12.267 -1.3918 -1.0169 -1.8082
18234TIP3   OH276116   3.395   1.773  16.859  0.2644 -0.3194  0.0907
18234TIP3    H176117   3.350   1.793  16.777  1.6439  0.1416 -0.5851
18234TIP3    H276118   3.453   1.700  16.838  1.7212  0.7483  0.2195
18235TIP3   OH276119   6.361   5.943  16.299  0.4002  0.2837 -0.0221
18235TIP3    H176120   6.281   5.993  16.284  0.3098 -0.2035 -1.3332
18235TIP3    H276121   6.418   6.003  16.346 -0.4781  0.8746  0.3163
18236TIP3   OH276122   4.125   2.723  14.509 -0.2686  0.6097  0.8043
18236TIP3    H176123   4.098   2.814  14.508 -0.8712  0.4689 -1.3810
18236TIP3    H276124   4.163   2.708  14.422  0.0110 -1.1665  1.1848
18237TIP3   OH276125   6.462   2.949  13.227 -0.9021  0.3089  0.0919
18237TIP3    H176126   6.537   2.988  13.184 -1.0625  0.2541 -0.2399
18237TIP3    H276127   6.499   2.886  13.289 -0.5887  1.6367  1.3200
18238TIP3   OH276128   1.081   1.131  15.680 -0.3846  0.2834 -0.0342
18238TIP3    H176129   1.117   1.065  15.621 -0.4685  0.3222 -0.1296
18238TIP3    H276130   0.991   1.103  15.696 -0.1092 -0.1874  0.7502
18239TIP3   OH276131   0.124   2.601   5.544  0.2677 -0.3089 -0.1050
18239TIP3    H176132   0.117   2.530   5.609 -2.6810 -0.3379 -0.3047
18239TIP3    H276133   0.080   2.566   5.467  0.4232  1.0785 -0.8414
18240TIP3   OH276134   6.191   3.524   3.481  0.7661  0.3399 -0.2137
18240TIP3    H176135   6.132   3.466   3.528  0.0776  2.0602  1.1632
18240TIP3    H276136   6.152   3.533   3.394 -0.1073  0.1804  0.1519
18241TIP3   OH276137   4.465   2.836  16.835 -0.6338  0.1434 -0.3167
18241TIP3    H176138   4.552   2.855  16.869 -1.3617  1.2484  1.0118
18241TIP3    H276139   4.467   2.742  16.815  0.4648 -0.1245  0.9121
18242TIP3   OH276140   3.255   1.123   0.916  0.6540  0.4304 -0.0794
18242TIP3    H176141   3.210   1.085   0.992 -2.9151  3.1997 -0.5605
18242TIP3    H276142   3.302   1.199   0.951  2.6201 -0.6863 -0.1072
18243TIP3   OH276143   3.863   2.822   5.015  0.0013 -0.7208  0.1007
18243TIP3    H176144   3.838   2.735   5.046 -1.4631 -0.4344 -0.2052
18243TIP3    H276145   3.833   2.882   5.084 -0.0833 -0.3664 -0.2389
18244TIP3   OH276146   5.349   1.531  13.223  0.0770  0.3257 -0.3963
18244TIP3    H176147   5.259   1.562  13.236  0.3398  0.6857  0.6772
18244TIP3    H276148   5.375   1.496  13.308  0.2730 -1.6728 -1.2247
18245TIP3   OH276149   0.092   1.971  16.774 -0.4255  0.1379  0.0744
18245TIP3    H176150   0.084   1.905  16.843  1.8363  0.2494  0.5290
18245TIP3    H276151   0.050   2.049  16.810 -0.1835 -0.1056  0.9042
18246TIP3   OH276152   5.150   4.181   1.514 -0.2459 -0.4674  0.1038
18246TIP3    H176153   5.237   4.159   1.547  0.3022 -1.4334 -1.8209
18246TIP3    H276154   5.089   4.148   1.580  0.7948 -2.1131  0.2858
18247TIP3   OH276155   6.468   5.022  14.823 -0.1144  0.3854  0.6716
18247TIP3    H176156   6.465   5.062  14.910 -0.3870  1.2109  0.2889
18247TIP3    H276157   6.421   4.939  14.833  1.9493 -0.7220  1.9120
18248TIP3   OH276158   2.797   2.489   5.379  0.4847 -0.1107 -0.2581
18248TIP3    H176159   2.802   2.432   5.302  0.0373  0.1421 -0.4789
18248TIP3    H276160   2.885   2.524   5.389  0.2236  0.9997 -1.5453
18249TIP3   OH276161   4.011   1.484  10.862  0.5132  0.1472  0.0384
18249TIP3    H176162   4.012   1.512  10.770 -0.4479 -0.1624 -0.0832
18249TIP3    H276163   4.029   1.390  10.858  2.7276  0.5144  0.3652
18250TIP3   OH276164   0.274   1.586   1.082  0.4388  0.0779  0.2991
18250TIP3    H176165   0.249   1.499   1.116 -0.1983  0.3766  0.6215
18250TIP3    H276166   0.320   1.567   1.000 -2.0237 -0.4980 -1.0678
18251TIP3   OH276167   0.456   1.172   1.488 -0.4229  0.5043 -0.0975
18251TIP3    H176168   0.433   1.249   1.436 -0.3266 -0.0918 -1.0552
18251TIP3    H276169   0.372   1.139   1.520 -0.7032 -0.2742 -1.5717
18252TIP3   OH276170   0.138   1.160   1.315 -0.2031  0.2051  0.3256
18252TIP3    H176171   0.149   1.128   1.404  0.3629 -0.9022 -0.1195
18252TIP3    H276172   0.105   1.084   1.266  3.6953 -0.6535 -1.3420
18253TIP3   OH276173   2.717   6.294  12.208 -0.0586  0.4431 -0.2854
18253TIP3    H176174   2.653   6.257  12.268  1.3296 -2.1337 -0.2343
18253TIP3    H276175   2.672   6.298  12.124 -0.1601 -2.0851 -0.4344
18254TIP3   OH276176   0.275   1.806   1.230  0.4908 -0.0007  0.1877
18254TIP3    H176177   0.289   1.716   1.200 -4.1882 -1.0803  0.4163
18254TIP3    H276178   0.283   1.802   1.325 -3.1201 -1.2176  0.5763
18255TIP3   OH276179   4.326   4.070   5.551 -0.1827 -0.0024  0.2454
18255TIP3    H176180   4.232   4.085   5.567  0.0577  1.1083  0.7112
18255TIP3    H276181   4.368   4.096   5.633  0.4364 -1.7899  0.5268
18256TIP3   OH276182   3.931   3.492  12.435 -0.1709 -0.6452  0.3472
18256TIP3    H176183   4.021   3.524  12.445 -0.4826  0.2929  0.3012
18256TIP3    H276184   3.929   3.409  12.483  0.7777 -0.7882  0.1543
18257TIP3   OH276185   4.979   4.765  16.550  1.0310 -0.3485  0.1704
18257TIP3    H176186   5.055   4.735  16.601  0.8033  1.9126  2.0168
18257TIP3    H276187   4.919   4.691  16.551  2.4232 -1.5157  0.3335
18258TIP3   OH276188   4.664   6.080   2.843  0.0613  0.1251 -0.2367
18258TIP3    H176189   4.729   6.049   2.780  0.8374 -0.1690  0.6840
18258TIP3    H276190   4.581   6.043   2.813  0.1765  1.0920 -1.8392
18259TIP3   OH276191   3.970   4.147  11.741 -0.3158  0.4958 -0.1679
18259TIP3    H176192   4.003   4.209  11.676 -1.4141 -0.2091 -1.4420
18259TIP3    H276193   4.047   4.124  11.793  0.0505  3.2329  0.6623
18260TIP3   OH276194   2.111   3.662   1.190  0.0517  0.0122  0.1348
18260TIP3    H176195   2.174   3.593   1.208  0.3023 -0.0442 -0.9319
18260TIP3    H276196   2.163   3.742   1.183 -0.1318  0.1593  0.4062
18261TIP3   OH276197   6.625   3.217   6.355 -0.1717  0.1051 -0.6389
18261TIP3    H176198   6.671   3.232   6.438 -0.8982 -1.1025  0.0122
18261TIP3    H276199   6.551   3.277   6.356  0.0199  0.3421 -0.5874
18262TIP3   OH276200   5.429   5.208  10.351 -0.0566 -0.1425  0.6192
18262TIP3    H176201   5.437   5.140  10.284  0.1185  0.7283 -0.2717
18262TIP3    H276202   5.352   5.182  10.402  0.0833 -1.0712  0.3786
18263TIP3   OH276203   3.407   5.293  10.843  0.1773 -0.8826  0.2881
18263TIP3    H176204   3.494   5.271  10.810  0.6904  0.4040  0.7314
18263TIP3    H276205   3.373   5.211  10.878  1.3351 -1.3286  0.4013
18264TIP3   OH276206   2.305   5.651   5.081 -0.2477 -0.4982  0.5531
18264TIP3    H176207   2.223   5.700   5.080  0.0289 -0.0378 -0.2905
18264TIP3    H276208   2.278   5.559   5.079 -0.7445 -0.3593  0.7762
18265TIP3   OH276209   6.693   3.119   1.562  0.7627 -0.4239 -0.3524
18265TIP3    H176210   6.623   3.054   1.554  0.8118 -0.7170  1.3873
18265TIP3    H276211   6.774   3.070   1.547  0.6560 -0.0888 -2.3449
18266TIP3   OH276212   5.150   5.263   0.949 -0.4063 -0.4376  0.1105
18266TIP3    H176213   5.238   5.300   0.942 -0.3780 -0.6240 -0.6265
18266TIP3    H276214   5.136   5.250   1.043  0.5264 -0.8484  0.1942
18267TIP3   OH276215   4.708   1.446   0.561  0.2147  0.2833 -0.3440
18267TIP3    H176216   4.794   1.449   0.519  0.4564  2.0528  0.1892
18267TIP3    H276217   4.713   1.371   0.619  1.4269  0.3702 -0.2981
18268TIP3   OH276218   0.089   3.754   2.916 -0.5880  0.3385  0.2564
18268TIP3    H176219   0.022   3.782   2.979 -0.0358 -0.0687  1.0440
18268TIP3    H276220   0.104   3.832   2.862 -0.9675  0.7483  0.7203
18269TIP3   OH276221   1.644   0.596   4.078 -0.3606  0.1425  0.0752
18269TIP3    H176222   1.686   0.632   4.156  0.7067  0.4315 -0.6092
18269TIP3    H276223   1.551   0.613   4.090 -0.2010  0.2365  1.2524
18270TIP3   OH276224   0.168   4.212  10.904  0.3602 -0.3314 -0.1646
18270TIP3    H176225   0.185   4.226  10.810  1.0592  0.4962  0.0703
18270TIP3    H276226   0.155   4.118  10.912  2.1869 -0.6739 -0.8110
18271TIP3   OH276227   4.594   1.526  14.445 -0.3114  0.2697 -0.2741
18271TIP3    H176228   4.575   1.553  14.355  0.0239  1.5708  0.0390
18271TIP3    H276229   4.668   1.465  14.436 -0.8903 -0.3447 -0.9588
18272TIP3   OH276230   3.595   6.512   5.754 -0.5991  0.4264 -0.3938
18272TIP3    H176231   3.558   6.592   5.792 -2.4574 -0.2047 -0.7752
18272TIP3    H276232   3.605   6.453   5.828  2.3240  1.4725  0.1803
18273TIP3   OH276233   0.129   2.965  15.913 -0.4635 -0.1466 -0.2131
18273TIP3    H176234   0.186   3.039  15.893 -1.4621  0.1993 -2.0128
18273TIP3    H276235   0.044   3.005  15.932 -0.4843 -0.7287  0.9637
18274TIP3   OH276236   2.588   1.663  14.862  0.2323  0.6522  0.6707
18274TIP3    H176237   2.498   1.631  14.873 -0.0133  1.4526  1.0666
18274TIP3    H276238   2.603   1.661  14.768 -0.0260  0.0544  0.6368
18275TIP3   OH276239   0.931   2.751  16.946 -0.6698 -0.0107 -0.0250
18275TIP3    H176240   0.892   2.818  17.002 -2.8705 -1.0607 -0.2038
18275TIP3    H276241   1.014   2.729  16.989 -0.1267  2.4348  0.2890
18276TIP3   OH276242   1.683   1.481   4.341 -0.0963 -0.0951  0.2430
18276TIP3    H176243   1.727   1.409   4.386  0.0198  0.0279  0.3261
18276TIP3    H276244   1.621   1.438   4.281  0.6282 -0.2786 -0.3860
18277TIP3   OH276245   4.014   4.376   3.177  0.1951  0.2335  0.0273
18277TIP3    H176246   4.005   4.283   3.155 -0.2375  0.5062 -1.0592
18277TIP3    H276247   4.103   4.399   3.150 -0.6076  0.7758 -2.4939
18278TIP3   OH276248   1.815   1.697   1.244  0.0672  0.0546 -0.0148
18278TIP3    H176249   1.890   1.754   1.230  0.2518 -0.0693  0.4404
18278TIP3    H276250   1.805   1.649   1.162 -0.0415  0.6780 -0.3726
18279TIP3   OH276251   6.348   2.259  15.114 -0.2216 -0.4687 -0.1869
18279TIP3    H176252   6.336   2.292  15.203 -1.0729 -0.7918 -0.1671
18279TIP3    H276253   6.293   2.181  15.111  1.0324 -1.3709 -0.5154
18280TIP3   OH276254   1.969   6.648  11.482 -0.6573 -0.0426  0.3302
18280TIP3    H176255   2.041   6.684  11.430 -0.0543 -1.6583 -0.0206
18280TIP3    H276256   1.975   6.693  11.566 -0.8866  1.7376 -0.5750
18281TIP3   OH276257   5.341   2.146   4.085  0.0061  0.7116  0.6126
18281TIP3    H176258   5.349   2.105   4.171 -1.0333 -1.0537 -0.0669
18281TIP3    H276259   5.252   2.124   4.056  0.3838  1.1301 -0.9698
18282TIP3   OH276260   2.940   6.135   0.011 -0.2858 -0.0013  0.0846
18282TIP3    H176261   2.868   6.164  -0.046 -0.7946 -0.9888  0.1973
18282TIP3    H276262   3.015   6.189  -0.015 -0.9567  0.7561 -0.3255
18283TIP3   OH276263   4.732   6.732  14.493  0.5168  0.1878  0.0623
18283TIP3    H176264   4.763   6.658  14.545  2.7987 -0.6942 -2.3493
18283TIP3    H276265   4.686   6.787  14.556 -0.0887 -2.5502  2.2403
18284TIP3   OH276266   2.439   6.736   3.577  0.6109 -0.5057  0.4814
18284TIP3    H176267   2.523   6.717   3.536  0.0285 -0.2049 -0.9032
18284TIP3    H276268   2.393   6.791   3.514 -1.2482 -1.9406  0.4985
18285TIP3   OH276269   3.891   0.489   5.895 -0.0025  0.2817 -1.0243
18285TIP3    H176270   3.827   0.423   5.870 -0.7118  0.4313  0.3338
18285TIP3    H276271   3.976   0.449   5.875 -0.4690 -0.0129 -2.6037
18286TIP3   OH276272   5.937   0.604   1.737  0.1869  0.3322  0.4122
18286TIP3    H176273   5.844   0.623   1.724  0.1919  0.4187  0.5036
18286TIP3    H276274   5.941   0.564   1.824 -0.2120 -2.6684 -0.7984
18287TIP3   OH276275   3.587   0.634   1.569  0.2599  0.4898 -0.5476
18287TIP3    H176276   3.536   0.654   1.491  1.0092 -1.1903 -1.5229
18287TIP3    H276277   3.609   0.719   1.607 -2.3153  1.2987 -0.6733
18288TIP3   OH276278   2.065   4.081   6.219  0.6033 -0.3447 -0.2196
18288TIP3    H176279   2.124   4.115   6.286  0.0251 -2.4525  1.4609
18288TIP3    H276280   2.106   4.000   6.189 -0.5191 -0.8761 -0.3720
18289TIP3   OH276281   5.445   5.943  15.726 -0.0778  0.3770  0.3480
18289TIP3    H176282   5.440   6.031  15.689  1.8825  0.1745 -0.4977
18289TIP3    H276283   5.501   5.953  15.803 -1.6708  0.2355  1.5783
18290TIP3   OH276284   6.414   4.009   0.915  0.1390 -0.2904 -0.7419
18290TIP3    H176285   6.500   4.041   0.944 -0.9741  3.1591 -0.7646
18290TIP3    H276286   6.363   4.000   0.995  0.0788 -0.9030 -0.8450
18291TIP3   OH276287   0.203   2.145  16.138 -0.2333  0.4281 -0.4586
18291TIP3    H176288   0.233   2.235  16.123 -0.0982  0.3080 -0.9260
18291TIP3    H276289   0.279   2.091  16.117 -0.9030  0.0893 -2.1720
18292TIP3   OH276290   6.320   2.806  10.626  0.6170  0.0764 -0.3717
18292TIP3    H176291   6.253   2.874  10.626  0.5355 -0.0023 -0.1501
18292TIP3    H276292   6.399   2.850  10.657  0.3192 -0.1585  0.7775
18293TIP3   OH276293   2.046   0.101   0.934 -0.2989 -0.4283 -0.0401
18293TIP3    H176294   1.989   0.174   0.957 -0.8187 -0.3996 -1.3176
18293TIP3    H276295   2.006   0.026   0.978 -0.9645 -0.2909 -0.3849
18294TIP3   OH276296   0.492   0.365  17.060  0.1092 -0.4619 -0.1767
18294TIP3    H176297   0.547   0.419  17.116  1.9133 -0.8589 -1.4696
18294TIP3    H276298   0.530   0.373  16.973 -2.3327 -0.2113 -1.3244
18295TIP3   OH276299   6.696   0.386  12.527  0.6974 -0.0560 -0.4928
18295TIP3    H176300   6.790   0.400  12.539  0.7058 -0.2878 -0.2688
18295TIP3    H276301   6.671   0.448  12.458  0.8810  0.4789 -0.0850
18296TIP3   OH276302   6.723   2.028   4.151 -0.3202 -0.4747  0.1595
18296TIP3    H176303   6.810   2.057   4.124 -0.7198 -0.2171 -0.9100
18296TIP3    H276304   6.664   2.060   4.083 -1.2152 -0.9350  0.6866
18297TIP3   OH276305   4.141   2.648  12.167  0.0943  0.0410  0.0252
18297TIP3    H176306   4.076   2.577  12.158  0.3392 -0.1829  0.0103
18297TIP3    H276307   4.141   2.690  12.081 -0.3998  0.3644  0.1783
18298TIP3   OH276308   0.773   0.913   3.579  0.3033  0.6032  0.2478
18298TIP3    H176309   0.777   0.854   3.504  0.8317 -1.6378  1.9411
18298TIP3    H276310   0.680   0.915   3.603  0.2640  0.5874  0.0975
18299TIP3   OH276311   1.590   6.722  11.630 -0.0205 -0.7217 -0.1808
18299TIP3    H176312   1.572   6.753  11.541 -0.8839 -1.7822 -0.3939
18299TIP3    H276313   1.575   6.628  11.626 -3.7191 -0.4227  1.9051
18300TIP3   OH276314   6.615   1.262  16.828  0.2330  0.5381  0.1368
18300TIP3    H176315   6.543   1.303  16.781 -0.7715  0.5235  1.5728
18300TIP3    H276316   6.665   1.336  16.864 -0.1369  0.5386  0.6580
18301TIP3   OH276317   5.315   5.580  13.406 -0.4766 -1.0855  0.3047
18301TIP3    H176318   5.300   5.673  13.423 -0.9640 -1.2055  0.5679
18301TIP3    H276319   5.325   5.574  13.311 -0.8924 -0.8208  0.2404
18302TIP3   OH276320   1.912   3.020   1.884  0.3048 -0.2387  0.1895
18302TIP3    H176321   1.905   3.080   1.810  0.0172  0.5874  0.8634
18302TIP3    H276322   1.844   3.050   1.945 -0.7065 -2.0310  0.0140
18303TIP3   OH276323   2.489   5.040  15.565 -0.0185 -0.4065  0.1587
18303TIP3    H176324   2.399   5.020  15.541 -0.0913  0.9573 -0.8337
18303TIP3    H276325   2.498   5.134  15.549  1.7153 -0.5984 -0.2484
18304TIP3   OH276326   5.530   0.791   1.135 -0.1598 -0.1534 -0.1507
18304TIP3    H176327   5.577   0.847   1.197  0.2019  0.1286 -0.6758
18304TIP3    H276328   5.549   0.828   1.049 -2.1240  0.5537 -0.3325
18305TIP3   OH276329   3.313   0.265   0.736  0.2450 -0.4650  0.0198
18305TIP3    H176330   3.370   0.277   0.812  0.2257 -2.2584  0.3564
18305TIP3    H276331   3.256   0.192   0.760 -0.9031  0.0426 -1.0727
18306TIP3   OH276332   4.563   5.718   4.683 -0.2538  0.5774 -0.1406
18306TIP3    H176333   4.631   5.740   4.619 -2.0929  3.0283 -1.4296
18306TIP3    H276334   4.575   5.784   4.752  0.0480 -0.3974  0.7556
18307TIP3   OH276335   6.055   0.303   0.231  0.1409 -0.0383 -0.3261
18307TIP3    H176336   6.019   0.391   0.216  0.0747  0.4325  2.2783
18307TIP3    H276337   5.981   0.252   0.263  0.9716  0.0085  1.7779
18308TIP3   OH276338   0.282   5.349  12.456  0.0006 -0.1542  0.2516
18308TIP3    H176339   0.230   5.270  12.471  0.4351 -0.6948 -0.9510
18308TIP3    H276340   0.247   5.387  12.375  1.2712 -0.3885 -0.4463
18309TIP3   OH276341   0.422   1.301   1.251  0.2527 -0.1496 -0.1115
18309TIP3    H176342   0.340   1.298   1.201  0.1163 -2.6232  0.1563
18309TIP3    H276343   0.481   1.243   1.204  2.0109  1.7834 -0.4345
18310TIP3   OH276344   4.570   5.995  13.455 -0.4232  0.5764 -0.2291
18310TIP3    H176345   4.641   6.055  13.433 -0.1006 -0.0825 -1.0178
18310TIP3    H276346   4.519   5.987  13.375 -0.7345  0.1596  0.0056
18311TIP3   OH276347   5.313   4.440  14.075 -0.2169  0.2063  0.4979
18311TIP3    H176348   5.293   4.426  13.982  0.1680  0.8068  0.3126
18311TIP3    H276349   5.257   4.513  14.100  0.7609  1.0596  0.3121
18312TIP3   OH276350   2.259   0.193   4.455 -0.9479  0.2927  0.3002
18312TIP3    H176351   2.349   0.168   4.436 -1.3559 -0.7976 -0.2903
18312TIP3    H276352   2.223   0.221   4.371 -0.9306  1.5213  0.6880
18313TIP3   OH276353   3.731   4.826  16.371  0.0190  0.0742  0.0257
18313TIP3    H176354   3.637   4.836  16.360 -0.1367 -1.7569 -0.7663
18313TIP3    H276355   3.744   4.732  16.382  1.6591  0.4056  1.2919
18314TIP3   OH276356   3.037   4.296  11.921  0.4170  0.5962  0.1641
18314TIP3    H176357   3.121   4.328  11.956  0.7274 -1.2615  1.2597
18314TIP3    H276358   3.020   4.216  11.970 -1.1100 -0.0476 -1.3180
18315TIP3   OH276359   3.891   4.275  15.635  0.3445  0.1033  0.5180
18315TIP3    H176360   3.855   4.363  15.648 -0.7838 -0.4125  1.1078
18315TIP3    H276361   3.959   4.286  15.569 -1.2014  1.0906 -0.9867
18316TIP3   OH276362   6.267   1.795  12.946  0.1775  0.8654  0.3353
18316TIP3    H176363   6.188   1.825  12.900  0.2119 -0.0867 -0.3698
18316TIP3    H276364   6.257   1.700  12.952  0.7634  0.8506  1.2162
18317TIP3   OH276365   2.866   4.168  12.701 -0.6563 -0.0514  0.3632
18317TIP3    H176366   2.888   4.086  12.745 -2.3289  0.2818  1.9302
18317TIP3    H276367   2.951   4.207  12.679  0.4128  0.1599  4.1118
18318TIP3   OH276368   6.640   0.170  13.794  0.1460 -0.0236  0.1753
18318TIP3    H176369   6.662   0.231  13.864 -0.8244  2.0625 -1.1954
18318TIP3    H276370   6.565   0.121  13.828 -0.5498  1.2142  0.5296
18319TIP3   OH276371   3.458   4.864  16.308 -0.2611  0.3988  0.1037
18319TIP3    H176372   3.395   4.806  16.351  0.9520 -0.5220  0.6996
18319TIP3    H276373   3.437   4.951  16.341 -1.3930  0.1536  0.0621
18320TIP3   OH276374   3.527   1.452  14.826 -0.0236 -0.4164  0.0958
18320TIP3    H176375   3.570   1.469  14.742 -0.6175  0.9144  0.0321
18320TIP3    H276376   3.433   1.458  14.806 -0.1701 -0.2176  0.8285
18321TIP3   OH276377   1.357   6.783  16.880 -0.3007 -0.2684 -0.0106
18321TIP3    H176378   1.414   6.786  16.956 -0.8096  1.7255  0.3476
18321TIP3    H276379   1.286   6.724  16.905  0.0949 -0.4677  0.6493
18322TIP3   OH276380   6.473   2.856  13.736 -0.2293 -0.0926 -0.1937
18322TIP3    H176381   6.398   2.911  13.759  0.2747  0.4806  0.0815
18322TIP3    H276382   6.436   2.768  13.730 -1.0173  0.2441 -0.5069
18323TIP3   OH276383   2.822   2.681   1.574  0.4306 -0.2841 -0.1016
18323TIP3    H176384   2.793   2.611   1.516 -0.4389 -0.1085  0.1020
18323TIP3    H276385   2.803   2.761   1.525 -2.0258 -0.0427  1.0927
18324TIP3   OH276386   6.454   3.181  16.889 -0.2641  0.2287 -0.3336
18324TIP3    H176387   6.506   3.146  16.961 -0.1910 -0.1546 -0.5737
18324TIP3    H276388   6.366   3.190  16.926 -0.3917 -0.6380 -0.3948
18325TIP3   OH276389   1.942   5.083   0.188  0.3860  0.1798  0.5561
18325TIP3    H176390   1.927   4.993   0.157  3.5120 -0.4691  0.5526
18325TIP3    H276391   1.938   5.137   0.109  0.4154 -0.2515  0.2576
18326TIP3   OH276392   1.713   1.238  13.858  0.0054 -0.2328 -0.3796
18326TIP3    H176393   1.714   1.160  13.804  2.2421 -0.4290 -0.1342
18326TIP3    H276394   1.743   1.208  13.944  0.3080  0.7862 -0.1164
18327TIP3   OH276395   3.171   1.103   2.697 -0.3267  0.0840 -0.3114
18327TIP3    H176396   3.133   1.186   2.667 -1.1565 -0.3777 -0.5708
18327TIP3    H276397   3.098   1.058   2.740  0.0015 -0.7080 -0.5775
18328TIP3   OH276398   5.118   0.721   3.412  0.7705  0.5145 -0.0465
18328TIP3    H176399   5.032   0.681   3.400  0.9963 -0.0772  0.2628
18328TIP3    H276400   5.126   0.783   3.339  0.5242 -0.2042 -0.7017
18329TIP3   OH276401   4.541   5.213  15.504 -0.2934  0.8755 -0.4166
18329TIP3    H176402   4.628   5.193  15.538 -0.2755 -1.0847 -1.4663
18329TIP3    H276403   4.489   5.135  15.522 -1.1630  1.0693 -1.8666
18330TIP3   OH276404   4.241   2.714  13.607 -0.0170 -0.2375  0.0139
18330TIP3    H176405   4.169   2.675  13.658  0.3791 -2.3081 -0.9122
18330TIP3    H276406   4.198   2.775  13.548 -0.9952 -1.1220 -0.2267
18331TIP3   OH276407   2.980   6.056   3.284  0.5025  0.2159  0.7302
18331TIP3    H176408   2.980   6.126   3.350 -0.8885  1.4934 -0.5593
18331TIP3    H276409   3.041   6.087   3.217 -1.3045  1.0505 -0.6249
18332TIP3   OH276410   2.779   4.804   2.112 -0.7127  0.6863 -0.2831
18332TIP3    H176411   2.683   4.802   2.105 -0.8447  0.6046  1.2322
18332TIP3    H276412   2.806   4.720   2.075 -1.5451 -0.9733  2.5541
18333TIP3   OH276413   6.321   6.634   2.170  0.3185  0.0058 -0.2722
18333TIP3    H176414   6.302   6.550   2.128 -0.4010  0.7678 -1.5461
18333TIP3    H276415   6.280   6.699   2.113 -0.8961  1.1051  1.7342
18334TIP3   OH276416   1.830   3.247   1.717 -0.2203 -0.1991 -0.4635
18334TIP3    H176417   1.747   3.255   1.669 -0.0579 -0.4087 -0.7802
18334TIP3    H276418   1.896   3.280   1.656 -0.0742 -0.0094 -0.2021
18335TIP3   OH276419   4.632   3.208   4.822  0.1447 -0.1499  0.3375
18335TIP3    H176420   4.536   3.203   4.823  0.1756 -0.8270  0.7893
18335TIP3    H276421   4.654   3.236   4.733 -0.3955 -2.1939 -0.5063
18336TIP3   OH276422   3.987   0.246  14.099 -0.1423  0.0682  0.1496
18336TIP3    H176423   4.030   0.269  14.016 -1.5611 -0.7308 -0.8362
18336TIP3    H276424   4.051   0.272  14.166  0.8354  1.1938 -1.1474
18337TIP3   OH276425   4.325   3.483   6.230  0.2061 -0.1305 -0.2775
18337TIP3    H176426   4.272   3.485   6.151 -0.7773  0.0902  0.3719
18337TIP3    H276427   4.322   3.392   6.259 -1.7841  0.2753  1.0163
18338TIP3   OH276428   4.328   5.832   6.265  0.0328 -1.0592 -0.5212
18338TIP3    H176429   4.311   5.904   6.204  0.1381  0.7566  1.4674
18338TIP3    H276430   4.284   5.858   6.346  0.7017 -2.9053  0.5051
18339TIP3   OH276431   0.333   1.347  13.822  0.0640 -0.1093 -0.8044
18339TIP3    H176432   0.243   1.371  13.797  0.1779 -0.2467 -1.3610
18339TIP3    H276433   0.386   1.372  13.747  0.6280  0.8237 -0.1087
18340TIP3   OH276434   0.601   0.416   2.421  0.8098  0.0933 -0.2879
18340TIP3    H176435   0.635   0.458   2.342 -0.0379 -0.3509 -0.9079
18340TIP3    H276436   0.664   0.438   2.489  0.2672  2.6487 -0.5050
18341TIP3   OH276437   1.971   0.882  15.685 -0.0129 -0.3300  0.0792
18341TIP3    H176438   1.911   0.808  15.677 -1.5264  0.8354  0.0862
18341TIP3    H276439   2.019   0.865  15.766 -0.3400 -1.3014  0.0781
18342TIP3   OH276440   4.002   6.681  14.290 -0.2867  0.3291 -0.4934
18342TIP3    H176441   3.982   6.588  14.301 -0.3389  0.4265  0.2829
18342TIP3    H276442   3.982   6.699  14.198  0.4151 -0.5896 -0.8436
18343TIP3   OH276443   6.067   5.421  13.944 -0.6033  0.5290 -0.0980
18343TIP3    H176444   5.988   5.462  13.908 -0.1858  2.1164  0.6882
18343TIP3    H276445   6.118   5.494  13.979  0.3532 -0.6497  1.0818
18344TIP3   OH276446   6.752   0.228  16.607  0.3646  0.1251 -0.6701
18344TIP3    H176447   6.768   0.319  16.629 -1.6597  0.5030 -0.5539
18344TIP3    H276448   6.714   0.230  16.519 -0.2741 -0.5330 -0.4203
18345TIP3   OH276449   6.091   3.605   5.556  0.4637  0.0896 -0.0949
18345TIP3    H176450   6.101   3.699   5.575  0.7335  0.4696 -1.9744
18345TIP3    H276451   6.000   3.587   5.577 -0.4367  1.4950 -2.4270
18346TIP3   OH276452   0.404   6.465   5.736  0.0347 -0.4579 -0.3812
18346TIP3    H176453   0.312   6.489   5.744  0.0757 -0.3296 -0.2652
18346TIP3    H276454   0.408   6.405   5.662  0.1793  1.2786 -1.8475
18347TIP3   OH276455   0.282   5.731   3.160  0.2090 -0.1620  0.0832
18347TIP3    H176456   0.306   5.754   3.071  0.6460  2.2290  0.7555
18347TIP3    H276457   0.365   5.721   3.206 -0.0140 -0.2785  0.4736
18348TIP3   OH276458   6.713   6.317   0.813 -0.0163  0.0577  0.0794
18348TIP3    H176459   6.729   6.321   0.907 -3.5400 -1.2953  0.9025
18348TIP3    H276460   6.760   6.238   0.784 -1.4424 -1.3494  1.4149
18349TIP3   OH276461   5.825   0.224  14.040  0.0994 -0.3421 -0.4074
18349TIP3    H176462   5.898   0.278  14.070 -1.5647 -0.0543  3.8563
18349TIP3    H276463   5.858   0.134  14.045  0.4096 -0.1840  1.0476
18350TIP3   OH276464   4.060   6.644   2.604  0.0575  0.3079 -0.4969
18350TIP3    H176465   4.129   6.676   2.662  0.4681  0.0646 -0.8476
18350TIP3    H276466   4.065   6.701   2.528 -1.4935  1.6348  0.3285
18351TIP3   OH276467   5.026   0.274  14.853 -0.0900 -0.5606 -0.0277
18351TIP3    H176468   5.119   0.276  14.827 -0.3572  2.0299 -1.1123
18351TIP3    H276469   4.985   0.217  14.789  0.4580 -0.0991 -0.8111
18352TIP3   OH276470   3.375   2.481   4.824 -0.8222 -0.5774  0.3558
18352TIP3    H176471   3.407   2.413   4.883 -1.6928 -1.0416  0.3127
18352TIP3    H276472   3.396   2.563   4.868  0.9428 -0.8268  0.0496
18353TIP3   OH276473   1.769   6.391  12.114  0.5098  0.0506  0.0401
18353TIP3    H176474   1.737   6.301  12.117 -1.4512  0.7295  1.9276
18353TIP3    H276475   1.740   6.425  12.029 -1.3181 -0.2379  0.5261
18354TIP3   OH276476   6.737   0.235   4.462 -0.1157 -0.2277  0.5241
18354TIP3    H176477   6.728   0.273   4.375 -1.1555 -3.1476 -0.7851
18354TIP3    H276478   6.652   0.248   4.504  0.6523  1.9547  1.5378
18355TIP3   OH276479   1.969   5.038   5.570 -0.3534  0.0436  0.2909
18355TIP3    H176480   1.942   4.946   5.570 -1.1289  0.2586  0.5182
18355TIP3    H276481   1.921   5.077   5.496  0.0563  0.2426  0.1281
18356TIP3   OH276482   3.865   5.656  14.186 -0.0356  0.5981 -0.6093
18356TIP3    H176483   3.929   5.609  14.239  0.2754  0.2944 -1.2405
18356TIP3    H276484   3.869   5.747  14.216 -0.0979  0.3678  0.1011
18357TIP3   OH276485   2.429   5.260   4.811  0.2525  0.0919 -0.3111
18357TIP3    H176486   2.520   5.232   4.818 -0.1892 -1.4947 -0.4696
18357TIP3    H276487   2.407   5.293   4.898  0.6854 -0.4619  0.0129
18358TIP3   OH276488   3.922   6.742  14.048  0.0585  0.9016 -0.1360
18358TIP3    H176489   3.949   6.758  13.957 -0.2383  0.3417 -0.3280
18358TIP3    H276490   3.918   6.830  14.087  0.3867  1.1317 -0.6057
18359TIP3   OH276491   6.117   2.726   5.564 -0.3966 -0.0896 -0.0747
18359TIP3    H176492   6.203   2.733   5.523  0.4540 -0.2831  1.5917
18359TIP3    H276493   6.080   2.815   5.558  0.1371  0.1183 -0.3222
18360TIP3   OH276494   3.048   4.861  16.494  0.0002  0.6434  0.1200
18360TIP3    H176495   3.091   4.946  16.504  1.6491 -0.0672 -0.6134
18360TIP3    H276496   3.096   4.818  16.423  0.5795 -1.7341  1.8505
18361TIP3   OH276497   5.063   0.757  11.285 -0.0711  0.6701 -0.3163
18361TIP3    H176498   5.051   0.699  11.209 -0.5750  1.3439 -0.7610
18361TIP3    H276499   4.975   0.791  11.303  0.1175  0.8243  0.3265
18362TIP3   OH276500   4.515   3.665   3.680 -0.3362 -0.1923 -0.0598
18362TIP3    H176501   4.435   3.613   3.672 -0.7666  0.4705 -0.1547
18362TIP3    H276502   4.507   3.710   3.764  1.3221 -2.3902  1.3758
18363TIP3   OH276503   3.010   4.877   2.659  0.7584  0.0673 -0.1583
18363TIP3    H176504   3.075   4.936   2.622 -1.5571  3.2364  0.4622
18363TIP3    H276505   2.956   4.851   2.585  1.5459 -1.0769 -0.3652
18364TIP3   OH276506   0.253   3.788  16.525  0.3432 -0.0769  0.5746
18364TIP3    H176507   0.175   3.789  16.469 -0.2227  0.0241  1.3537
18364TIP3    H276508   0.326   3.801  16.464 -0.1664 -1.0820 -0.2845
18365TIP3   OH276509   6.059   5.603   5.379  0.1746 -0.0506 -0.3781
18365TIP3    H176510   6.140   5.637   5.342 -0.2696  0.3651 -0.9770
18365TIP3    H276511   6.030   5.670   5.441 -0.1422  0.1912 -0.7788
18366TIP3   OH276512   3.789   4.753  12.062 -0.2214  0.5642 -0.4143
18366TIP3    H176513   3.784   4.675  12.118 -0.7997  0.8365 -0.0794
18366TIP3    H276514   3.698   4.777  12.046 -0.0450  1.3859 -0.2183
18367TIP3   OH276515   0.172   1.870  13.222  0.5612  0.4109 -0.7894
18367TIP3    H176516   0.095   1.913  13.259  0.5771  0.2765 -0.5983
18367TIP3    H276517   0.140   1.784  13.195  0.5199  0.5580 -1.2071
18368TIP3   OH276518   3.375   4.706  13.538 -0.2878 -0.0140  0.6739
18368TIP3    H176519   3.347   4.622  13.500  0.5569  0.2971 -0.7229
18368TIP3    H276520   3.293   4.753  13.556 -0.7417 -0.6009  0.1860
18369TIP3   OH276521   4.569   3.728   2.206 -0.7694  0.6017 -0.4797
18369TIP3    H176522   4.589   3.634   2.195 -2.6615  0.0542  0.3796
18369TIP3    H276523   4.601   3.768   2.125  0.9973 -0.6072 -0.4429
18370TIP3   OH276524   6.028   3.160  14.675  0.1193 -0.0217 -0.1246
18370TIP3    H176525   6.049   3.102  14.748  0.5758 -0.7833 -0.8406
18370TIP3    H276526   6.012   3.101  14.601  0.1574  0.7506 -0.7673
18371TIP3   OH276527   4.802   5.797   4.576 -0.0937  0.1640  0.0152
18371TIP3    H176528   4.869   5.769   4.637  0.9855 -1.0777 -1.6504
18371TIP3    H276529   4.849   5.854   4.514 -0.4261 -1.0495 -1.4086
18372TIP3   OH276530   6.685   3.838  16.049 -0.4737  0.4765  0.1646
18372TIP3    H176531   6.614   3.832  15.985 -0.9418  3.0042  0.3427
18372TIP3    H276532   6.758   3.875  15.999  0.7693 -1.9329  0.0256
18373TIP3   OH276533   2.819   5.118  12.687  0.2826 -0.4100  0.8263
18373TIP3    H176534   2.767   5.158  12.756  0.9216 -0.0682  1.1234
18373TIP3    H276535   2.898   5.172  12.682  0.3740 -0.5978  0.0247
18374TIP3   OH276536   0.171   0.197   5.730 -0.0188  0.0428 -0.3899
18374TIP3    H176537   0.160   0.292   5.721 -1.5253  0.2597  2.3386
18374TIP3    H276538   0.134   0.160   5.650 -1.2897  1.7331 -0.6495
18375TIP3   OH276539   4.817   5.204   4.656  0.6999 -0.7254 -0.4751
18375TIP3    H176540   4.764   5.269   4.609  0.8317  0.1676  0.5792
18375TIP3    H276541   4.757   5.131   4.671 -0.1511  0.1067  0.3498
18376TIP3   OH276542   6.595   0.257   1.071 -0.1821 -0.4886 -0.1987
18376TIP3    H176543   6.577   0.279   0.980  0.7738  0.7038 -0.1237
18376TIP3    H276544   6.657   0.184   1.067 -0.6814 -0.9104 -0.4755
18377TIP3   OH276545   2.392   4.206  15.901 -0.2150 -0.0386  0.1219
18377TIP3    H176546   2.331   4.269  15.940 -1.9366 -2.1484  1.0817
18377TIP3    H276547   2.395   4.134  15.964  2.3690 -0.5653 -0.5142
18378TIP3   OH276548   3.870   0.733  16.139 -0.5103  0.2551 -0.6374
18378TIP3    H176549   3.883   0.644  16.108  1.2584 -0.1221  1.0007
18378TIP3    H276550   3.954   0.758  16.178 -1.0308  2.5451 -0.7995
18379TIP3   OH276551   0.236   5.677   0.035  0.0254  0.0729  0.4967
18379TIP3    H176552   0.186   5.604   0.072 -0.1664  0.2674  0.6233
18379TIP3    H276553   0.231   5.664  -0.060 -0.0687 -0.0370  0.5174
18380TIP3   OH276554   6.013   2.858  11.644 -0.2366  0.7784  0.6407
18380TIP3    H176555   5.964   2.778  11.666  2.2426 -0.9729  0.2562
18380TIP3    H276556   5.958   2.902  11.580 -0.8090 -1.7167 -0.7305
18381TIP3   OH276557   4.248   3.212  12.445 -0.7519  0.5154 -0.4626
18381TIP3    H176558   4.310   3.271  12.401 -2.4756  1.2642 -2.0491
18381TIP3    H276559   4.267   3.126  12.410 -0.2534  0.6430 -0.5092
18382TIP3   OH276560   6.500   2.847  11.181 -0.2656  0.2543 -0.0338
18382TIP3    H176561   6.478   2.935  11.212 -1.3092 -0.8044  2.4550
18382TIP3    H276562   6.426   2.793  11.208  1.2418 -1.7511  0.2661
18383TIP3   OH276563   3.880   1.029   4.463  0.5967  0.5838  0.0204
18383TIP3    H176564   3.825   1.053   4.388 -0.8124 -1.3540  0.3422
18383TIP3    H276565   3.865   1.099   4.526 -1.9588 -0.0752  0.2698
18384TIP3   OH276566   1.188   4.867   2.182  0.4014 -0.2358 -0.1524
18384TIP3    H176567   1.162   4.850   2.273  1.1373  1.1774  0.3682
18384TIP3    H276568   1.135   4.942   2.156  1.6771  0.7045 -0.1339
18385TIP3   OH276569   6.156   4.480   0.843 -0.1796 -0.4766 -0.0699
18385TIP3    H176570   6.069   4.514   0.822  0.2652  1.1231  0.5144
18385TIP3    H276571   6.170   4.409   0.781 -1.6299 -0.3177 -0.6140
18386TIP3   OH276572   1.892   2.980   3.135  0.4611  0.4128 -0.3363
18386TIP3    H176573   1.888   2.904   3.078 -1.5413  1.6383 -1.9858
18386TIP3    H276574   1.985   3.004   3.137  0.6610  0.0900 -2.8192
18387TIP3   OH276575   3.258   5.696   3.738 -0.0002 -0.7900  0.2952
18387TIP3    H176576   3.177   5.710   3.786 -0.4768 -0.0089 -0.6967
18387TIP3    H276577   3.259   5.602   3.719 -0.1879 -0.9699  1.1357
18388TIP3   OH276578   0.879   2.553  14.341  0.5459  0.4069 -0.4506
18388TIP3    H176579   0.922   2.502  14.273  1.2601  0.8185 -0.3153
18388TIP3    H276580   0.893   2.503  14.422 -0.7219 -0.3324 -0.6601
18389TIP3   OH276581   4.946   1.658   2.112  0.3004  0.4081 -0.1100
18389TIP3    H176582   5.005   1.723   2.150 -0.0093  0.5277  0.1753
18389TIP3    H276583   4.927   1.599   2.185 -0.4067  0.7131 -0.0407
18390TIP3   OH276584   1.305   1.519  16.857  0.1779  0.0459  0.8238
18390TIP3    H176585   1.232   1.458  16.848 -0.1523  0.2364  2.0326
18390TIP3    H276586   1.287   1.567  16.938  1.2231  0.6724  0.7096
18391TIP3   OH276587   4.184   4.577  13.077 -0.3888 -0.1118  0.4173
18391TIP3    H176588   4.150   4.608  13.161 -0.8159  0.4242  0.0488
18391TIP3    H276589   4.279   4.580  13.087 -0.4275  0.8487  0.5531
18392TIP3   OH276590   5.623   1.340   3.620  0.0003  0.4554  0.6851
18392TIP3    H176591   5.702   1.292   3.595 -1.2268 -0.2422 -2.2429
18392TIP3    H276592   5.648   1.432   3.615  0.1376  0.3493 -2.6111
18393TIP3   OH276593   6.342   6.009  14.734  0.0663  0.1867 -0.6974
18393TIP3    H176594   6.400   6.064  14.787 -0.1695 -2.2860  2.4307
18393TIP3    H276595   6.400   5.967  14.670  0.5082  2.5791 -1.9950
18394TIP3   OH276596   6.321   5.736  14.454 -0.2679 -0.2243  0.2423
18394TIP3    H176597   6.277   5.774  14.378 -0.8445 -0.1783  0.5901
18394TIP3    H276598   6.361   5.811  14.498 -0.3978 -0.1762  0.2804
18395TIP3   OH276599   1.461   6.131  11.744 -0.2823 -0.3897  0.2708
18395TIP3    H176600   1.390   6.182  11.704  0.6308 -0.6863 -1.9244
18395TIP3    H276601   1.537   6.151  11.690  1.2028 -0.5085  2.2203
18396TIP3   OH276602   1.190   2.684  10.648  0.5540 -0.0068  0.1263
18396TIP3    H176603   1.129   2.727  10.708 -0.5088  0.5236 -1.2778
18396TIP3    H276604   1.205   2.749  10.579  2.0897 -0.4330  0.0266
18397TIP3   OH276605   2.719   4.878  13.673 -0.2440  0.3473 -0.0564
18397TIP3    H176606   2.670   4.838  13.602  0.1457 -1.6804  0.7489
18397TIP3    H276607   2.757   4.957  13.635 -2.0672  0.6509 -1.3741
18398TIP3   OH276608   4.726   4.557   5.453 -0.2793  0.6566  0.5476
18398TIP3    H176609   4.678   4.482   5.489  1.5693 -0.3235  1.1119
18398TIP3    H276610   4.688   4.633   5.498 -2.8427  0.2396 -0.7156
18399TIP3   OH276611   2.393   2.788  16.775  0.0326 -0.1893 -0.1428
18399TIP3    H176612   2.332   2.843  16.823  0.5629 -0.3342  0.7168
18399TIP3    H276613   2.397   2.707  16.825  1.2894  0.0001  0.1013
18400TIP3   OH276614   1.764   1.356   2.192  0.1007 -0.1510  0.0068
18400TIP3    H176615   1.764   1.452   2.187  1.2988 -0.1530 -0.5622
18400TIP3    H276616   1.674   1.333   2.213  0.3266  1.2098  2.9267
18401TIP3   OH276617   1.228   5.717   1.731 -0.0068  0.5576 -0.0921
18401TIP3    H176618   1.187   5.729   1.646  1.3344  1.9585 -0.5919
18401TIP3    H276619   1.258   5.805   1.756 -1.1237  0.3706  2.2342
18402TIP3   OH276620   1.286   5.162   6.084 -0.3876 -0.1307 -0.2995
18402TIP3    H176621   1.294   5.130   6.174 -1.3740  0.1665 -0.0940
18402TIP3    H276622   1.316   5.252   6.088 -0.2674 -0.1707 -0.3026
18403TIP3   OH276623   1.708   1.199  12.320 -0.0786  0.1451  0.0097
18403TIP3    H176624   1.634   1.237  12.271 -0.2264 -1.7304 -1.3417
18403TIP3    H276625   1.668   1.133  12.376  0.4684 -0.0973  0.1203
18404TIP3   OH276626   3.116   1.521   4.258 -0.1717  0.2109  0.4937
18404TIP3    H176627   3.074   1.556   4.179 -0.1772 -0.1886  0.3162
18404TIP3    H276628   3.185   1.583   4.278  1.0135 -0.5934 -0.8699
18405TIP3   OH276629   3.547   0.088   0.576  0.5606  0.5750  0.3869
18405TIP3    H176630   3.525   0.019   0.637  0.9496 -1.0043 -1.1725
18405TIP3    H276631   3.509   0.059   0.493  1.2057  1.9683 -0.4296
18406TIP3   OH276632   2.538   3.211   4.244 -0.3015  0.0879 -0.8429
18406TIP3    H176633   2.468   3.198   4.180  0.2843  1.7755 -1.9008
18406TIP3    H276634   2.575   3.124   4.257 -0.6168 -0.3467 -2.6085
18407TIP3   OH276635   4.460   4.982  12.624  0.1451 -0.0784 -0.1001
18407TIP3    H176636   4.436   4.996  12.716  0.5530 -0.2425  0.0358
18407TIP3    H276637   4.556   4.988  12.623  0.5103 -3.5800  0.1487
18408TIP3   OH276638   4.341   0.283   2.362 -0.6212 -0.1005  0.1333
18408TIP3    H176639   4.276   0.282   2.292 -1.5124  1.0933  0.9057
18408TIP3    H276640   4.318   0.359   2.415  0.2762 -0.7368  1.4929
18409TIP3   OH276641   2.081   4.642  13.189  0.2717  0.1449 -0.6092
18409TIP3    H176642   2.128   4.561  13.206 -0.0263 -0.1967 -1.3766
18409TIP3    H276643   2.031   4.625  13.110 -0.5294  0.7629 -0.2569
18410TIP3   OH276644   3.176   4.631  14.810 -0.2933  0.5110  0.2708
18410TIP3    H176645   3.114   4.563  14.782 -1.2011  0.6838  1.7468
18410TIP3    H276646   3.235   4.586  14.871  0.2456  0.6551 -0.1315
18411TIP3   OH276647   4.693   1.552   6.571  0.0030  0.0127 -0.1347
18411TIP3    H176648   4.745   1.479   6.537  0.4899 -0.2038  1.0472
18411TIP3    H276649   4.756   1.622   6.583  0.3414 -0.6601  2.5670
18412TIP3   OH276650   1.745   2.062   5.264  0.6689 -0.1699  0.4768
18412TIP3    H176651   1.749   2.132   5.199  2.9740 -1.3997 -0.8371
18412TIP3    H276652   1.790   2.098   5.341 -1.1525  0.9254  1.0740
18413TIP3   OH276653   1.338   6.453  16.588 -0.3844 -0.5043  0.1729
18413TIP3    H176654   1.376   6.380  16.636 -0.5037 -1.6719 -1.4164
18413TIP3    H276655   1.243   6.437  16.590 -0.4040 -0.4744 -0.2898
18414TIP3   OH276656   1.435   1.212  15.375  0.4038 -0.3575  0.1780
18414TIP3    H176657   1.444   1.273  15.302  1.3029  1.2057  1.5222
18414TIP3    H276658   1.463   1.128  15.340 -0.0522  0.1510 -1.5031
18415TIP3   OH276659   0.194   4.353  14.830  0.0938  0.1258  0.4204
18415TIP3    H176660   0.170   4.264  14.856  1.8016 -0.3792  0.3883
18415TIP3    H276661   0.218   4.345  14.737  0.5343  0.5390  0.4936
18416TIP3   OH276662   0.610   5.411  10.807 -0.4039 -0.1381  0.4078
18416TIP3    H176663   0.600   5.359  10.727  1.1273 -1.5450  1.0690
18416TIP3    H276664   0.583   5.499  10.782 -1.7414 -0.9325 -1.1407
18417TIP3   OH276665   3.295   5.832  15.261  0.0170  0.2730 -0.2246
18417TIP3    H176666   3.232   5.827  15.189 -0.0136 -0.6303 -0.1461
18417TIP3    H276667   3.357   5.761  15.243 -0.4869 -0.5374  1.1070
18418TIP3   OH276668   5.319   6.247  16.230  0.6488 -0.3998  0.0063
18418TIP3    H176669   5.344   6.338  16.247  0.5253 -0.2406 -0.6655
18418TIP3    H276670   5.227   6.243  16.257 -0.2642  0.4544 -2.6720
18419TIP3   OH276671   6.420   2.710   3.018 -0.3601  0.1835  0.2856
18419TIP3    H176672   6.344   2.656   2.995  0.8446 -0.6728 -2.0480
18419TIP3    H276673   6.495   2.655   2.997  0.9253  1.9944 -0.1014
18420TIP3   OH276674   2.761   6.139  12.674 -0.2203 -0.2025  0.4276
18420TIP3    H176675   2.842   6.111  12.630  0.5748 -0.6278  2.1104
18420TIP3    H276676   2.691   6.105  12.617  0.7270  1.1147 -1.6533
18421TIP3   OH276677   1.671   4.644  14.653 -0.6071  0.0895 -0.2743
18421TIP3    H176678   1.691   4.560  14.613 -0.8354  0.0729 -0.3515
18421TIP3    H276679   1.724   4.645  14.733 -0.2326  0.0804 -0.5217
18422TIP3   OH276680   5.648   4.945   3.492 -0.5263  0.3957 -0.3448
18422TIP3    H176681   5.720   4.934   3.429 -2.0396 -0.6623 -2.0004
18422TIP3    H276682   5.670   4.886   3.564  1.1004  1.4048  0.0439
18423TIP3   OH276683   5.718   5.267   5.401  0.7060 -0.2184  0.0066
18423TIP3    H176684   5.672   5.290   5.482  0.5265 -1.0617  0.1469
18423TIP3    H276685   5.709   5.345   5.346 -0.1180 -0.0447  0.3770
18424TIP3   OH276686   2.761   1.484  15.409  0.2416  0.6863  0.1610
18424TIP3    H176687   2.724   1.563  15.449 -0.2909 -1.5157  4.6192
18424TIP3    H276688   2.690   1.420  15.414  1.7792 -1.0886  0.2345
18425TIP3   OH276689   0.665   6.319  11.845  0.1376 -0.0631 -0.4170
18425TIP3    H176690   0.749   6.365  11.845  1.2548 -2.0008  0.0309
18425TIP3    H276691   0.670   6.261  11.921 -0.0524 -2.9058 -2.4459
18426TIP3   OH276692   0.201   2.050  13.954 -0.0673  0.6144 -0.6078
18426TIP3    H176693   0.108   2.072  13.944 -0.9785 -1.0308  2.7164
18426TIP3    H276694   0.201   1.955  13.968  1.8099  0.8613  1.6360
18427TIP3   OH276695   5.215   4.481  10.672  0.4942  0.0226 -0.1325
18427TIP3    H176696   5.191   4.390  10.690  0.5553  0.2604  1.2811
18427TIP3    H276697   5.310   4.483  10.681  0.5103  0.1942 -0.3261
18428TIP3   OH276698   3.193   2.941   5.505 -0.2268  0.4521 -0.1549
18428TIP3    H176699   3.261   3.009   5.507 -0.7081  0.9579 -0.5403
18428TIP3    H276700   3.197   2.901   5.592 -1.5558  2.6038  0.9832
18429TIP3   OH276701   0.214   2.034   3.408  0.0304 -0.4985 -0.0862
18429TIP3    H176702   0.178   1.993   3.329  0.2714  0.6030 -0.7916
18429TIP3    H276703   0.138   2.071   3.453  0.1105  0.7754 -0.9525
18430TIP3   OH276704   6.546   1.221  13.671  0.4221 -0.1793 -0.4576
18430TIP3    H176705   6.612   1.188  13.732 -1.4682 -0.3546  1.5869
18430TIP3    H276706   6.502   1.291  13.719 -0.2929  0.5737 -2.1238
18431TIP3   OH276707   1.336   0.554   2.962 -0.1008 -0.1289  0.1559
18431TIP3    H176708   1.352   0.534   2.870  1.4040 -0.1998  0.4030
18431TIP3    H276709   1.375   0.480   3.009 -1.2267 -0.2973  0.8394
18432TIP3   OH276710   4.366   5.833  15.930 -0.0355 -0.8228  0.1803
18432TIP3    H176711   4.297   5.788  15.979 -0.2037 -1.5877 -0.7199
18432TIP3    H276712   4.444   5.779  15.941  0.7841  0.6463  2.1611
18433TIP3   OH276713   0.303   4.176  16.463  0.4471 -0.9184 -0.4175
18433TIP3    H176714   0.252   4.146  16.538 -0.4205  0.5380 -0.3981
18433TIP3    H276715   0.249   4.157  16.387 -0.0120  0.3444 -0.4222
18434TIP3   OH276716   0.255   2.482  12.293  0.8724 -0.4326 -0.0902
18434TIP3    H176717   0.344   2.503  12.322  0.1324 -0.7906  2.6302
18434TIP3    H276718   0.216   2.434  12.365 -1.5730 -0.2817 -1.2002
18435TIP3   OH276719   1.752   3.111  14.630  0.2665 -0.1247 -0.1424
18435TIP3    H176720   1.658   3.129  14.636  0.3078 -0.3078  1.4636
18435TIP3    H276721   1.794   3.196  14.642  0.3451 -0.4671  2.5860
18436TIP3   OH276722   2.929   5.587  11.751  0.1589 -0.6965  0.2181
18436TIP3    H176723   2.852   5.568  11.697  1.1275 -0.2381 -1.3952
18436TIP3    H276724   2.934   5.683  11.750  1.7435 -0.7487 -1.2372
18437TIP3   OH276725   3.572   2.840  12.445  0.0930  0.1760 -0.0269
18437TIP3    H176726   3.565   2.750  12.414  2.4444 -0.6407  1.5001
18437TIP3    H276727   3.493   2.855  12.496  0.0110 -1.3224  0.3229
18438TIP3   OH276728   2.077   6.462   4.481  0.0787  0.0114  0.1821
18438TIP3    H176729   2.104   6.535   4.537 -0.6788  0.4003  0.0439
18438TIP3    H276730   2.032   6.503   4.407 -0.6509 -0.6092  0.2703
18439TIP3   OH276731   0.475   2.417  11.747 -0.0578 -0.4712  0.0967
18439TIP3    H176732   0.452   2.443  11.658  3.3361  1.0161 -0.5470
18439TIP3    H276733   0.541   2.349  11.736 -0.0775 -0.7563  1.4978
18440TIP3   OH276734   0.917   0.955  14.884  0.6113  0.5598 -0.1247
18440TIP3    H176735   0.859   0.956  14.808 -1.3550 -0.4242  1.2586
18440TIP3    H276736   0.883   1.023  14.941  0.6500 -0.1800  0.8051
18441TIP3   OH276737   6.088   6.551   1.185 -0.2652  0.5384  0.0562
18441TIP3    H176738   6.103   6.561   1.279  0.4511  2.5471 -0.2283
18441TIP3    H276739   6.170   6.517   1.151 -0.1485  0.8496  0.0217
18442TIP3   OH276740   3.910   3.128   6.523 -0.2220 -0.5679  0.3741
18442TIP3    H176741   3.916   3.088   6.436 -0.4112  0.3896 -0.0893
18442TIP3    H276742   3.818   3.118   6.547 -0.5401  0.6443 -0.2709
18443TIP3   OH276743   5.986   1.945  10.917 -0.0556  0.4476 -0.2972
18443TIP3    H176744   5.966   2.004  10.845  1.3420  1.6091  0.2191
18443TIP3    H276745   6.056   1.888  10.884 -0.9081 -0.4732 -0.5563
18444TIP3   OH276746   5.434   6.225  14.947  0.2320 -0.1867 -0.2141
18444TIP3    H176747   5.387   6.198  15.026  0.0060  0.4254 -0.1322
18444TIP3    H276748   5.514   6.172  14.948  1.2150  1.2009  1.5159
18445TIP3   OH276749   1.935   2.017   3.731  0.4011  0.0657 -0.3363
18445TIP3    H176750   1.905   2.090   3.785 -0.3145 -0.7353  0.3695
18445TIP3    H276751   1.899   2.035   3.644 -0.6731  0.0243  0.0838
18446TIP3   OH276752   2.246   2.140   1.819 -0.0916  0.2741 -0.7534
18446TIP3    H176753   2.289   2.065   1.861  0.6028 -0.5621 -2.8184
18446TIP3    H276754   2.304   2.214   1.837 -1.1708  0.5648  1.9659
18447TIP3   OH276755   3.689   3.202   2.132 -0.2149  0.0393 -0.3621
18447TIP3    H176756   3.622   3.262   2.165 -1.0210 -0.4098 -1.1346
18447TIP3    H276757   3.731   3.249   2.060  1.9689  1.2681  1.5730
18448TIP3   OH276758   3.710   2.500  11.899 -0.1296 -0.6537  0.1304
18448TIP3    H176759   3.800   2.483  11.870 -0.0412  1.3729 -1.0015
18448TIP3    H276760   3.656   2.456  11.834 -0.0190 -2.2383  1.0461
18449TIP3   OH276761   1.252   0.410   1.261  0.0484 -0.1093  0.5466
18449TIP3    H176762   1.277   0.374   1.346  0.5625  0.2275  0.5464
18449TIP3    H276763   1.296   0.354   1.197  0.1756  0.0179  0.5224
18450TIP3   OH276764   2.763   2.914  11.629 -0.1490 -0.1576 -0.4571
18450TIP3    H176765   2.688   2.936  11.684  0.6784  0.9816  0.2605
18450TIP3    H276766   2.761   2.979  11.559 -0.3926 -0.7564 -1.0275
18451TIP3   OH276767   0.226   6.763  15.441  0.0804 -0.2813 -0.0521
18451TIP3    H176768   0.191   6.802  15.521 -0.9902  0.9569 -1.0832
18451TIP3    H276769   0.164   6.694  15.418 -0.3834  0.2987 -0.5642
18452TIP3   OH276770   5.608   4.960  17.096  0.1026  0.8957  0.0866
18452TIP3    H176771   5.669   4.919  17.034  0.3225  0.1582  0.7697
18452TIP3    H276772   5.522   4.950  17.055  0.2125  0.1655  0.0151
18453TIP3   OH276773   5.817   5.865  12.063 -0.3803  0.0950 -0.0474
18453TIP3    H176774   5.801   5.960  12.066  0.1629  0.2503 -1.3580
18453TIP3    H276775   5.814   5.838  12.155  1.9902  1.8243  0.6492
18454TIP3   OH276776   6.085   4.094   2.217 -0.2552 -0.5132  0.7423
18454TIP3    H176777   6.132   4.122   2.296  1.1085 -0.8272  0.0838
18454TIP3    H276778   6.050   4.008   2.240 -2.1517  0.4857  1.8576
18455TIP3   OH276779   5.664   1.019  12.691  0.0131  0.5746  0.0076
18455TIP3    H176780   5.616   0.955  12.742 -0.8624  1.6259  0.5363
18455TIP3    H276781   5.610   1.098  12.693  0.8186  1.1916 -1.0406
18456TIP3   OH276782   2.640   3.045   1.460 -0.2483 -0.3716 -0.0932
18456TIP3    H176783   2.675   2.969   1.413 -0.3572 -0.2029 -0.4477
18456TIP3    H276784   2.624   3.110   1.392  2.0435  0.8334  0.4351
18457TIP3   OH276785   0.611   3.790  14.723 -0.5854  0.4036  0.2734
18457TIP3    H176786   0.556   3.746  14.787 -1.1187 -0.8686 -1.0030
18457TIP3    H276787   0.584   3.753  14.639  1.0671  0.9797 -0.5541
18458TIP3   OH276788   4.403   3.575  17.103 -0.0704  0.2001 -0.6271
18458TIP3    H176789   4.340   3.616  17.045 -0.2174 -0.2836 -0.8121
18458TIP3    H276790   4.369   3.486  17.118  0.7864 -0.2186 -1.0906
18459TIP3   OH276791   3.948   2.288   0.219  0.2295 -0.2632 -0.2853
18459TIP3    H176792   3.973   2.380   0.218  0.2684 -0.2552  0.7679
18459TIP3    H276793   3.875   2.283   0.157  1.0484  0.2143 -1.3266
18460TIP3   OH276794   5.624   5.234  14.240 -1.1250  0.0889  0.6932
18460TIP3    H176795   5.588   5.279  14.316 -0.6489  0.3245  0.7821
18460TIP3    H276796   5.556   5.243  14.172 -0.7068  1.6364  0.4563
18461TIP3   OH276797   4.856   6.063  10.913 -0.1877 -0.1322 -0.3624
18461TIP3    H176798   4.888   6.149  10.883 -1.3137  0.4554  0.0635
18461TIP3    H276799   4.881   6.003  10.843  0.3725  0.5866 -0.8018
18462TIP3   OH276800   2.097   2.295   5.894  0.0374 -0.4540  0.0705
18462TIP3    H176801   2.100   2.220   5.954  3.5361 -0.3955  0.1603
18462TIP3    H276802   2.060   2.366   5.945 -0.1958 -1.2618  1.0578
18463TIP3   OH276803   5.736   2.177   3.312 -0.0742 -0.4009  0.1606
18463TIP3    H176804   5.752   2.118   3.386  0.3716  0.6156  0.8848
18463TIP3    H276805   5.801   2.152   3.247 -2.6229 -3.7171 -1.4508
18464TIP3   OH276806   2.980   5.248  12.103  0.1121  0.7802 -0.5032
18464TIP3    H176807   2.884   5.257  12.102  0.0033  0.8558  2.3758
18464TIP3    H276808   3.011   5.326  12.056 -1.2264  1.8190  0.2475
18465TIP3   OH276809   2.391   2.497  11.105 -0.1901  0.2593 -0.8559
18465TIP3    H176810   2.424   2.445  11.031 -0.5471 -0.0495 -0.7996
18465TIP3    H276811   2.370   2.433  11.173  0.6736  0.5887 -0.2665
18466TIP3   OH276812   0.423   6.721  11.331 -0.1925  0.5802  0.1294
18466TIP3    H176813   0.459   6.713  11.243 -0.6970 -0.1395 -0.0206
18466TIP3    H276814   0.401   6.813  11.340  0.6462  0.8164 -0.1832
18467TIP3   OH276815   6.767   2.061   4.702  0.0767 -0.0192  0.5964
18467TIP3    H176816   6.764   1.983   4.757  2.6994 -0.3825  0.3463
18467TIP3    H276817   6.753   2.029   4.613  1.0810 -0.2389  0.5026
18468TIP3   OH276818   1.821   2.569  16.056  0.4580  0.3076 -0.2667
18468TIP3    H176819   1.828   2.663  16.068  1.3092  0.0245  1.9044
18468TIP3    H276820   1.866   2.552  15.973  1.2595  1.6756 -0.1353
18469TIP3   OH276821   4.697   6.114   2.292  0.0337 -0.4759  0.2394
18469TIP3    H176822   4.641   6.192   2.288  1.7364  0.8026  0.2841
18469TIP3    H276823   4.756   6.129   2.366  0.9167 -1.4407 -0.2316
18470TIP3   OH276824   1.917   4.132   4.476  0.2154 -0.5105 -0.0775
18470TIP3    H176825   1.845   4.084   4.435 -1.1348 -0.1124  1.7113
18470TIP3    H276826   1.877   4.176   4.551  2.4472 -0.7175  1.3268
18471TIP3   OH276827   4.714   0.239   2.809 -0.3794  0.5069 -0.0847
18471TIP3    H176828   4.695   0.150   2.839  1.7802  0.4555  1.2942
18471TIP3    H276829   4.746   0.228   2.719 -2.7903  0.2499 -1.0044
18472TIP3   OH276830   4.097   0.186   1.531  0.0067 -0.0164  0.2472
18472TIP3    H176831   4.045   0.267   1.523 -0.0574 -0.1416 -0.7298
18472TIP3    H276832   4.051   0.135   1.598 -1.5694 -0.4214 -1.0563
18473TIP3   OH276833   6.100   1.152   1.928  1.2069  0.6571 -0.4270
18473TIP3    H176834   6.187   1.117   1.908  0.5131 -0.1311 -2.3182
18473TIP3    H276835   6.108   1.246   1.912  2.1753  0.9052  1.2867
18474TIP3   OH276836   2.666   4.717  14.754 -0.1607  0.0669 -0.5810
18474TIP3    H176837   2.626   4.633  14.731 -1.4978  0.0279  1.6109
18474TIP3    H276838   2.692   4.707  14.846  1.3041  1.4697 -0.7976
18475TIP3   OH276839   1.488   6.201  13.071 -0.2318 -0.3739  0.0735
18475TIP3    H176840   1.514   6.287  13.039 -2.7471  0.5273  0.2316
18475TIP3    H276841   1.495   6.144  12.994 -1.1126  0.5901 -0.7494
18476TIP3   OH276842   2.475   3.851  12.730 -0.2001 -0.3966 -0.0492
18476TIP3    H176843   2.419   3.928  12.721  0.7183  0.4651  1.3911
18476TIP3    H276844   2.525   3.866  12.810  0.1238 -2.4205  0.1753
18477TIP3   OH276845   3.930   2.703   1.606 -0.2182  0.0940  0.1687
18477TIP3    H176846   3.950   2.739   1.692 -0.6899 -1.2231  0.8676
18477TIP3    H276847   3.955   2.771   1.544  0.8253  0.7721  1.3053
18478TIP3   OH276848   2.511   4.801   1.796  0.8631 -0.2371  0.1208
18478TIP3    H176849   2.461   4.836   1.722 -0.9318 -0.4657  1.1528
18478TIP3    H276850   2.573   4.870   1.818 -0.6276  1.1204  0.2820
18479TIP3   OH276851   3.053   4.251  14.720  0.3276 -0.2674  0.3857
18479TIP3    H176852   3.140   4.241  14.757  1.2080 -0.9389 -1.7443
18479TIP3    H276853   3.020   4.333  14.758  2.1137  0.3066  0.7792
18480TIP3   OH276854   6.041   5.054  11.671 -0.4403 -0.6423  0.7362
18480TIP3    H176855   6.092   5.025  11.595  1.4625 -0.5807  1.9476
18480TIP3    H276856   6.097   5.037  11.746 -1.8290  0.3542  2.0568
18481TIP3   OH276857   0.473   1.199  15.526  0.6072 -0.3658  0.1871
18481TIP3    H176858   0.391   1.178  15.481  0.2815  1.4518 -0.1790
18481TIP3    H276859   0.506   1.276  15.480  2.5650 -1.0745  0.3202
18482TIP3   OH276860   1.632   5.874   3.090  0.2495  0.2346  0.1744
18482TIP3    H176861   1.616   5.964   3.062  2.7944  0.6083 -0.2789
18482TIP3    H276862   1.575   5.862   3.166 -0.2567  2.1506  0.1458
18483TIP3   OH276863   4.888   0.168  13.907 -0.0737  0.1372 -0.2582
18483TIP3    H176864   4.961   0.179  13.846  0.3955  1.5916  0.4993
18483TIP3    H276865   4.818   0.221  13.871 -0.1114  0.2475 -0.0271
18484TIP3   OH276866   0.195   5.565  15.324 -0.0172  0.2264 -0.2465
18484TIP3    H176867   0.149   5.562  15.408 -1.6612  5.9142 -0.5064
18484TIP3    H276868   0.129   5.541  15.259  0.6107 -1.9235 -0.1644
18485TIP3   OH276869   4.828   0.876  14.461  0.1078 -0.2489 -0.2004
18485TIP3    H176870   4.744   0.919  14.443  0.5346 -0.2151 -2.3455
18485TIP3    H276871   4.879   0.943  14.508 -0.3175  0.5077 -0.7862
18486TIP3   OH276872   5.299   3.664  14.302 -0.4312 -0.1521 -0.3728
18486TIP3    H176873   5.339   3.739  14.257  0.6506 -0.1618  0.5478
18486TIP3    H276874   5.311   3.682  14.395 -2.7583 -0.0672 -0.0319
18487TIP3   OH276875   5.655   1.608   3.669  0.3251  0.3245  0.3456
18487TIP3    H176876   5.577   1.594   3.723  0.2396  0.7240  0.3308
18487TIP3    H276877   5.625   1.661   3.596  0.4581 -0.1514 -0.0622
18488TIP3   OH276878   2.317   2.270   2.882  0.0107 -0.5513 -0.4695
18488TIP3    H176879   2.411   2.277   2.900 -0.1582  0.3593  0.1688
18488TIP3    H276880   2.299   2.176   2.883  0.6910 -0.6963  0.6659
18489TIP3   OH276881   5.272   0.390   2.867  0.9823  0.4922  0.4697
18489TIP3    H176882   5.358   0.379   2.826 -0.2542 -2.4986 -1.6219
18489TIP3    H276883   5.262   0.313   2.923 -0.3675  0.7227  0.5726
18490TIP3   OH276884   2.515   6.500   3.310 -0.2324 -0.4830  0.3119
18490TIP3    H176885   2.434   6.508   3.361 -0.4034 -0.7305  0.0817
18490TIP3    H276886   2.507   6.416   3.266 -0.5693  0.1839 -0.9591
18491TIP3   OH276887   4.091   4.409  13.616 -0.2132  0.1254 -0.0909
18491TIP3    H176888   4.141   4.471  13.563 -0.6567  2.4031  1.9764
18491TIP3    H276889   4.154   4.376  13.680 -0.0271 -1.5093 -1.0629
18492TIP3   OH276890   2.979   3.935  13.923  0.2587  0.2618 -0.3350
18492TIP3    H176891   2.966   4.006  13.986 -0.3720 -0.0910 -0.0512
18492TIP3    H276892   3.069   3.907  13.936  0.8594  1.6915 -1.1799
18493TIP3   OH276893   5.009   0.425  10.535 -0.1208 -0.4059 -0.7134
18493TIP3    H176894   5.008   0.516  10.564 -2.4318 -0.5894 -0.0377
18493TIP3    H276895   4.927   0.413  10.488 -0.1387 -2.2904 -0.2921
18494TIP3   OH276896   3.920   5.051   0.929 -0.0385 -0.3903 -0.2432
18494TIP3    H176897   3.853   5.103   0.886 -1.1293 -0.9638  0.7233
18494TIP3    H276898   3.876   4.971   0.957  1.4382 -1.5629 -1.0596
18495TIP3   OH276899   0.151   6.179  13.941 -0.8464  0.1286  0.4141
18495TIP3    H176900   0.085   6.247  13.928 -0.7577 -0.1578 -1.8765
18495TIP3    H276901   0.232   6.227  13.961 -1.0213  0.6368 -0.0930
18496TIP3   OH276902   0.360   3.486   2.957 -0.0916 -0.0646  0.2866
18496TIP3    H176903   0.420   3.560   2.950 -2.6294  2.0045 -2.8780
18496TIP3    H276904   0.299   3.511   3.026  0.2291 -0.1873  0.6168
18497TIP3   OH276905   6.440   1.164   4.056 -0.3085  0.0351  0.3332
18497TIP3    H176906   6.441   1.243   4.109  0.3283  0.6882 -0.6295
18497TIP3    H276907   6.347   1.151   4.034 -0.2638  1.4900 -0.8919
18498TIP3   OH276908   6.749   3.404   2.262 -0.2492 -0.0185 -0.1236
18498TIP3    H176909   6.668   3.377   2.220 -0.5974 -0.4030  0.7556
18498TIP3    H276910   6.771   3.331   2.321  0.6880  0.1129 -0.2906
18499TIP3   OH276911   0.450   3.266  16.285  0.0793  0.4919  0.0299
18499TIP3    H176912   0.512   3.309  16.345 -0.5751  0.9032  0.4349
18499TIP3    H276913   0.364   3.300  16.313 -0.2675  0.3969 -0.9056
18500TIP3   OH276914   0.141   2.317  12.940  0.2759  0.0526  0.0517
18500TIP3    H176915   0.208   2.381  12.917  1.0792 -1.3083 -1.6118
18500TIP3    H276916   0.079   2.319  12.868  0.4096 -1.1369 -0.1149
18501TIP3   OH276917   6.163   5.020  13.656 -0.1920 -0.2822 -0.2626
18501TIP3    H176918   6.097   5.036  13.723  0.8559  1.1883  0.4680
18501TIP3    H276919   6.227   4.962  13.699  0.3684  0.4841 -0.0529
18502TIP3   OH276920   4.988   6.172  14.032 -0.3436 -0.1955 -0.3271
18502TIP3    H176921   5.029   6.112  13.970  0.3311 -0.9786  0.8614
18502TIP3    H276922   5.054   6.188  14.099 -0.8658  1.0787 -0.0831
18503TIP3   OH276923   1.505   0.741   4.588  0.0987 -0.6486  0.0957
18503TIP3    H176924   1.478   0.670   4.646  0.1261  1.1555  2.4429
18503TIP3    H276925   1.423   0.778   4.556  0.0875 -2.4354 -2.1618
18504TIP3   OH276926   1.846   3.576   0.005  0.2351 -0.1642  0.0315
18504TIP3    H176927   1.886   3.549  -0.078 -0.1392 -0.2541 -0.1216
18504TIP3    H276928   1.758   3.539   0.002 -0.2908  1.0582 -0.1713
18505TIP3   OH276929   1.370   5.436   0.842 -0.5678  0.0766 -0.0948
18505TIP3    H176930   1.444   5.437   0.902  0.2161  0.0724 -1.0358
18505TIP3    H276931   1.397   5.376   0.772 -0.1804  2.3126 -1.9785
18506TIP3   OH276932   4.878   3.139  16.700 -0.0891 -0.0404 -0.2211
18506TIP3    H176933   4.813   3.200  16.735  0.3028  0.7729 -0.8647
18506TIP3    H276934   4.962   3.178  16.723  0.1781  0.3296 -1.7088
18507TIP3   OH276935   5.301   2.234  13.325 -0.2794 -0.2270 -0.3573
18507TIP3    H176936   5.295   2.260  13.233  0.4332  1.6019  0.0588
18507TIP3    H276937   5.376   2.284  13.359 -0.3132 -1.1221  1.1358
18508TIP3   OH276938   4.471   0.365  11.941  0.1171  0.0049 -0.0099
18508TIP3    H176939   4.410   0.365  12.015 -1.0270 -0.7427 -0.9308
18508TIP3    H276940   4.547   0.413  11.974  0.0204 -1.0536  1.9603
18509TIP3   OH276941   2.400   0.777  13.821  0.0403  0.0673  0.3296
18509TIP3    H176942   2.481   0.783  13.771  0.4646  1.2469  1.0982
18509TIP3    H276943   2.424   0.813  13.907 -1.4221  0.9437  0.3984
18510TIP3   OH276944   4.929   6.663   1.603  0.4151 -0.1539 -0.2746
18510TIP3    H176945   4.868   6.630   1.668 -0.9845 -1.3636 -2.1141
18510TIP3    H276946   5.008   6.684   1.653 -0.9324 -0.0298  1.9371
18511TIP3   OH276947   0.357   3.799   3.595  0.1855 -0.9634  0.6017
18511TIP3    H176948   0.360   3.849   3.514  1.8122  0.3197  1.4034
18511TIP3    H276949   0.296   3.727   3.577 -1.0399  0.4187 -1.0816
18512TIP3   OH276950   1.808   0.093   2.628  0.0321  1.1880  0.1532
18512TIP3    H176951   1.726   0.044   2.637  1.3343 -1.0780  0.4323
18512TIP3    H276952   1.833   0.115   2.718  1.6365 -1.6091  0.5025
18513TIP3   OH276953   2.930   3.972  13.114 -0.6583 -0.0470  0.0062
18513TIP3    H176954   2.884   4.014  13.041 -0.4693 -3.0966 -2.0490
18513TIP3    H276955   3.023   3.988  13.096 -0.6529  0.7685  0.6763
18514TIP3   OH276956   6.714   4.811   2.331  0.7025  0.0275  0.5393
18514TIP3    H176957   6.730   4.774   2.244  1.2692  0.3890  0.4863
18514TIP3    H276958   6.633   4.862   2.321 -0.4587 -1.6880  0.7738
18515TIP3   OH276959   1.292   2.345   1.659 -0.3564  0.2496 -0.2102
18515TIP3    H176960   1.209   2.392   1.648  0.6663  2.3020  0.1906
18515TIP3    H276961   1.300   2.290   1.582 -2.4455 -0.6036  0.1277
18516TIP3   OH276962   4.968   4.825   2.754  0.3687  0.2725  0.1965
18516TIP3    H176963   5.041   4.801   2.811  0.6707  0.7425  0.0126
18516TIP3    H276964   4.973   4.920   2.748 -0.4606  0.3368  0.4459
18517TIP3   OH276965   2.353   4.939   1.277  0.5827  0.1961 -0.2251
18517TIP3    H176966   2.415   4.933   1.204  2.4483  2.9801  0.9403
18517TIP3    H276967   2.296   5.012   1.253 -1.9141 -1.8635 -0.9375
18518TIP3   OH276968   6.625   0.726   6.622  0.9392 -0.4491  0.2276
18518TIP3    H176969   6.627   0.747   6.715  0.0765 -0.2623  0.2144
18518TIP3    H276970   6.698   0.665   6.609  1.5776  0.1618  0.8613
18519TIP3   OH276971   4.773   0.663  14.272  0.0411  0.8554 -0.4083
18519TIP3    H176972   4.778   0.732  14.338  0.7281 -0.5459  1.0778
18519TIP3    H276973   4.860   0.622  14.273 -0.9649 -1.4655  0.4350
18520TIP3   OH276974   6.316   6.037  16.821 -0.2676  0.5855  0.3917
18520TIP3    H176975   6.236   6.049  16.872  0.8687  2.4414  1.8783
18520TIP3    H276976   6.331   6.122  16.779  0.9258  0.2900  0.1813
18521TIP3   OH276977   3.387   6.525   5.358 -0.2301  0.5379  0.8240
18521TIP3    H176978   3.476   6.489   5.356  0.0054  1.0362  1.6994
18521TIP3    H276979   3.358   6.512   5.448 -0.7596  1.0634  0.7347
18522TIP3   OH276980   0.577   3.164   2.546  0.1229  1.2434  0.7285
18522TIP3    H176981   0.610   3.153   2.635  0.9162  1.6558  0.4937
18522TIP3    H276982   0.582   3.077   2.507  1.2117  1.3531  0.6080
18523TIP3   OH276983   2.542   5.590  16.177 -0.1480 -0.2182 -0.1484
18523TIP3    H176984   2.463   5.634  16.209  0.6328 -0.5881  2.5220
18523TIP3    H276985   2.596   5.661  16.143 -0.3846  0.4437  0.8178
18524TIP3   OH276986   6.409   2.945  12.565 -0.1124 -0.3033  0.6347
18524TIP3    H176987   6.319   2.956  12.535 -0.3650 -0.0801  1.4318
18524TIP3    H276988   6.401   2.886  12.641  0.2916  0.4523  1.2804
18525TIP3   OH276989   5.372   4.140   4.537 -0.3927 -0.7298 -0.0035
18525TIP3    H176990   5.413   4.195   4.604 -0.6875 -2.9240  2.1236
18525TIP3    H276991   5.432   4.143   4.462  0.6509  0.7363  0.8540
18526TIP3   OH276992   4.865   4.719  13.371 -0.1693 -0.0333 -0.3214
18526TIP3    H176993   4.788   4.673  13.403  0.1912 -0.0403  0.5574
18526TIP3    H276994   4.856   4.808  13.404 -0.0070  0.0813 -0.5750
18527TIP3   OH276995   4.033   0.228   5.597 -0.0102 -0.1854 -0.2086
18527TIP3    H176996   4.054   0.307   5.646  0.4431 -0.6113  0.3105
18527TIP3    H276997   4.110   0.172   5.609  0.6739  0.1743 -2.4664
18528TIP3   OH276998   1.383   1.097   4.543  0.0294 -0.4567 -0.2384
18528TIP3    H176999   1.478   1.082   4.544 -0.1961 -2.5688 -2.1654
18528TIP3    H277000   1.373   1.184   4.505  1.2026 -1.3816 -2.8812
18529TIP3   OH277001   2.947   0.821   3.238  0.3520 -0.1236  0.3459
18529TIP3    H177002   3.007   0.802   3.310 -0.0361  0.6418  0.8903
18529TIP3    H277003   2.892   0.892   3.271 -0.5000 -0.4496 -0.3370
18530TIP3   OH277004   3.705   6.539  12.096 -0.2148  0.5916  0.6299
18530TIP3    H177005   3.637   6.475  12.117  0.0499 -1.0396 -2.7590
18530TIP3    H277006   3.664   6.596  12.031  1.2647  0.2497 -0.6668
18531TIP3   OH277007   1.726   0.077   0.911 -0.4523  0.1338 -0.0489
18531TIP3    H177008   1.781   0.024   0.969  0.1773 -0.0881 -0.8246
18531TIP3    H277009   1.675   0.012   0.861  1.0243  0.1692 -1.6967
18532TIP3   OH277010   1.784   0.341  16.704 -0.3662  0.6807  0.4646
18532TIP3    H177011   1.821   0.262  16.664  3.2984  1.4206  1.9918
18532TIP3    H277012   1.723   0.308  16.770 -0.5746 -0.7296 -0.3747
18533TIP3   OH277013   3.367   1.477  15.178  0.2305 -0.5012 -0.0487
18533TIP3    H177014   3.447   1.502  15.133 -1.1176 -0.6329 -2.7373
18533TIP3    H277015   3.353   1.545  15.244  1.2806  0.8597 -1.1856
18534TIP3   OH277016   5.408   5.654   5.595  0.2066 -0.5360  0.1042
18534TIP3    H177017   5.334   5.697   5.637 -1.2672 -2.4265 -0.4305
18534TIP3    H277018   5.427   5.579   5.652  0.3527 -1.2301 -0.8341
18535TIP3   OH277019   4.361   1.540  17.039  0.1928 -0.4115  0.0510
18535TIP3    H177020   4.353   1.595  17.117 -0.9213 -0.9248  0.3257
18535TIP3    H277021   4.429   1.582  16.987 -0.0183  0.7241  0.6539
18536TIP3   OH277022   6.579   2.074  15.789 -0.5570  0.1949  0.1306
18536TIP3    H177023   6.597   2.154  15.839 -0.6853  1.2986 -1.5063
18536TIP3    H277024   6.665   2.046  15.757 -0.5802 -0.0178  0.2521
18537TIP3   OH277025   6.591   5.340   5.475 -0.1451 -0.4893 -0.0626
18537TIP3    H177026   6.681   5.371   5.461 -0.6109  0.4476 -1.1680
18537TIP3    H277027   6.573   5.283   5.400 -1.1157  0.9108 -0.9543
18538TIP3   OH277028   3.534   6.210   4.635 -0.3949 -0.2945  0.3956
18538TIP3    H177029   3.471   6.139   4.648 -0.7511 -0.0236  0.1383
18538TIP3    H277030   3.503   6.256   4.557 -0.1868  0.1677  0.5834
18539TIP3   OH277031   5.767   1.990  14.512 -0.4268  0.2179 -0.5954
18539TIP3    H177032   5.679   1.952  14.513 -0.3001 -0.0772 -0.6339
18539TIP3    H277033   5.821   1.923  14.471 -0.9595  1.9985 -4.8517
18540TIP3   OH277034   6.295   2.674   3.286  1.1284 -0.0369  0.6558
18540TIP3    H177035   6.338   2.695   3.203  0.6758 -1.0701  0.1411
18540TIP3    H277036   6.277   2.580   3.280  1.3316 -0.1800  2.0401
18541TIP3   OH277037   1.037   2.691   2.787  0.5697 -0.3082  0.0019
18541TIP3    H177038   1.096   2.728   2.721 -0.2041 -1.4166 -1.3747
18541TIP3    H277039   1.082   2.705   2.870  1.9955  0.3451 -0.8387
18542TIP3   OH277040   5.743   5.315  12.179  0.0000  0.1666  0.3886
18542TIP3    H177041   5.716   5.379  12.244  2.0017  0.5205  0.9477
18542TIP3    H277042   5.720   5.354  12.095  1.2896  1.7505  0.7092
18543TIP3   OH277043   6.720   4.347  13.605 -0.0308  0.2832 -0.4490
18543TIP3    H177044   6.642   4.306  13.567 -0.3254  0.4920 -0.0831
18543TIP3    H277045   6.689   4.383  13.688 -0.0304  2.1095 -1.1888
18544TIP3   OH277046   5.487   1.348   5.750 -0.1060  0.3466  0.2465
18544TIP3    H177047   5.412   1.300   5.784  0.4289 -0.1919  0.6869
18544TIP3    H277048   5.507   1.305   5.667 -1.4470  1.6972 -0.8381
18545TIP3   OH277049   5.950   1.550   2.045  0.2112  0.1681 -0.2608
18545TIP3    H177050   6.014   1.526   1.978  1.4312  0.3668  0.7795
18545TIP3    H277051   5.885   1.603   1.999 -0.1328 -1.4063 -1.6898
18546TIP3   OH277052   2.539   1.881  12.852 -0.2972 -0.0049 -0.1366
18546TIP3    H177053   2.577   1.949  12.797 -1.3210  2.8455  2.4168
18546TIP3    H277054   2.457   1.857  12.807  1.2602 -1.6081 -2.3774
18547TIP3   OH277055   2.585   4.301   4.699  0.3100  0.3343  0.0645
18547TIP3    H177056   2.526   4.348   4.757  0.4170  1.0588 -0.3932
18547TIP3    H277057   2.672   4.314   4.737  0.4098  1.0109 -0.3642
18548TIP3   OH277058   3.098   2.702  11.221  0.6006 -0.2307  0.2790
18548TIP3    H177059   3.103   2.707  11.317 -0.0550 -0.2073  0.3177
18548TIP3    H277060   3.188   2.684  11.193  0.5213 -2.0068  1.0216
18549TIP3   OH277061   6.664   1.744   4.688  0.2043 -0.3427  0.1626
18549TIP3    H177062   6.700   1.809   4.626  1.6149  1.2170  2.4646
18549TIP3    H277063   6.647   1.667   4.634  2.2244  0.6086 -2.0285
18550TIP3   OH277064   0.353   3.183  15.867 -0.3903 -0.0815 -0.5616
18550TIP3    H177065   0.371   3.174  15.773 -0.1354  0.5965 -0.5850
18550TIP3    H277066   0.323   3.273  15.877 -0.1056 -0.0496  0.0543
18551TIP3   OH277067   5.663   5.421  13.543 -0.2702  0.6190  0.0808
18551TIP3    H177068   5.641   5.494  13.486  0.5253  0.0326 -1.0166
18551TIP3    H277069   5.613   5.347  13.508 -0.5025  0.4645  0.7275
18552TIP3   OH277070   4.437   0.106  12.439 -0.2686 -0.3570  0.3540
18552TIP3    H177071   4.437   0.152  12.355 -2.1488  0.5345  0.8027
18552TIP3    H277072   4.513   0.141  12.486 -0.7839  1.1946  0.0904
18553TIP3   OH277073   6.316   3.934   0.653  0.4114 -0.2425  0.1936
18553TIP3    H177074   6.332   3.950   0.746 -1.3000 -1.7069  0.8083
18553TIP3    H277075   6.227   3.966   0.638  0.2449 -1.0343 -0.6364
18554TIP3   OH277076   4.950   6.396   0.266  0.6158 -0.0457  0.2033
18554TIP3    H177077   4.910   6.449   0.335 -1.1749  0.3917 -1.0933
18554TIP3    H277078   4.978   6.316   0.310 -2.6063 -0.8112  1.1307
18555TIP3   OH277079   0.801   0.202  12.012  0.1272  0.5860  0.3306
18555TIP3    H177080   0.819   0.110  11.992  0.5946  1.0076 -1.3351
18555TIP3    H277081   0.738   0.199  12.084  0.8841 -1.0126  0.9904
18556TIP3   OH277082   1.005   6.336  12.677 -0.9777  0.3627  0.0285
18556TIP3    H177083   1.025   6.423  12.713 -1.1733  1.2157 -1.7941
18556TIP3    H277084   0.954   6.293  12.746  0.6647  0.9581  1.7183
18557TIP3   OH277085   3.150   5.836   2.060 -0.2086  0.4993 -0.1818
18557TIP3    H177086   3.137   5.844   1.966  2.3993  2.6979 -0.4347
18557TIP3    H277087   3.145   5.925   2.094  0.2107 -0.1002  1.5958
18558TIP3   OH277088   3.186   5.580  15.903  0.3614  0.2629 -0.0704
18558TIP3    H177089   3.161   5.531  15.826 -1.4961  1.3789 -0.2424
18558TIP3    H277090   3.153   5.529  15.977 -1.5170  1.1319 -0.2463
18559TIP3   OH277091   3.271   4.923  15.408  0.0184  0.3124 -0.7579
18559TIP3    H177092   3.292   4.850  15.466 -0.6549  0.0194 -0.8765
18559TIP3    H277093   3.347   4.930  15.351  0.5361  0.3788 -0.0720
18560TIP3   OH277094   6.201   0.217  16.087 -0.3233  0.3562 -0.2408
18560TIP3    H177095   6.260   0.241  16.016 -0.7509 -0.6779 -0.9672
18560TIP3    H277096   6.129   0.171  16.044 -1.0745  0.5642  0.7611
18561TIP3   OH277097   1.165   6.443  13.870 -0.2370  1.0493 -0.5000
18561TIP3    H177098   1.245   6.485  13.902 -2.3813  2.9940  2.8899
18561TIP3    H277099   1.113   6.514  13.835 -1.9987  0.5156  0.8940
18562TIP3   OH277100   0.685   2.092   4.438 -0.5051 -0.0458  0.9231
18562TIP3    H177101   0.691   2.058   4.349 -3.5282  2.3041 -0.3491
18562TIP3    H277102   0.660   2.017   4.491  1.1069 -1.4351 -0.1862
18563TIP3   OH277103   6.729   2.339   2.268 -0.0356 -0.6009 -0.0897
18563TIP3    H177104   6.815   2.307   2.295 -0.3831 -0.7225  0.9253
18563TIP3    H277105   6.708   2.291   2.188  0.2580 -1.5554  0.3975
18564TIP3   OH277106   4.092   0.239   0.890 -0.2478 -0.5565 -0.2593
18564TIP3    H177107   4.031   0.241   0.963  0.2146 -0.2302  0.1222
18564TIP3    H277108   4.060   0.306   0.830 -0.7865 -1.0132 -0.4925
18565TIP3   OH277109   1.522   0.974   5.941  0.6374  0.4285  0.2714
18565TIP3    H177110   1.546   1.061   5.910  2.2206 -0.0262  0.1731
18565TIP3    H277111   1.554   0.971   6.032  0.6663 -0.0778  0.2488
18566TIP3   OH277112   4.966   6.555  15.937  0.3023  0.2694 -0.0794
18566TIP3    H177113   5.052   6.548  15.894  0.8106 -1.8058  1.1512
18566TIP3    H277114   4.986   6.551  16.030 -1.1800 -1.6233  0.2138
18567TIP3   OH277115   3.221   6.200  16.999  0.1019  0.1909 -0.3829
18567TIP3    H177116   3.169   6.278  17.015  0.3721  0.3151 -0.0990
18567TIP3    H277117   3.248   6.207  16.908  3.0932  2.2527  0.4917
18568TIP3   OH277118   2.472   6.386   1.237  0.2748 -0.1115 -0.4426
18568TIP3    H177119   2.431   6.395   1.323 -1.9257 -1.0555 -1.3230
18568TIP3    H277120   2.423   6.446   1.181  1.6347  0.4448 -1.0805
18569TIP3   OH277121   1.991   1.171   5.998  0.4051 -0.3618 -0.3363
18569TIP3    H177122   2.075   1.202   6.032 -0.3465  0.7667  0.5527
18569TIP3    H277123   1.965   1.102   6.058 -0.0422  0.3748  0.3362
18570TIP3   OH277124   1.382   0.863   4.296  0.0048  0.4165  0.1068
18570TIP3    H177125   1.336   0.878   4.379  1.8566  1.5725  1.0108
18570TIP3    H277126   1.397   0.951   4.261 -0.3598 -0.0441 -1.2578
18571TIP3   OH277127   3.515   4.450  12.806  0.0698  0.3307  0.3014
18571TIP3    H177128   3.608   4.447  12.785 -0.4634  0.5616 -2.4914
18571TIP3    H277129   3.502   4.378  12.868  1.6785 -1.3424 -1.1865
18572TIP3   OH277130   5.636   4.946  12.760  0.2236  0.6060 -0.1453
18572TIP3    H177131   5.710   4.935  12.700  1.1146  0.2787  0.9832
18572TIP3    H277132   5.586   4.864  12.751  1.3162 -0.1899  0.8230
18573TIP3   OH277133   3.325   5.020   0.530 -0.0572 -0.4737  0.0392
18573TIP3    H177134   3.308   4.928   0.550 -0.0504 -0.7449 -1.1098
18573TIP3    H277135   3.281   5.068   0.600 -0.3316 -1.3372  0.4794
18574TIP3   OH277136   5.557   1.773   5.502  0.5674 -0.1899 -0.3458
18574TIP3    H177137   5.651   1.787   5.485  0.0706 -0.0274 -3.6027
18574TIP3    H277138   5.546   1.678   5.498  0.1824 -0.1393 -3.6258
18575TIP3   OH277139   0.996   6.270   0.068 -0.7232 -0.1977  0.3215
18575TIP3    H177140   1.028   6.347   0.023 -0.1429 -0.3913  0.3932
18575TIP3    H277141   1.043   6.197   0.028 -0.8612 -0.4592  0.6257
18576TIP3   OH277142   5.477   1.725  12.099 -0.2242 -0.0796  0.6561
18576TIP3    H177143   5.447   1.812  12.074 -1.8387 -1.2256 -1.7890
18576TIP3    H277144   5.555   1.741  12.152 -0.4715  2.8158  0.3226
18577TIP3   OH277145   4.984   6.382  12.760  0.1009 -0.5188 -0.3648
18577TIP3    H177146   4.910   6.401  12.817  0.0082 -2.1010  0.0888
18577TIP3    H277147   4.977   6.446  12.689 -1.2914 -0.2102  0.0323
18578TIP3   OH277148   6.388   4.383   4.188  0.0363  0.2460  0.1134
18578TIP3    H177149   6.439   4.363   4.110  1.3634 -0.7637  1.1769
18578TIP3    H277150   6.327   4.310   4.197  0.1184  0.1875  0.2006
18579TIP3   OH277151   0.301   6.719  14.974  0.5514  0.4465  0.2701
18579TIP3    H177152   0.294   6.633  15.016 -2.3265  0.5509  0.1810
18579TIP3    H277153   0.234   6.772  15.017  0.8819  2.0461 -1.0798
18580TIP3   OH277154   0.855   6.463   5.553  0.1487 -0.1130 -0.5484
18580TIP3    H177155   0.813   6.387   5.594 -1.1309  1.1605  0.6174
18580TIP3    H277156   0.837   6.536   5.614  1.8196  1.0163 -1.3439
18581TIP3   OH277157   1.484   0.642   3.724  0.6661 -0.1320  0.0523
18581TIP3    H177158   1.575   0.634   3.752  0.6616 -0.5378 -0.0491
18581TIP3    H277159   1.437   0.577   3.776  0.4903 -0.1737 -0.1577
18582TIP3   OH277160   6.337   6.384  11.773  0.3594  0.2147 -0.4139
18582TIP3    H177161   6.315   6.427  11.690  0.2559  0.3055 -0.3386
18582TIP3    H277162   6.325   6.452  11.839  0.0663  0.0327 -0.2779
18583TIP3   OH277163   0.844   3.098   1.199  0.8505 -0.0917  0.0285
18583TIP3    H177164   0.903   3.121   1.127  0.3927  1.5301  0.1218
18583TIP3    H277165   0.766   3.062   1.157  1.7706 -2.0361 -0.1064
18584TIP3   OH277166   2.459   6.629  14.206  0.5285 -0.7426  0.5464
18584TIP3    H177167   2.395   6.567  14.239 -0.9491  0.1259 -0.5205
18584TIP3    H277168   2.428   6.714  14.237  1.2584 -0.3215  0.1561
18585TIP3   OH277169   4.028   3.222   3.236  0.2557  0.2676 -0.2301
18585TIP3    H177170   3.934   3.201   3.240  0.0216  1.3182  0.0747
18585TIP3    H277171   4.053   3.235   3.327  1.0726 -1.4951 -0.1698
18586TIP3   OH277172   5.121   5.721   6.235 -0.0416 -0.2554  0.1546
18586TIP3    H177173   5.095   5.683   6.319  0.8485  0.2540  0.6833
18586TIP3    H277174   5.152   5.809   6.257 -0.3116  0.0909 -0.7889
18587TIP3   OH277175   2.940   1.194  13.544 -0.3291  0.0451  0.0935
18587TIP3    H177176   2.878   1.265  13.528 -1.0958  0.1538  3.0468
18587TIP3    H277177   2.889   1.127  13.589  1.5760  0.1258  2.6278
18588TIP3   OH277178   3.941   2.521   5.123  0.3895 -0.8345 -0.3020
18588TIP3    H177179   4.008   2.588   5.115 -0.3125 -0.3242 -2.6035
18588TIP3    H277180   3.986   2.439   5.102  0.4870 -0.6171 -0.9344
18589TIP3   OH277181   4.496   2.481   1.368 -0.4363 -0.4294  0.2667
18589TIP3    H177182   4.499   2.385   1.371  1.7979 -0.5064 -1.3604
18589TIP3    H277183   4.420   2.501   1.313  0.3913 -1.4114 -1.3194
18590TIP3   OH277184   4.982   6.008  12.678 -0.3961  0.1230 -0.7846
18590TIP3    H177185   4.994   5.929  12.626  0.2732  0.4574 -1.1555
18590TIP3    H277186   4.894   6.000  12.715 -1.0654  0.1023 -2.3361
18591TIP3   OH277187   0.673   4.099   5.572 -0.7693  0.4681 -0.2504
18591TIP3    H177188   0.592   4.105   5.623  0.0985  0.1190  1.2419
18591TIP3    H277189   0.660   4.023   5.515 -1.2995  0.0939  0.3491
18592TIP3   OH277190   3.010   1.322   1.548  0.2742  0.2555 -0.6936
18592TIP3    H177191   3.100   1.347   1.526  0.0766  1.0157 -0.6609
18592TIP3    H277192   2.990   1.373   1.627 -0.3301  0.4073 -0.9436
18593TIP3   OH277193   0.721   3.320   4.107  0.1877  0.0149 -0.1601
18593TIP3    H177194   0.752   3.406   4.079 -1.5823  0.4163 -1.0083
18593TIP3    H277195   0.751   3.260   4.038 -2.4044  0.6912 -1.9915
18594TIP3   OH277196   2.838   2.997  12.010 -0.3553 -0.4994  0.8446
18594TIP3    H177197   2.907   2.956  12.062 -0.0124 -1.7205 -0.5069
18594TIP3    H277198   2.756   2.967  12.049 -0.1142 -0.7715  1.1390
18595TIP3   OH277199   2.467   5.004  11.969  0.6876 -0.0863  0.0504
18595TIP3    H177200   2.559   4.981  11.952  0.0947 -1.6310 -1.3813
18595TIP3    H277201   2.424   4.993  11.884 -0.6416  1.7113  0.4384
18596TIP3   OH277202   6.253   5.239  17.027 -0.1184 -0.4491  0.6413
18596TIP3    H177203   6.190   5.301  17.064 -2.1218 -0.2390 -2.7544
18596TIP3    H277204   6.323   5.295  16.993  1.0596 -0.5658  2.6845
18597TIP3   OH277205   3.786   0.731   3.326  0.0405  0.8658  0.7435
18597TIP3    H177206   3.848   0.674   3.281 -0.1063  1.6687 -0.5408
18597TIP3    H277207   3.736   0.673   3.382  0.3750 -0.1620  0.0045
18598TIP3   OH277208   4.994   5.695   3.230  0.5653  0.1651 -0.3623
18598TIP3    H177209   5.050   5.766   3.262  0.8178  0.5380 -1.5443
18598TIP3    H277210   4.931   5.680   3.300  2.8539 -1.1060  1.5316
18599TIP3   OH277211   6.058   0.840  14.207 -0.2890 -0.0392  0.6098
18599TIP3    H177212   6.073   0.933  14.189  1.3984  0.4550  3.8781
18599TIP3    H277213   6.145   0.800  14.199 -0.8682 -1.2125  0.0033
18600TIP3   OH277214   1.605   4.405   3.148  0.4585  0.1363  0.5520
18600TIP3    H177215   1.559   4.436   3.069  0.6281  0.2912  0.5148
18600TIP3    H277216   1.689   4.372   3.115  0.0362 -0.9643  0.4986
18601TIP3   OH277217   3.480   1.399   5.565 -0.3019 -0.4597 -0.2939
18601TIP3    H177218   3.386   1.390   5.551 -1.2125 -0.3320  4.0607
18601TIP3    H277219   3.513   1.310   5.572 -0.7177 -0.5469  0.8119
18602TIP3   OH277220   4.324   6.316   1.789 -0.1223  0.5193  0.0496
18602TIP3    H177221   4.262   6.389   1.781 -0.5193  0.2099  0.3429
18602TIP3    H277222   4.276   6.240   1.757  0.4121  0.4442 -0.6008
18603TIP3   OH277223   1.204   6.351  16.082  0.7958  0.1601  0.2675
18603TIP3    H177224   1.292   6.361  16.044 -1.1254  2.4465 -4.2977
18603TIP3    H277225   1.179   6.261  16.061  0.7545  0.6249 -1.9304
18604TIP3   OH277226   6.377   4.422   1.043  0.6628  0.5939 -0.7135
18604TIP3    H177227   6.425   4.484   0.990  1.7966  0.2253 -0.1532
18604TIP3    H277228   6.285   4.437   1.021  1.0478  1.0816 -2.0520
18605TIP3   OH277229   2.962   2.188   1.359  0.0787  0.0269 -0.6710
18605TIP3    H177230   2.984   2.098   1.384 -0.8721 -0.2014 -0.6396
18605TIP3    H277231   3.045   2.224   1.326  0.6937 -0.5490  0.2018
18606TIP3   OH277232   4.368   0.674  12.152  0.1511  0.3906  0.6108
18606TIP3    H177233   4.414   0.729  12.089  0.3923  1.1108  1.4022
18606TIP3    H277234   4.356   0.730  12.229 -1.3721 -0.0226  0.7115
18607TIP3   OH277235   4.461   5.821  12.891  0.4346 -0.0810  0.2703
18607TIP3    H177236   4.463   5.915  12.907 -0.6104 -0.0102  0.0904
18607TIP3    H277237   4.384   5.791  12.940  0.9563 -0.8928  0.6036
18608TIP3   OH277238   1.699   2.129  11.116  0.1023 -0.4782 -0.4494
18608TIP3    H177239   1.734   2.160  11.033  0.9526 -0.5290 -0.1140
18608TIP3    H277240   1.696   2.207  11.172 -3.6231  0.3517 -1.5013
18609TIP3   OH277241   0.199   3.966  12.368 -0.3595 -0.3204 -0.1702
18609TIP3    H177242   0.182   4.053  12.333 -0.0297  0.5320  1.6845
18609TIP3    H277243   0.255   3.981  12.444  0.0086 -2.1895 -0.0125
18610TIP3   OH277244   1.933   0.101   1.346 -0.3670  0.0325  0.8061
18610TIP3    H177245   2.000   0.086   1.413 -1.1274 -0.9400  1.3685
18610TIP3    H277246   1.897   0.014   1.328  0.5732  0.0878 -1.6859
18611TIP3   OH277247   1.004   0.018   2.397  0.2361 -0.1044 -0.1669
18611TIP3    H177248   1.094   0.010   2.427  0.4846  1.3175 -0.4652
18611TIP3    H277249   0.963  -0.066   2.419  1.9103 -1.1793 -0.9953
18612TIP3   OH277250   6.185   0.346   4.215 -0.7577 -0.1266 -0.2771
18612TIP3    H177251   6.125   0.303   4.277  2.1372 -1.6360  1.7317
18612TIP3    H277252   6.197   0.282   4.145  0.2500 -0.8595  0.5327
18613TIP3   OH277253   4.550   4.297  12.368  0.0180 -0.2207  0.0559
18613TIP3    H177254   4.479   4.248  12.410 -0.2362 -0.5070 -0.6971
18613TIP3    H277255   4.571   4.366  12.431 -0.3951 -0.6045  0.6304
18614TIP3   OH277256   4.904   2.381  11.543  0.5574 -0.0617 -0.1516
18614TIP3    H177257   4.838   2.311  11.549  0.0195  0.4521 -0.0296
18614TIP3    H277258   4.965   2.350  11.476 -0.6686  0.1507 -1.4229
18615TIP3   OH277259   0.055   2.407   1.115  0.6541 -0.6466 -1.0253
18615TIP3    H177260   0.073   2.412   1.208  0.9706 -1.7732 -1.0071
18615TIP3    H277261   0.140   2.388   1.075  0.3674 -1.0819 -1.4475
18616TIP3   OH277262   3.052   5.568  11.423  0.1132 -0.2053 -0.2944
18616TIP3    H177263   3.041   5.518  11.504  1.6824 -0.0938  0.0182
18616TIP3    H277264   3.116   5.518  11.373 -0.1526  0.2188 -1.0752
18617TIP3   OH277265   2.291   5.850   4.637 -0.1624 -0.6672 -0.0155
18617TIP3    H177266   2.230   5.792   4.591  0.7365 -1.2441 -0.4931
18617TIP3    H277267   2.342   5.792   4.693 -0.3473 -0.1255  0.7350
18618TIP3   OH277268   2.261   3.727  16.004  0.0614  0.7269 -0.5339
18618TIP3    H177269   2.300   3.650  16.046  0.0842  1.1632  0.2656
18618TIP3    H277270   2.239   3.697  15.915  1.4657  0.2287 -0.7460
18619TIP3   OH277271   1.612   0.369   5.122  0.4918 -0.1604  0.6059
18619TIP3    H177272   1.682   0.430   5.096  1.8685 -0.5903  2.9654
18619TIP3    H277273   1.647   0.282   5.103 -1.0631 -0.3361 -1.8180
18620TIP3   OH277274   2.057   4.960   2.561  0.4264  0.2515 -0.0120
18620TIP3    H177275   2.010   4.952   2.478  0.2663 -0.3416  0.1279
18620TIP3    H277276   2.002   4.912   2.624  0.8428  0.1878  0.3080
18621TIP3   OH277277   1.485   0.271   5.715 -0.0129 -0.4237 -0.4456
18621TIP3    H177278   1.431   0.320   5.653  1.9606  1.9173 -0.5071
18621TIP3    H277279   1.426   0.251   5.788 -1.9454 -1.7169 -2.2429
18622TIP3   OH277280   4.906   4.495   2.148  0.1644  0.3843 -0.3072
18622TIP3    H177281   4.920   4.569   2.089  1.5381  0.3839 -0.0200
18622TIP3    H277282   4.845   4.438   2.102  1.0074  0.5074 -1.6160
18623TIP3   OH277283   5.214   6.090  11.281 -0.3865 -0.5433 -0.3523
18623TIP3    H177284   5.218   6.012  11.336  0.2678 -0.7566 -0.6844
18623TIP3    H277285   5.121   6.104  11.264 -0.4652 -1.9200 -1.2054
18624TIP3   OH277286   1.605   5.114   4.161 -0.2776  0.4411 -0.3236
18624TIP3    H177287   1.606   5.084   4.070  1.3246  1.0446 -0.5388
18624TIP3    H277288   1.553   5.048   4.207 -0.9245  0.0021 -1.6263
18625TIP3   OH277289   2.660   5.517   1.928  0.2628 -0.2059 -0.3610
18625TIP3    H177290   2.753   5.495   1.919 -0.0261 -1.8171  0.2501
18625TIP3    H277291   2.625   5.451   1.988 -1.5533 -0.4294 -1.5689
18626TIP3   OH277292   4.605   5.846   4.219  0.1514  0.4524 -0.3502
18626TIP3    H177293   4.611   5.938   4.196 -1.3467  0.3802 -1.1562
18626TIP3    H277294   4.544   5.843   4.293 -1.4618 -0.0402 -1.6423
18627TIP3   OH277295   0.490   3.155  13.934  0.1440 -0.2042 -0.0811
18627TIP3    H177296   0.517   3.185  14.021 -1.7850  0.4425  0.3326
18627TIP3    H277297   0.491   3.233  13.880 -0.6886 -0.2151 -0.1106
18628TIP3   OH277298   0.623   3.018   4.050 -0.4478 -0.1889  0.4601
18628TIP3    H177299   0.576   3.079   4.106 -1.2724  1.4941 -1.8735
18628TIP3    H277300   0.555   2.972   4.001  0.2137  0.5839 -1.2795
18629TIP3   OH277301   5.916   0.882  13.513 -0.0913 -0.5292  0.1757
18629TIP3    H177302   6.006   0.897  13.485 -1.3579  1.6371 -3.4726
18629TIP3    H277303   5.914   0.913  13.603  2.6296  0.1137  0.1169
18630TIP3   OH277304   6.383   3.802  16.654 -0.1531 -0.7427 -0.4703
18630TIP3    H177305   6.462   3.774  16.700  0.2432 -1.0449 -1.3155
18630TIP3    H277306   6.325   3.726  16.658 -0.7167 -0.2714  0.8027
18631TIP3   OH277307   4.371   3.141  15.168  0.0420  0.5244 -0.2890
18631TIP3    H177308   4.315   3.218  15.170  1.0475  1.6336 -4.5875
18631TIP3    H277309   4.453   3.170  15.208 -0.0192  1.2694 -0.6985
18632TIP3   OH277310   0.767   6.382   3.411  0.4633  0.2443 -0.3833
18632TIP3    H177311   0.814   6.456   3.373  1.8236  1.0761  2.6133
18632TIP3    H277312   0.832   6.313   3.417 -0.3060 -0.6038 -1.4421
18633TIP3   OH277313   2.469   6.607  17.191 -0.0230  0.1458 -0.5889
18633TIP3    H177314   2.496   6.697  17.212  0.4439  0.4430 -2.2914
18633TIP3    H277315   2.403   6.586  17.256 -0.5897  1.9657 -0.5228
18634TIP3   OH277316   2.077   3.408   3.140  0.5502  0.0638 -0.4035
18634TIP3    H177317   2.142   3.385   3.074  0.2942  1.8877 -1.3465
18634TIP3    H277318   2.063   3.502   3.129 -0.0473  0.2978  1.7734
18635TIP3   OH277319   1.318   1.200  14.763 -0.2360 -0.4233  0.8047
18635TIP3    H177320   1.298   1.111  14.792 -2.6190 -0.1927  0.0750
18635TIP3    H277321   1.257   1.256  14.811 -0.7960  0.4856 -0.8595
18636TIP3   OH277322   5.427   1.497   0.429 -0.2492  0.1642 -0.2138
18636TIP3    H177323   5.504   1.527   0.477 -1.1337  2.5066 -0.1208
18636TIP3    H277324   5.457   1.419   0.382  1.6411 -0.0696  1.2277
18637TIP3   OH277325   6.751   4.302  15.786  0.7312  0.4855  0.1393
18637TIP3    H177326   6.702   4.291  15.867 -0.2684 -2.2694 -0.7301
18637TIP3    H277327   6.802   4.382  15.799  0.5775  0.1587  3.4408
18638TIP3   OH277328   1.983   5.427  16.457 -0.4557 -0.1317 -0.2372
18638TIP3    H177329   1.998   5.489  16.386 -2.8311  0.2751 -0.4696
18638TIP3    H277330   1.967   5.344  16.412 -0.4949 -0.1984 -0.0976
18639TIP3   OH277331   4.868   1.487  14.676  0.0415  0.3227  0.0322
18639TIP3    H177332   4.832   1.490  14.765 -0.8214  1.2648 -0.3251
18639TIP3    H277333   4.869   1.394  14.653  0.3310  0.0632  1.0429
18640TIP3   OH277334   6.026   6.135   4.854 -0.4880 -0.0605 -0.1431
18640TIP3    H177335   6.078   6.190   4.796  0.4540 -0.1191  0.6230
18640TIP3    H277336   5.947   6.116   4.804 -0.3898  1.1544 -0.8062
18641TIP3   OH277337   5.686   0.191   1.184 -0.1831 -0.6385  0.8381
18641TIP3    H177338   5.746   0.244   1.132 -1.5378  1.3498  1.1807
18641TIP3    H277339   5.694   0.103   1.147  1.3608  0.0078 -0.4901
18642TIP3   OH277340   0.177   5.198   0.521  0.5517  0.0112  0.1265
18642TIP3    H177341   0.248   5.204   0.458 -0.0507  1.8493 -0.4387
18642TIP3    H277342   0.163   5.104   0.534  2.6075 -0.3787 -0.2600
18643TIP3   OH277343   5.911   2.989   4.638  0.1379  0.4583 -0.1472
18643TIP3    H177344   5.925   2.917   4.700 -2.3320  0.9470  1.1324
18643TIP3    H277345   5.817   3.006   4.643  0.1927  1.8728 -2.5943
18644TIP3   OH277346   2.443   3.011  13.948  0.0904 -0.2469  0.4937
18644TIP3    H177347   2.449   2.979  14.038 -2.7003  0.3403  0.9673
18644TIP3    H277348   2.498   3.089  13.947  1.6139 -1.2458  1.1356
18645TIP3   OH277349   4.663   1.706  12.761 -0.1259  0.4407 -0.3423
18645TIP3    H177350   4.603   1.646  12.805 -1.1555  2.0078  0.5044
18645TIP3    H277351   4.644   1.696  12.668 -2.2229  1.3552 -0.0603
18646TIP3   OH277352   6.102   4.696  11.816  0.0907  0.4175  0.1769
18646TIP3    H177353   6.061   4.638  11.752 -0.9101  0.7866  0.4663
18646TIP3    H277354   6.194   4.670  11.816 -0.2591 -0.8965  0.0077
18647TIP3   OH277355   2.499   5.228   3.690  0.3224 -0.9709 -0.1674
18647TIP3    H177356   2.484   5.135   3.704 -1.5212 -0.9333 -1.4612
18647TIP3    H277357   2.531   5.261   3.774  0.6115 -2.6734  0.4221
18648TIP3   OH277358   3.569   2.561  13.829 -0.4625 -0.7122 -0.1393
18648TIP3    H177359   3.629   2.551  13.755  1.6649  3.2370  0.7991
18648TIP3    H277360   3.531   2.648  13.818  1.6026  1.0643  4.2982
18649TIP3   OH277361   4.631   6.412  13.082 -0.4924  0.4676  0.7254
18649TIP3    H177362   4.554   6.460  13.113 -0.2375  0.3938  1.5126
18649TIP3    H277363   4.620   6.324  13.119 -0.9849 -0.1173 -0.7510
18650TIP3   OH277364   4.737   1.982  13.566  1.1895 -0.2266  0.3710
18650TIP3    H177365   4.686   2.060  13.588 -0.8468 -1.4231  0.1509
18650TIP3    H277366   4.790   1.965  13.644  1.7975  1.4232  0.3651
18651TIP3   OH277367   1.383   4.059  13.093 -0.0779  0.1408  0.2348
18651TIP3    H177368   1.394   4.140  13.142 -0.8280  0.4975 -0.1715
18651TIP3    H277369   1.338   4.085  13.013 -1.3420 -0.8175  0.5980
18652TIP3   OH277370   4.365   2.776   4.278  0.3854 -0.1215 -0.2655
18652TIP3    H177371   4.433   2.713   4.301 -0.4822 -0.3484  1.9767
18652TIP3    H277372   4.305   2.774   4.352  0.2671  3.3082 -0.0899
18653TIP3   OH277373   0.736   5.314   1.910 -0.4534  0.1582 -0.0709
18653TIP3    H177374   0.737   5.363   1.992 -2.1217  1.5170 -0.8158
18653TIP3    H277375   0.674   5.360   1.855 -1.4896 -2.3126 -1.1309
18654TIP3   OH277376   6.064   1.514   0.152 -0.5188  0.4067 -0.0390
18654TIP3    H177377   6.083   1.488   0.242 -2.4995  0.5265  0.4680
18654TIP3    H277378   6.044   1.607   0.158 -0.3263  0.4874 -0.6636
18655TIP3   OH277379   4.687   4.692  16.293  0.3622  0.1699 -0.7120
18655TIP3    H177380   4.667   4.602  16.320  0.7166  1.0260  2.9365
18655TIP3    H277381   4.782   4.693  16.281  0.4666  0.2165  0.0689
18656TIP3   OH277382   3.606   6.489   1.391 -0.2340  0.2671 -0.1843
18656TIP3    H177383   3.515   6.473   1.415  0.0216 -3.4765 -1.1187
18656TIP3    H277384   3.601   6.536   1.307 -1.3554 -0.9613 -0.8352
18657TIP3   OH277385   2.529   4.376  17.208  0.0765 -0.4170  0.2162
18657TIP3    H177386   2.622   4.400  17.202 -0.3295  1.0243 -0.5656
18657TIP3    H277387   2.529   4.296  17.261  1.6702  0.1977  1.2226
18658TIP3   OH277388   2.403   6.089   4.718 -0.0399 -0.7980 -0.1369
18658TIP3    H177389   2.340   6.149   4.679 -0.7675 -1.8317 -0.5970
18658TIP3    H277390   2.357   6.005   4.723  0.9784 -1.3489  0.4085
18659TIP3   OH277391   4.100   4.614  16.351  0.0494  0.3012  0.1939
18659TIP3    H177392   4.105   4.681  16.282  0.4188 -0.4623 -0.5392
18659TIP3    H277393   4.029   4.556  16.323 -0.4837  0.5635  0.9936
18660TIP3   OH277394   5.443   1.944  11.052  0.1532 -0.4216 -0.0680
18660TIP3    H177395   5.458   1.851  11.066 -0.6072 -0.3623  1.3308
18660TIP3    H277396   5.393   1.948  10.971 -0.6609 -1.3258  0.3641
18661TIP3   OH277397   4.053   5.969  14.821 -0.0027  0.0644  0.3532
18661TIP3    H177398   4.047   5.916  14.900 -0.4729 -1.8020 -0.8784
18661TIP3    H277399   4.066   6.059  14.854 -0.5502 -0.5823  2.5272
18662TIP3   OH277400   6.689   4.848   1.691 -0.0291  0.0930 -0.0144
18662TIP3    H177401   6.670   4.777   1.752  1.7165 -0.3834  0.0293
18662TIP3    H277402   6.719   4.803   1.611 -0.8569  0.7448 -0.7075
18663TIP3   OH277403   6.605   4.890  11.156 -0.3391  0.0067 -0.1577
18663TIP3    H177404   6.696   4.905  11.130  0.0014 -0.7834  0.5498
18663TIP3    H277405   6.574   4.975  11.188 -0.2256  0.5673 -1.4780
18664TIP3   OH277406   1.612   1.217  11.490 -0.3254  0.4536  0.4579
18664TIP3    H177407   1.560   1.276  11.435  0.2483  0.4099 -0.1480
18664TIP3    H277408   1.661   1.163  11.427 -0.9007 -0.7311  0.9923
18665TIP3   OH277409   4.469   0.956  16.134  0.3076  0.5724  0.3457
18665TIP3    H177410   4.448   0.863  16.132 -0.2370  0.6816  0.9550
18665TIP3    H277411   4.542   0.965  16.072 -1.5152  0.2305 -2.0021
18666TIP3   OH277412   4.917   4.448  16.794 -0.3954  0.8986  0.0362
18666TIP3    H177413   4.932   4.406  16.709 -0.0420 -1.3584  1.1207
18666TIP3    H277414   4.970   4.527  16.792  0.7710  0.1340 -1.3230
18667TIP3   OH277415   2.761   1.101   0.264  0.0021 -0.0471 -0.6130
18667TIP3    H177416   2.742   1.011   0.291 -0.8787  0.4134  0.3827
18667TIP3    H277417   2.679   1.132   0.226 -0.4880  1.0951  1.2446
18668TIP3   OH277418   0.830   3.509  16.620  0.0004  0.2297 -0.0279
18668TIP3    H177419   0.919   3.512  16.655  0.7057 -1.6206 -1.4923
18668TIP3    H277420   0.803   3.600  16.613  2.0026  0.8503 -0.0709
18669TIP3   OH277421   1.505   3.161  14.542 -0.2079 -0.0478  0.4966
18669TIP3    H177422   1.451   3.208  14.478 -0.4042 -1.4653 -0.4113
18669TIP3    H277423   1.443   3.107  14.591  0.0037  0.6810  1.5943
18670TIP3   OH277424   4.571   2.266   0.608 -0.1499  0.3512 -0.3295
18670TIP3    H177425   4.512   2.213   0.554  1.7284 -0.8795 -1.3128
18670TIP3    H277426   4.659   2.236   0.583  0.8667  0.3392  2.8204
18671TIP3   OH277427   2.155   0.370   2.721  0.0480  0.1964  0.1903
18671TIP3    H177428   2.123   0.350   2.809 -0.0262 -1.4508 -0.1778
18671TIP3    H277429   2.078   0.402   2.674 -0.2235 -0.1803  0.3679
18672TIP3   OH277430   5.556   6.491  13.646  0.3043  0.3517  0.4705
18672TIP3    H177431   5.593   6.528  13.726  0.6940 -0.5226  0.7045
18672TIP3    H277432   5.478   6.544  13.629 -0.4624 -0.1702  2.0946
18673TIP3   OH277433   4.840   4.053  14.844  0.1345  0.3297 -0.1949
18673TIP3    H177434   4.849   4.025  14.753  0.5963  1.7646 -0.5993
18673TIP3    H277435   4.929   4.069  14.874 -0.1345  1.7961 -0.1233
18674TIP3   OH277436   4.356   2.532  16.313  0.3409 -0.3704 -0.1870
18674TIP3    H177437   4.372   2.593  16.241 -0.3200  0.7416  0.5784
18674TIP3    H277438   4.379   2.582  16.392 -2.7750 -0.1046  0.6715
18675TIP3   OH277439   5.127   5.125  13.694 -0.3672  0.3511 -0.2187
18675TIP3    H177440   5.221   5.136  13.680  0.2165 -2.3088  0.9365
18675TIP3    H277441   5.118   5.115  13.788 -0.9926 -4.1781 -0.5152
18676TIP3   OH277442   2.979   4.771  16.886 -0.9884 -0.7397  0.1985
18676TIP3    H177443   2.960   4.687  16.928 -1.5765 -0.3040  0.8326
18676TIP3    H277444   2.932   4.768  16.803 -0.8458 -1.1172  0.1324
18677TIP3   OH277445   5.175   2.679  14.398  0.3224  0.1650 -0.3097
18677TIP3    H177446   5.242   2.747  14.396 -0.2481  0.7138 -1.1575
18677TIP3    H277447   5.216   2.603  14.357  0.7569  0.1692  0.1038
18678TIP3   OH277448   0.760   0.960  15.921  0.5949  0.3744  0.6530
18678TIP3    H177449   0.759   0.996  15.833 -0.9813  0.1157  0.5504
18678TIP3    H277450   0.799   0.874  15.912  0.0138  0.1636  0.1283
18679TIP3   OH277451   6.667   2.720   6.157  0.0299 -0.0883  0.8362
18679TIP3    H177452   6.636   2.666   6.230 -1.0813  1.2261  1.3676
18679TIP3    H277453   6.589   2.737   6.105  0.8677 -1.3246 -0.9240
18680TIP3   OH277454   2.762   0.229  15.674  0.2079  0.2679 -0.8972
18680TIP3    H177455   2.766   0.295  15.604  0.1880 -1.2000 -2.3435
18680TIP3    H277456   2.854   0.213  15.696  0.1689  2.0341  0.7450
18681TIP3   OH277457   1.202   3.987   0.030  0.2625 -0.0165 -0.5355
18681TIP3    H177458   1.203   4.038  -0.051  0.8420  0.0994 -0.4576
18681TIP3    H277459   1.257   3.911   0.012  1.0581  0.4203  0.0080
18682TIP3   OH277460   6.321   2.513  14.438 -0.0355  0.2105 -0.5672
18682TIP3    H177461   6.393   2.543  14.493  0.0219 -1.8432  0.5471
18682TIP3    H277462   6.268   2.592  14.424  1.5025  1.4020 -0.0408
18683TIP3   OH277463   4.654   6.188   0.711  0.7987 -0.6785 -0.6822
18683TIP3    H177464   4.660   6.177   0.806 -1.2228 -0.9535 -0.5536
18683TIP3    H277465   4.743   6.212   0.684  0.9125  1.8602  1.5820
18684TIP3   OH277466   1.317   0.449   4.540  0.0119 -0.0725 -0.0136
18684TIP3    H177467   1.293   0.412   4.455  0.0630 -1.2906  0.4790
18684TIP3    H277468   1.249   0.514   4.558 -1.1844 -1.2727 -0.0560
18685TIP3   OH277469   3.895   4.678   2.482  0.1541 -0.3948  0.4232
18685TIP3    H177470   3.985   4.672   2.448  0.8685  0.2208  2.0883
18685TIP3    H277471   3.860   4.590   2.471  1.5721 -1.0986  1.2794
18686TIP3   OH277472   0.332   3.965   3.170  0.2957  0.1620 -0.0393
18686TIP3    H177473   0.321   3.872   3.192 -0.7622  0.1344 -0.5984
18686TIP3    H277474   0.248   4.005   3.193  1.2983  1.3469  1.7966
18687TIP3   OH277475   3.366   1.507  16.318 -0.6632 -0.0532 -0.4244
18687TIP3    H177476   3.458   1.503  16.344 -0.7585  0.1426 -0.0518
18687TIP3    H277477   3.342   1.416  16.301 -0.8678 -0.3142  1.1284
18688TIP3   OH277478   4.995   2.022   0.710  0.0426  0.4202 -0.5724
18688TIP3    H177479   5.050   1.973   0.648  0.6230  0.7109 -0.2912
18688TIP3    H277480   5.020   1.990   0.796 -1.0217 -0.2404 -0.4878
18689TIP3   OH277481   2.713   4.337   5.436 -0.8122 -0.2180  0.5363
18689TIP3    H177482   2.779   4.402   5.412 -0.2754 -1.8442 -2.9248
18689TIP3    H277483   2.763   4.255   5.447 -2.0075 -1.0688 -0.1873
18690TIP3   OH277484   3.882   5.055   2.953  0.1411  0.1641 -0.5317
18690TIP3    H177485   3.977   5.044   2.945  0.2058 -0.5860  0.9144
18690TIP3    H277486   3.845   4.988   2.895  0.4811  0.8800 -1.5876
18691TIP3   OH277487   5.894   4.662  12.920  0.2792  0.3253  0.5946
18691TIP3    H177488   5.982   4.654  12.958  1.2831 -0.5721 -1.7217
18691TIP3    H277489   5.882   4.756  12.908  0.4926  0.5282  1.7956
18692TIP3   OH277490   2.836   1.169   4.968  0.5148 -0.6933  0.0955
18692TIP3    H177491   2.802   1.236   5.028 -0.0255 -1.9870  1.2879
18692TIP3    H277492   2.899   1.119   5.021 -1.5928 -3.2586  0.3657
18693TIP3   OH277493   0.650   0.763   6.111  0.1155  0.1038  0.7178
18693TIP3    H177494   0.665   0.822   6.186  1.5883  0.7941 -0.0712
18693TIP3    H277495   0.726   0.777   6.055 -1.2393  0.0502 -1.2204
18694TIP3   OH277496   5.749   5.584   0.761  0.3493 -0.2256  0.2138
18694TIP3    H177497   5.829   5.559   0.714  1.9760  0.8806  2.2483
18694TIP3    H277498   5.709   5.500   0.786  1.6872 -0.7916  0.5006
18695TIP3   OH277499   2.525   1.272   3.276 -0.2993  0.4725 -0.2696
18695TIP3    H177500   2.565   1.307   3.356  1.5242 -0.9588 -0.4942
18695TIP3    H277501   2.576   1.311   3.205 -1.3587  1.0647 -0.7230
18696TIP3   OH277502   2.650   6.455  12.517  0.7968 -0.0225 -0.3789
18696TIP3    H177503   2.709   6.389  12.554  0.6656 -0.3147 -0.6866
18696TIP3    H277504   2.578   6.404  12.480 -1.0159  0.3992  2.3036
18697TIP3   OH277505   5.646   2.988   1.499 -0.2890 -0.1367 -0.2778
18697TIP3    H177506   5.660   2.955   1.588  2.1892  2.2089  0.3493
18697TIP3    H277507   5.717   2.949   1.447 -0.9898 -0.5432 -0.9415
18698TIP3   OH277508   4.062   4.753   6.515  0.7041  0.3395 -0.7595
18698TIP3    H177509   4.129   4.812   6.481  1.3438 -0.5755 -1.1536
18698TIP3    H277510   4.040   4.697   6.440 -0.3498  0.4896 -0.5699
18699TIP3   OH277511   4.552   0.339  14.406 -0.0314  0.5542 -0.4037
18699TIP3    H177512   4.552   0.395  14.484 -0.6096 -2.5318  2.0137
18699TIP3    H277513   4.645   0.323  14.388  0.1017  1.0129 -0.1434
18700TIP3   OH277514   2.081   2.685  14.912 -0.2473 -0.0317 -0.0212
18700TIP3    H177515   2.147   2.709  14.977 -0.8240 -0.2041  0.6468
18700TIP3    H277516   2.000   2.726  14.944 -0.7286 -0.8571 -0.1401
18701TIP3   OH277517   2.420   6.158   5.549 -0.1782  0.4737 -0.0900
18701TIP3    H177518   2.512   6.183   5.540  0.7720 -2.2782  0.9582
18701TIP3    H277519   2.387   6.153   5.459  0.8701  0.8259 -0.5082
18702TIP3   OH277520   0.539   3.937   2.981  0.2728 -0.0553 -0.2193
18702TIP3    H177521   0.473   3.943   3.051  0.5610 -0.4946  0.0987
18702TIP3    H277522   0.581   4.023   2.981  1.0387 -0.3910  0.9385
18703TIP3   OH277523   0.523   4.751  15.006 -0.0156 -0.0984 -0.1251
18703TIP3    H177524   0.510   4.692  15.080 -1.6178 -0.6985 -0.8493
18703TIP3    H277525   0.472   4.712  14.935  0.9285  0.8359 -1.3554
18704TIP3   OH277526   1.356   5.352   4.160  0.5318 -0.3778  0.6768
18704TIP3    H177527   1.329   5.431   4.113  2.0244  0.0102  0.4332
18704TIP3    H277528   1.447   5.369   4.185  0.8323 -1.9635  0.7470
18705TIP3   OH277529   1.789   5.446   1.161  0.9880  0.3624  0.3567
18705TIP3    H177530   1.707   5.398   1.153  1.6258 -0.9631  1.2628
18705TIP3    H277531   1.785   5.487   1.247 -0.2118  3.3583 -1.0015
18706TIP3   OH277532   4.809   3.759  16.205  0.4548 -0.0239  0.2102
18706TIP3    H177533   4.879   3.738  16.143 -0.1096 -1.1438 -0.0639
18706TIP3    H277534   4.732   3.774  16.151 -0.0579 -1.0793  0.6259
18707TIP3   OH277535   2.173   0.966   5.809  0.1599 -0.1841  0.3897
18707TIP3    H177536   2.206   1.011   5.887  0.0194  1.8477 -0.6557
18707TIP3    H277537   2.140   1.037   5.753 -1.0401 -1.7057 -0.9057
18708TIP3   OH277538   6.733   3.007   6.101  0.6506  0.5941 -0.2296
18708TIP3    H177539   6.716   2.919   6.134  1.4533  0.5246  0.0248
18708TIP3    H277540   6.795   3.044   6.163  0.4044  1.2989 -0.4011
18709TIP3   OH277541   0.369   0.606   1.522 -0.1116  1.0096 -0.3097
18709TIP3    H177542   0.310   0.637   1.590 -0.6237 -0.1180 -0.2226
18709TIP3    H277543   0.313   0.594   1.445 -0.6950 -2.8725  0.5460
18710TIP3   OH277544   0.250   6.044  13.183 -0.0976 -0.0213 -0.4001
18710TIP3    H177545   0.238   6.112  13.117  0.8762 -3.2214 -4.2426
18710TIP3    H277546   0.344   6.041  13.200 -0.3543  0.9170  1.4482
18711TIP3   OH277547   4.306   3.887   6.438  0.0527 -0.1904  0.2639
18711TIP3    H177548   4.373   3.918   6.377 -0.0991 -0.8051 -0.2253
18711TIP3    H277549   4.324   3.793   6.448  0.1228 -0.0890  1.2333
18712TIP3   OH277550   4.637   3.066  14.938 -0.2636  0.7692  0.1996
18712TIP3    H177551   4.725   3.079  14.974  0.6249  0.0921 -1.6098
18712TIP3    H277552   4.603   3.155  14.926  0.4145  1.0577  0.3631
18713TIP3   OH277553   4.312   2.492   4.057 -0.1718  0.4117 -0.2656
18713TIP3    H177554   4.383   2.550   4.029 -1.7758  2.3510 -0.5564
18713TIP3    H277555   4.338   2.464   4.145  1.6073 -0.1118 -0.9132
18714TIP3   OH277556   5.550   6.644   1.575  0.0916  0.6134 -0.3611
18714TIP3    H177557   5.618   6.581   1.552  0.6196  1.4081 -1.0473
18714TIP3    H277558   5.468   6.596   1.567  0.5846 -0.5440  1.1048
18715TIP3   OH277559   2.347   1.263   6.613  0.4919  0.3194 -0.3413
18715TIP3    H177560   2.263   1.264   6.567 -0.0032  0.3173  0.5355
18715TIP3    H277561   2.359   1.172   6.640  0.4989  0.4206  0.0132
18716TIP3   OH277562   3.438   1.505   3.892 -0.6351 -0.0754  0.2064
18716TIP3    H177563   3.532   1.502   3.873 -0.6847 -2.2019  0.0922
18716TIP3    H277564   3.413   1.595   3.870  0.6756 -0.3760 -3.2137
18717TIP3   OH277565   4.443   2.445   0.747 -0.2096  0.0549  0.7601
18717TIP3    H177566   4.508   2.499   0.794 -1.4078  0.6825  1.7380
18717TIP3    H277567   4.496   2.387   0.692  1.1612  1.3749  0.6148
18718TIP3   OH277568   3.779   3.219   4.377  0.1812 -0.2559 -0.3920
18718TIP3    H177569   3.801   3.188   4.289 -0.7174  0.6461 -0.9543
18718TIP3    H277570   3.687   3.246   4.371  0.1499 -0.0457  0.7856
18719TIP3   OH277571   5.909   3.782  13.457 -0.1227  0.1243  0.2303
18719TIP3    H177572   5.897   3.836  13.535  0.1767  0.7081 -0.1243
18719TIP3    H277573   5.993   3.810  13.421  0.2113 -0.8284  0.2381
18720TIP3   OH277574   4.932   0.251  13.501 -0.1482  0.2499 -0.2748
18720TIP3    H177575   4.985   0.249  13.581 -0.3263 -1.7098 -0.1636
18720TIP3    H277576   4.988   0.294  13.436  0.7566  0.0885  0.3857
18721TIP3   OH277577   6.264   6.782   0.999 -0.1601 -0.0753  0.3720
18721TIP3    H177578   6.295   6.760   1.087  0.5987 -2.1056 -0.3510
18721TIP3    H277579   6.339   6.764   0.942 -1.7558 -2.6201 -1.1266
18722TIP3   OH277580   4.542   0.360  16.370  0.4572 -0.0006  0.3350
18722TIP3    H177581   4.540   0.365  16.274 -1.1517 -0.5768  0.3153
18722TIP3    H277582   4.460   0.402  16.398  1.0892  0.5095  1.4867
18723TIP3   OH277583   4.974   0.783   1.345  0.4554 -0.8765 -0.5922
18723TIP3    H177584   5.062   0.771   1.380  0.3154 -2.2164 -0.6462
18723TIP3    H277585   4.981   0.759   1.253 -0.0823 -1.5965 -0.4562
18724TIP3   OH277586   2.008   4.437  16.138  0.4948 -0.1856 -0.1767
18724TIP3    H177587   2.059   4.449  16.218 -0.2498  0.0338  0.2773
18724TIP3    H277588   2.014   4.521  16.092 -0.3076  0.1885  0.3867
18725TIP3   OH277589   3.438   4.385   4.669 -0.1814 -0.7610  0.0624
18725TIP3    H177590   3.369   4.334   4.710 -0.2453  0.3133  1.3669
18725TIP3    H277591   3.512   4.380   4.730  0.5471 -1.0582 -0.8228
18726TIP3   OH277592   6.253   4.594   3.765 -0.1284 -0.0550  0.3069
18726TIP3    H177593   6.195   4.600   3.689 -0.5934 -0.8729  0.5794
18726TIP3    H277594   6.208   4.534   3.825  0.4236  0.2655  1.0545
18727TIP3   OH277595   0.701   1.365   0.008  0.5612 -0.1074  0.3085
18727TIP3    H177596   0.709   1.298   0.075 -0.4557  0.7026  1.2837
18727TIP3    H277597   0.761   1.434   0.035 -2.2923  1.7861  2.4424
18728TIP3   OH277598   2.038   5.539   1.847 -0.1106 -0.3642  0.1266
18728TIP3    H177599   2.012   5.626   1.815  0.2281  0.2550  1.4459
18728TIP3    H277600   2.034   5.547   1.943  2.0616 -1.1128  0.3311
18729TIP3   OH277601   3.771   3.089  15.460 -0.1925 -0.4251  0.5050
18729TIP3    H177602   3.816   3.024  15.405  3.3724  2.1894 -0.0645
18729TIP3    H277603   3.745   3.041  15.538 -1.0929 -3.2480 -1.3648
18730TIP3   OH277604   2.487   0.302  14.577  0.2793 -0.2419  0.4186
18730TIP3    H177605   2.515   0.315  14.486 -0.0320 -0.0896  0.3458
18730TIP3    H277606   2.544   0.361  14.628  1.2070 -1.1274  0.4428
18731TIP3   OH277607   0.572   2.912   5.374 -0.2164 -0.1811  0.9311
18731TIP3    H177608   0.478   2.896   5.367 -0.2570 -0.0661  1.1973
18731TIP3    H277609   0.587   2.929   5.467 -0.1446  1.0905  0.7067
18732TIP3   OH277610   0.989   0.687  14.974  0.1411 -0.1378  0.0340
18732TIP3    H177611   0.996   0.782  14.964  0.9843 -0.3473 -1.9684
18732TIP3    H277612   0.898   0.671  14.995 -0.4898  1.0207 -1.6105
18733TIP3   OH277613   1.816   4.806   5.858 -0.1683  0.0417  0.7389
18733TIP3    H177614   1.760   4.767   5.925  0.5844  0.0976  1.4126
18733TIP3    H277615   1.884   4.852   5.907  1.6375 -1.6717 -0.0119
18734TIP3   OH277616   0.483   4.762   3.982  0.2086 -0.4274 -0.0289
18734TIP3    H177617   0.454   4.769   4.073  0.2921  0.3102 -0.0542
18734TIP3    H277618   0.482   4.852   3.949 -0.8167 -0.7905 -1.0694
18735TIP3   OH277619   3.908   1.154  15.255  0.6585 -0.2533  0.8100
18735TIP3    H177620   3.938   1.226  15.200  1.6073 -0.2804  1.2710
18735TIP3    H277621   3.816   1.141  15.231  0.9382  0.0214 -0.4395
18736TIP3   OH277622   5.004   4.401  11.138  0.2417  0.0318  0.6545
18736TIP3    H177623   5.076   4.463  11.127 -0.5176  0.5328 -2.2562
18736TIP3    H277624   5.044   4.315  11.120  0.3467  0.1986  0.0681
18737TIP3   OH277625   3.557   0.374   3.144 -0.0938 -0.2822 -0.2464
18737TIP3    H177626   3.538   0.467   3.155 -2.0967 -0.6474 -0.2954
18737TIP3    H277627   3.564   0.362   3.050 -0.1803 -0.2344 -0.2593
18738TIP3   OH277628   2.988   5.284   1.069 -0.0045 -0.0745  0.4095
18738TIP3    H177629   3.037   5.337   1.131 -1.9649  1.1065  1.0210
18738TIP3    H277630   2.992   5.332   0.987  0.8411 -0.5926  0.1345
18739TIP3   OH277631   0.330   1.009  11.651  0.1464  0.3003 -0.0341
18739TIP3    H177632   0.387   0.995  11.727  0.9742  0.2545 -0.6473
18739TIP3    H277633   0.361   1.091  11.612 -0.6866  0.6583  0.0314
18740TIP3   OH277634   0.457   2.920  13.781 -0.5754 -0.0689 -0.2394
18740TIP3    H177635   0.493   2.988  13.839 -3.2193  1.6004 -0.3805
18740TIP3    H277636   0.476   2.838  13.826 -2.6749  1.1439  3.2787
18741TIP3   OH277637   1.700   1.928  15.514  0.9487 -0.6499 -0.1123
18741TIP3    H177638   1.717   1.846  15.561  3.0244 -0.8705 -1.1045
18741TIP3    H277639   1.628   1.908  15.455 -0.9632 -0.6794  2.1002
18742TIP3   OH277640   3.394   6.730  11.847 -0.5028  0.3113 -0.2597
18742TIP3    H177641   3.470   6.735  11.790 -0.4771  1.0274 -0.1785
18742TIP3    H277642   3.364   6.821  11.855 -2.5117 -0.1402 -1.8074
18743TIP3   OH277643   3.312   6.617  14.399 -0.5320  0.0365 -0.7465
18743TIP3    H177644   3.303   6.616  14.494 -0.7139  1.6423 -0.7216
18743TIP3    H277645   3.236   6.665  14.368 -1.0698 -1.4315 -1.8100
18744TIP3   OH277646   2.381   4.398   5.596 -0.1522 -0.1611  0.5091
18744TIP3    H177647   2.405   4.469   5.657 -0.4399  0.2896  0.1019
18744TIP3    H277648   2.399   4.318   5.645  1.2321  0.1660  0.5888
18745TIP3   OH277649   4.773   5.052  15.323  0.2514 -0.5118 -0.1337
18745TIP3    H177650   4.792   5.064  15.416  0.8971  1.0743 -0.4387
18745TIP3    H277651   4.720   5.129  15.299  1.6859  0.1089 -1.4833
18746TIP3   OH277652   2.847   6.295  15.702 -0.8324  0.1383 -0.3495
18746TIP3    H177653   2.896   6.213  15.696 -0.9589 -0.0171  0.5271
18746TIP3    H277654   2.843   6.328  15.612 -1.7671 -1.4065 -0.9226
18747TIP3   OH277655   1.398   2.512  10.591 -0.2922  0.3332  0.4951
18747TIP3    H177656   1.437   2.578  10.533 -1.9372  1.0111  0.1023
18747TIP3    H277657   1.316   2.551  10.620 -0.5019 -0.8742  1.6205
18748TIP3   OH277658   4.449   1.487   0.851 -0.3460 -0.0312  0.3759
18748TIP3    H177659   4.544   1.491   0.836 -0.4610 -1.6402 -1.0985
18748TIP3    H277660   4.437   1.408   0.904 -0.9000  0.0503  0.3789
18749TIP3   OH277661   1.474   3.322  14.121  0.2815  0.1039  0.1911
18749TIP3    H177662   1.467   3.227  14.131 -1.7163  0.2730  0.6802
18749TIP3    H277663   1.492   3.354  14.210 -1.2948  0.3248  0.4625
18750TIP3   OH277664   5.054   5.144   4.434 -0.3042 -0.3425  0.2543
18750TIP3    H177665   5.008   5.061   4.426 -0.1400 -0.5062  0.9022
18750TIP3    H277666   5.068   5.155   4.528 -0.7310  0.6494  0.2127
18751TIP3   OH277667   2.383   0.944  16.462  0.2867 -0.1291 -0.1073
18751TIP3    H177668   2.441   0.881  16.419  1.3019 -0.0296  1.0662
18751TIP3    H277669   2.295   0.914  16.439  0.7559 -1.5015 -0.2422
18752TIP3   OH277670   3.889   4.913  11.520 -0.3594  0.4440 -0.5140
18752TIP3    H177671   3.826   4.957  11.463  0.2445  0.3497 -1.2594
18752TIP3    H277672   3.839   4.893  11.600 -0.1115  4.7085  0.9752
18753TIP3   OH277673   0.491   6.053  15.149  0.0524 -0.1066 -0.0886
18753TIP3    H177674   0.570   6.009  15.119 -1.0940 -0.9908 -2.0213
18753TIP3    H277675   0.440   5.984  15.193 -0.8992 -0.3173 -1.4450
18754TIP3   OH277676   1.798   2.750  11.071  0.1696 -0.1234  0.1762
18754TIP3    H177677   1.717   2.704  11.049 -0.4073  0.6959  0.5405
18754TIP3    H277678   1.815   2.725  11.162  0.1709 -0.0642  0.1913
18755TIP3   OH277679   1.823   5.664   2.573 -0.1109 -0.1403  0.0349
18755TIP3    H177680   1.771   5.586   2.552  0.8778 -0.7058 -0.3726
18755TIP3    H277681   1.874   5.680   2.494 -0.5171  1.1170 -0.0008
18756TIP3   OH277682   3.087   6.154  11.947 -0.2709  0.0533 -0.3883
18756TIP3    H177683   3.093   6.060  11.962  0.9821  0.0334 -0.9259
18756TIP3    H277684   3.164   6.175  11.895 -0.6752  1.3385 -0.4973
18757TIP3   OH277685   4.716   3.431   3.603 -0.3582 -0.3900  0.2030
18757TIP3    H177686   4.648   3.463   3.662  0.7261  0.9731  0.7586
18757TIP3    H277687   4.742   3.508   3.552  0.1641 -1.0879 -0.6173
18758TIP3   OH277688   2.713   5.295   4.905 -0.3053  0.1303 -0.1325
18758TIP3    H177689   2.730   5.284   4.999  1.8731  1.4247 -0.3017
18758TIP3    H277690   2.788   5.252   4.863 -1.8722 -1.5309 -1.3900
18759TIP3   OH277691   2.733   4.370  12.593 -0.2740  0.4543 -0.1917
18759TIP3    H177692   2.791   4.314  12.645 -0.7843  0.1664  0.0750
18759TIP3    H277693   2.791   4.410  12.528 -0.0121 -1.0741 -0.9704
18760TIP3   OH277694   4.508   5.106  12.208  0.0903  0.2759  0.1836
18760TIP3    H177695   4.427   5.087  12.255 -0.3306 -0.3935 -0.7675
18760TIP3    H277696   4.573   5.120  12.276 -0.4309 -0.9510  0.9551
18761TIP3   OH277697   3.068   5.434  15.690 -0.5938 -0.3561 -0.2424
18761TIP3    H177698   3.052   5.521  15.653  0.1723 -0.6870 -1.3994
18761TIP3    H277699   2.984   5.388  15.681 -0.3148 -0.5838 -2.0600
18762TIP3   OH277700   2.130   0.607   3.626 -0.0797  0.1564 -0.2843
18762TIP3    H177701   2.053   0.654   3.595 -0.6573  1.2253  2.5117
18762TIP3    H277702   2.202   0.668   3.615 -0.3207  0.6172  0.6507
18763TIP3   OH277703   4.049   0.705  16.828  0.6469  0.3867  0.1729
18763TIP3    H177704   4.137   0.740  16.838 -0.0973  1.9746  1.8021
18763TIP3    H277705   4.002   0.774  16.779 -0.2305  0.6245  1.2992
18764TIP3   OH277706   1.090   2.595   3.626  0.0288  0.6804 -0.1576
18764TIP3    H177707   1.052   2.512   3.597  0.9460  0.4238 -0.6405
18764TIP3    H277708   1.144   2.572   3.701 -0.6153  1.0268  0.4330
18765TIP3   OH277709   0.758   6.428  13.675 -0.4250 -0.0492  0.0105
18765TIP3    H177710   0.785   6.513  13.640 -0.0951 -0.1479  0.0229
18765TIP3    H277711   0.674   6.445  13.718 -1.1108 -0.0340 -1.2929
18766TIP3   OH277712   5.553   2.828  16.281 -0.6496  0.0857 -0.2888
18766TIP3    H177713   5.460   2.804  16.284 -1.1283  1.9029  1.5708
18766TIP3    H277714   5.597   2.757  16.329 -1.3865  0.3536  0.8130
18767TIP3   OH277715   2.232   3.269   2.977 -0.5230  0.0070  0.0275
18767TIP3    H177716   2.309   3.223   3.012 -0.7289 -0.7047 -0.4462
18767TIP3    H277717   2.268   3.328   2.911 -0.4556 -0.8600 -0.7184
18768TIP3   OH277718   5.696   6.710   5.046  0.5748  0.1403 -0.8347
18768TIP3    H177719   5.724   6.620   5.062  5.0567  0.7269 -3.7332
18768TIP3    H277720   5.736   6.761   5.117 -2.4825 -0.0055  1.1778
18769TIP3   OH277721   2.145   3.805  12.802 -0.3094 -0.0080  0.4974
18769TIP3    H177722   2.160   3.786  12.709  0.3601 -0.1681  0.6350
18769TIP3    H277723   2.050   3.794  12.813 -0.5216  0.8107 -0.3470
18770TIP3   OH277724   1.556   0.973  15.332 -0.6149  0.2049  0.2193
18770TIP3    H177725   1.529   0.896  15.383 -0.1186  1.1576  2.0114
18770TIP3    H277726   1.652   0.966  15.330 -0.4853  1.3716  1.4291
18771TIP3   OH277727   4.132   5.659  14.784  0.0403  0.0132  0.1511
18771TIP3    H177728   4.057   5.600  14.775 -0.6525  0.6038  1.6578
18771TIP3    H277729   4.119   5.701  14.869  1.5125  0.9456 -0.0512
18772TIP3   OH277730   2.667   2.717   2.004  0.0253 -0.2164 -0.2167
18772TIP3    H177731   2.756   2.686   1.992 -0.5644 -1.6158 -1.2091
18772TIP3    H277732   2.676   2.811   2.018  1.6566 -0.3671 -0.0874
18773TIP3   OH277733   1.139   3.641  10.373  0.7423  0.6734  0.2103
18773TIP3    H177734   1.158   3.558  10.327  1.7344  1.4410 -0.8295
18773TIP3    H277735   1.062   3.622  10.426 -1.1522 -0.0080 -2.5742
18774TIP3   OH277736   3.187   4.530  11.250 -0.9932  0.2472 -0.3051
18774TIP3    H177737   3.258   4.558  11.306 -1.0937  1.8645 -0.9343
18774TIP3    H277738   3.227   4.517  11.164 -1.5631  2.1985 -0.9317
18775TIP3   OH277739   1.220   5.073  11.218 -0.3946  0.1357 -0.2551
18775TIP3    H177740   1.264   5.070  11.133 -0.4316 -0.4077 -0.2549
18775TIP3    H277741   1.140   5.122  11.201  0.7460  2.2307 -0.0009
18776TIP3   OH277742   0.839   2.950  13.566 -0.2673 -0.1631  0.3833
18776TIP3    H177743   0.924   2.939  13.609  0.6527 -0.2436 -1.3665
18776TIP3    H277744   0.856   3.009  13.493 -2.2878  1.9882  1.4733
18777TIP3   OH277745   0.864   5.001  11.167  0.4740  0.0955 -0.3013
18777TIP3    H177746   0.817   5.059  11.107  1.1768  0.5272 -0.4584
18777TIP3    H277747   0.941   4.973  11.117 -0.4992 -2.0198 -0.6824
18778TIP3   OH277748   3.090   0.880  11.645  0.4796  0.1240 -0.1719
18778TIP3    H177749   3.083   0.815  11.576  1.1554  1.8173 -1.9257
18778TIP3    H277750   3.173   0.860  11.688  0.1970 -0.7647 -0.0131
18779TIP3   OH277751   5.086   4.084   2.385 -0.2713  0.5103  0.2893
18779TIP3    H177752   5.109   4.144   2.455 -1.8941 -0.5000  1.7599
18779TIP3    H277753   5.127   4.001   2.410 -0.5254  0.2395 -0.1638
18780TIP3   OH277754   2.658   5.328  12.019  0.0306  0.3172 -0.1310
18780TIP3    H177755   2.649   5.419  12.046  1.4281  0.3031  0.4674
18780TIP3    H277756   2.579   5.286  12.052 -0.0955  1.0895  0.6142
18781TIP3   OH277757   1.922   2.820   2.763 -0.5467 -0.4639 -0.7007
18781TIP3    H177758   2.010   2.856   2.769 -0.4679 -0.8856  4.0050
18781TIP3    H277759   1.930   2.746   2.702  2.1239 -0.0742 -0.9284
18782TIP3   OH277760   5.617   3.015   2.584 -0.0701 -0.3081  0.0473
18782TIP3    H177761   5.600   2.947   2.650 -0.5849 -1.8872 -1.6210
18782TIP3    H277762   5.678   2.974   2.523  1.3471  1.5463  0.1446
18783TIP3   OH277763   4.023   2.932  15.628  0.5737 -0.0883  0.1861
18783TIP3    H177764   3.950   2.990  15.647  0.7959  0.7196 -1.2726
18783TIP3    H277765   3.984   2.845  15.621 -0.2873  0.3594 -0.7377
18784TIP3   OH277766   3.347   6.003  14.928 -0.1009 -0.4885 -0.0702
18784TIP3    H177767   3.275   5.953  14.965  0.6339  0.0096  2.1914
18784TIP3    H277768   3.352   6.082  14.982  1.6479 -0.1549 -0.6427
18785TIP3   OH277769   3.421   3.834   6.100  0.0041  0.4749  0.3180
18785TIP3    H177770   3.335   3.862   6.131  0.7861  1.3908  1.7451
18785TIP3    H277771   3.482   3.899   6.135  1.1506  0.6763 -1.8401
18786TIP3   OH277772   1.814   5.701   5.756 -0.0180  0.0045 -1.1950
18786TIP3    H177773   1.894   5.744   5.786 -0.2286  0.0546 -0.6835
18786TIP3    H277774   1.843   5.614   5.728  0.1724 -0.0952 -0.7002
18787TIP3   OH277775   2.806   5.773   6.038  0.4624 -0.2922 -0.6741
18787TIP3    H177776   2.862   5.812   6.105  1.2169 -0.0734 -1.4158
18787TIP3    H277777   2.725   5.824   6.042  0.9854  0.5586 -0.8046
18788TIP3   OH277778   6.776   4.333   2.354  0.2682  0.4697 -0.2145
18788TIP3    H177779   6.753   4.248   2.390 -2.2324  1.2664  0.2377
18788TIP3    H277780   6.868   4.323   2.326 -0.0498 -2.4484 -0.5276
18789TIP3   OH277781   1.425   4.572  12.301  0.0579  0.2446 -0.1641
18789TIP3    H177782   1.448   4.593  12.391  2.6621 -2.5018 -0.0477
18789TIP3    H277783   1.443   4.478  12.292  0.1970  0.4573 -3.5918
18790TIP3   OH277784   5.936   0.306  15.070 -0.5115  0.0410 -0.1058
18790TIP3    H177785   5.886   0.349  15.140 -0.8014 -1.8210  0.9026
18790TIP3    H277786   5.873   0.294  14.999 -1.9079 -3.0169  1.4524
18791TIP3   OH277787   5.560   6.543  10.826 -0.0531 -0.3424  0.5564
18791TIP3    H177788   5.521   6.589  10.752  0.9179  0.1611  0.3473
18791TIP3    H277789   5.590   6.460  10.790  2.1780  0.6806 -0.1120
18792TIP3   OH277790   2.608   4.488  15.439 -0.0397  0.3249  0.3674
18792TIP3    H177791   2.573   4.420  15.381 -1.4631  2.0982 -0.9530
18792TIP3    H277792   2.588   4.455  15.527 -1.6164 -0.5388 -0.2583
18793TIP3   OH277793   0.464   5.013  13.220  0.4718  1.0884  0.3315
18793TIP3    H177794   0.375   4.980  13.220  1.1745 -1.0405  1.6188
18793TIP3    H277795   0.502   4.982  13.138 -0.3057  3.1888 -0.8876
18794TIP3   OH277796   5.525   2.398  13.328 -0.1858  0.1291 -0.4548
18794TIP3    H177797   5.462   2.440  13.270 -0.3680 -0.4327 -0.6657
18794TIP3    H277798   5.595   2.369  13.271 -0.3495 -0.3936 -0.3979
18795TIP3   OH277799   1.311   0.190   5.962  0.1180  0.5003 -0.1469
18795TIP3    H177800   1.396   0.208   6.002  0.4944  2.3560 -1.5881
18795TIP3    H277801   1.314   0.098   5.939  2.0521  0.6734 -0.7831
18796TIP3   OH277802   6.524   3.589  13.176 -0.4656  0.0116  0.2835
18796TIP3    H177803   6.586   3.656  13.204  0.4022 -0.3087 -0.8219
18796TIP3    H277804   6.550   3.510  13.224  0.5973 -0.3605 -0.8399
18797TIP3   OH277805   4.357   3.160   0.132 -0.3191 -0.1003 -0.3482
18797TIP3    H177806   4.434   3.114   0.099 -0.9023 -0.8302 -0.7138
18797TIP3    H277807   4.387   3.201   0.213  0.1962 -1.1831  0.0204
18798TIP3   OH277808   0.690   1.649  14.224 -0.5056 -0.6184  0.1312
18798TIP3    H177809   0.739   1.567  14.234 -1.9448 -1.2506  3.2636
18798TIP3    H277810   0.757   1.717  14.218  0.7092 -1.8568 -1.2594
18799TIP3   OH277811   6.145   3.597  13.467 -0.0358  0.3987 -0.8450
18799TIP3    H177812   6.122   3.504  13.462  1.2629 -0.0341  0.4437
18799TIP3    H277813   6.184   3.617  13.382  1.4690 -0.7815 -0.4791
18800TIP3   OH277814   1.547   4.674   1.006  0.4542  0.4467  0.6282
18800TIP3    H177815   1.569   4.764   0.982  0.8810  0.1694 -0.0414
18800TIP3    H277816   1.519   4.680   1.098  0.6463  1.2291  0.6435
18801TIP3   OH277817   0.453   1.498   0.859 -0.4657  0.1406  0.4862
18801TIP3    H177818   0.514   1.424   0.857 -0.0232  0.5086 -0.1583
18801TIP3    H277819   0.509   1.575   0.863 -0.9076  0.4635  0.5220
18802TIP3   OH277820   1.703   3.346  13.273 -0.7630  0.1489 -0.4868
18802TIP3    H177821   1.619   3.389  13.291 -1.3889 -1.5949  1.2072
18802TIP3    H277822   1.769   3.406  13.307 -1.4471  0.8161 -0.3135
18803TIP3   OH277823   1.635   3.607  11.825 -0.4058 -0.2714 -0.2687
18803TIP3    H177824   1.616   3.640  11.737 -2.8270  1.0876  0.6657
18803TIP3    H277825   1.660   3.515  11.812 -0.4167 -0.0133 -2.3763
18804TIP3   OH277826   1.857   6.332  15.359 -0.4263  0.5697 -0.1294
18804TIP3    H177827   1.842   6.401  15.424  0.5234 -0.2339  0.9801
18804TIP3    H277828   1.945   6.300  15.378 -0.2045  0.1711 -1.7023
18805TIP3   OH277829   0.883   1.195  11.367  0.2310 -0.0086 -0.2152
18805TIP3    H177830   0.799   1.152  11.380 -0.0767  0.4135 -0.7693
18805TIP3    H277831   0.905   1.232  11.452  0.4667 -1.1800  0.2539
18806TIP3   OH277832   3.915   5.233  14.743 -0.6966 -0.0351 -0.0129
18806TIP3    H177833   3.928   5.185  14.661 -0.8827  0.9120 -0.6015
18806TIP3    H277834   3.863   5.173  14.797  1.1331 -1.5135  0.2161
18807TIP3   OH277835   3.337   6.650  17.192 -0.4065  0.1855 -0.0205
18807TIP3    H177836   3.387   6.582  17.236  0.9247  1.2345  0.1390
18807TIP3    H277837   3.297   6.700  17.263  0.1630  0.7095 -0.0667
18808TIP3   OH277838   1.665   6.183  14.956 -0.6908  0.3214 -0.7411
18808TIP3    H177839   1.588   6.207  14.905 -1.4431 -1.2121 -0.3965
18808TIP3    H277840   1.733   6.168  14.890 -0.9128  0.8847 -1.1078
18809TIP3   OH277841   0.934   4.181  15.298  0.2136 -0.0806  0.6184
18809TIP3    H177842   0.857   4.125  15.287  1.1122 -1.0333 -1.2377
18809TIP3    H277843   0.899   4.270  15.300 -0.8962 -0.4550 -0.8412
18810TIP3   OH277844   3.313   5.734   6.296  0.2909 -0.0296 -0.4015
18810TIP3    H177845   3.300   5.683   6.216  0.0369  1.6894 -1.5332
18810TIP3    H277846   3.382   5.797   6.272  0.8662 -0.0729  1.0550
18811TIP3   OH277847   5.166   2.638  15.443 -0.5769  0.2367  0.5551
18811TIP3    H177848   5.236   2.579  15.470  0.2100  1.7603  2.0868
18811TIP3    H277849   5.140   2.607  15.357  0.7091 -1.5032  0.7444
18812TIP3   OH277850   2.306   5.500   0.981  0.0018 -0.2971  0.2032
18812TIP3    H177851   2.213   5.479   0.969 -0.3582  0.8399  0.8751
18812TIP3    H277852   2.307   5.592   1.007  1.3342 -0.2524  0.0692
18813TIP3   OH277853   6.493   0.493  13.585 -0.2623 -0.5462  0.3948
18813TIP3    H177854   6.466   0.570  13.535 -0.0602 -0.5657  0.2542
18813TIP3    H277855   6.456   0.419  13.537  2.6389 -0.8252 -1.6114
18814TIP3   OH277856   3.701   0.292  13.881 -0.5645 -0.0388 -0.1662
18814TIP3    H177857   3.681   0.369  13.933 -2.5233 -1.3437  1.1678
18814TIP3    H277858   3.662   0.219  13.930  1.7097 -1.9800 -1.0461
18815TIP3   OH277859   1.363   5.881  11.670 -0.2624 -0.4637  0.7472
18815TIP3    H177860   1.404   5.951  11.719  0.8895 -1.2399  0.9373
18815TIP3    H277861   1.404   5.884  11.584 -2.4855  1.0881 -0.3782
18816TIP3   OH277862   6.586   4.248  10.728  0.2016  0.1953 -0.1393
18816TIP3    H177863   6.613   4.233  10.637  1.8806 -1.2754  0.5415
18816TIP3    H277864   6.603   4.342  10.742  2.1527 -0.0166 -0.7051
18817TIP3   OH277865   1.347   5.913  14.619  0.3836  0.0227 -0.4843
18817TIP3    H177866   1.338   5.868  14.703 -0.5000 -1.1515 -1.1742
18817TIP3    H277867   1.265   5.962  14.609  0.7241  0.6133 -0.4088
18818TIP3   OH277868   5.095   0.738   3.721  0.2065  0.1946 -0.2309
18818TIP3    H177869   5.188   0.716   3.723 -0.0795 -0.9624  1.7149
18818TIP3    H277870   5.063   0.698   3.640  0.9249 -1.4692  0.2772
18819TIP3   OH277871   1.832   4.908  10.893 -0.1388 -0.3073  0.7935
18819TIP3    H177872   1.861   4.823  10.859  0.2924 -0.8788  2.4304
18819TIP3    H277873   1.773   4.886  10.965 -1.8542  0.8410 -0.1916
18820TIP3   OH277874   3.937   5.329   3.018 -0.1246  0.3698  0.1488
18820TIP3    H177875   3.892   5.244   3.017  0.2372  0.1781  0.1040
18820TIP3    H277876   3.998   5.325   2.945  0.4132  0.3821  0.5915
18821TIP3   OH277877   5.017   5.403  11.299  0.1787  0.0847 -0.3281
18821TIP3    H177878   4.938   5.411  11.352  1.2017 -0.8140  1.4173
18821TIP3    H277879   5.020   5.311  11.274  1.8503 -0.4909  1.6735
18822TIP3   OH277880   0.435   5.976   4.896 -0.7951 -0.5881 -0.0285
18822TIP3    H177881   0.501   6.032   4.854  0.5220 -1.5788  0.6208
18822TIP3    H277882   0.376   5.950   4.825 -0.0046 -0.3210 -0.8005
18823TIP3   OH277883   0.995   4.242   3.617 -0.1181 -0.2941 -0.0410
18823TIP3    H177884   1.084   4.209   3.602  0.6498  0.3571  2.6382
18823TIP3    H277885   0.999   4.333   3.586 -0.1668 -0.5392 -0.8046
18824TIP3   OH277886   1.273   6.362  12.631 -0.0229  0.4087  0.0571
18824TIP3    H177887   1.307   6.333  12.546  0.3654 -1.8760  0.8988
18824TIP3    H277888   1.180   6.376  12.617 -0.1587 -0.9319 -0.5628
18825TIP3   OH277889   4.806   1.523  11.102  0.6279  0.1897 -0.2223
18825TIP3    H177890   4.792   1.503  11.194 -1.7960  2.6762  0.0994
18825TIP3    H277891   4.728   1.489  11.058  0.8869  0.6354 -1.0575
18826TIP3   OH277892   0.626   2.354  12.824 -0.2577  0.2702 -0.4630
18826TIP3    H177893   0.595   2.303  12.898 -1.7374  1.4740 -0.2054
18826TIP3    H277894   0.590   2.310  12.747  0.5731 -0.4878 -0.4331
18827TIP3   OH277895   3.716   1.629   2.220  0.3058 -0.1068  0.0151
18827TIP3    H177896   3.669   1.563   2.270  0.8477 -1.2349 -0.9159
18827TIP3    H277897   3.785   1.660   2.279 -0.0772 -0.2281  0.5285
18828TIP3   OH277898   5.992   1.609   4.712 -0.2524  0.0778  0.2521
18828TIP3    H177899   5.956   1.697   4.723 -0.8200 -0.3397  2.2488
18828TIP3    H277900   6.027   1.587   4.799 -0.4604 -1.7937 -0.1042
18829TIP3   OH277901   0.904   2.474   3.971  0.5076 -0.4967 -0.1514
18829TIP3    H177902   0.814   2.443   3.987  0.7415 -0.4395  1.4204
18829TIP3    H277903   0.950   2.397   3.937 -0.0271 -0.6535 -0.5276
18830TIP3   OH277904   6.236   2.815  13.056 -0.1952  0.6076 -0.1195
18830TIP3    H177905   6.184   2.738  13.082 -0.7384  1.3193  0.9596
18830TIP3    H277906   6.296   2.829  13.129  1.8916 -0.4508 -1.5124
18831TIP3   OH277907   1.593   5.780  14.796  0.0659 -0.5478  0.2336
18831TIP3    H177908   1.547   5.721  14.736 -0.0502  0.2078 -0.4341
18831TIP3    H277909   1.524   5.835  14.832  0.0159 -1.5208  1.7037
18832TIP3   OH277910   1.333   4.964   0.947 -0.2331  0.1364 -0.3367
18832TIP3    H177911   1.426   4.979   0.929 -0.5735  1.6744 -0.9495
18832TIP3    H277912   1.289   4.979   0.864 -1.3076  2.3074  0.5412
18833TIP3   OH277913   2.089   3.978   5.420  0.0390  0.0634  0.0377
18833TIP3    H177914   2.081   4.072   5.406  0.5723 -0.1094 -1.6248
18833TIP3    H277915   2.067   3.966   5.513  1.8190  2.0568  0.8118
18834TIP3   OH277916   2.876   5.449   6.085  0.2166  0.1772  0.0565
18834TIP3    H177917   2.895   5.543   6.079  0.3898  0.1530  0.2422
18834TIP3    H277918   2.916   5.421   6.167  1.0616 -0.2734 -0.4967
18835TIP3   OH277919   6.603   0.886   4.997 -0.1257  0.2902 -0.1926
18835TIP3    H177920   6.600   0.793   4.978  1.3590  0.2480 -0.2643
18835TIP3    H277921   6.526   0.901   5.052 -1.1549 -0.6956 -1.2860
18836TIP3   OH277922   2.367   1.681   1.575 -0.0537 -0.0214 -0.0965
18836TIP3    H177923   2.361   1.679   1.670 -0.7456 -0.0471 -0.1293
18836TIP3    H277924   2.321   1.761   1.550 -1.3898 -0.8676 -0.4808
18837TIP3   OH277925   3.504   1.464   3.521  0.2011 -0.5816 -0.0386
18837TIP3    H177926   3.541   1.441   3.607 -0.0533 -2.5131 -0.3909
18837TIP3    H277927   3.578   1.499   3.471  1.1177 -2.4025 -0.0354
18838TIP3   OH277928   3.607   0.875   6.299 -0.0636  0.0795 -0.1768
18838TIP3    H177929   3.561   0.953   6.271  1.2407  0.8574 -0.2417
18838TIP3    H277930   3.654   0.845   6.220  0.0192 -0.3511  0.0282
18839TIP3   OH277931   4.947   6.260  16.023 -0.2179 -0.0010 -0.0007
18839TIP3    H177932   4.965   6.341  15.976 -0.2136  0.2075  0.3603
18839TIP3    H277933   4.863   6.230  15.988 -0.3584  0.3090  0.0724
18840TIP3   OH277934   0.220   1.392   2.940  0.2478  0.0575  0.0394
18840TIP3    H177935   0.255   1.377   3.027  1.0372  0.7718 -0.1484
18840TIP3    H277936   0.291   1.367   2.881  0.3000  1.1006 -0.3542
18841TIP3   OH277937   5.748   1.922  15.315 -0.0850  0.1064  0.2988
18841TIP3    H177938   5.674   1.960  15.267  0.5649  0.9717 -0.0485
18841TIP3    H277939   5.820   1.925  15.253  0.0164 -1.6806  0.2852
18842TIP3   OH277940   5.889   1.083   0.106 -0.1694  0.1275  0.4254
18842TIP3    H177941   5.858   1.037   0.028 -0.7343 -0.2239  0.8521
18842TIP3    H277942   5.985   1.074   0.102 -0.1474  0.6107 -0.5241
18843TIP3   OH277943   6.455   1.241   1.774  0.5546 -0.2755 -0.3594
18843TIP3    H177944   6.407   1.161   1.798  0.2868  0.2964  1.1499
18843TIP3    H277945   6.523   1.211   1.714 -1.5276 -1.1438 -2.4609
18844TIP3   OH277946   3.259   5.135  13.118  0.0309 -0.6040 -0.3626
18844TIP3    H177947   3.239   5.135  13.212  1.3948 -0.4376 -0.0447
18844TIP3    H277948   3.181   5.098  13.077 -1.7966  1.9061  0.5464
18845TIP3   OH277949   5.626   1.181  12.027  0.6905 -0.0186 -0.1636
18845TIP3    H177950   5.544   1.229  12.042  0.4773  0.0776 -1.4535
18845TIP3    H277951   5.658   1.215  11.943  1.6840 -0.5681 -0.0196
18846TIP3   OH277952   6.334   2.095   0.409 -0.0318  0.0608  0.3004
18846TIP3    H177953   6.296   2.008   0.403  0.4770 -0.1633  0.2335
18846TIP3    H277954   6.379   2.096   0.493 -2.1792  1.1605  1.5254
18847TIP3   OH277955   1.420   1.423   2.833 -0.3027 -0.2686 -0.0209
18847TIP3    H177956   1.470   1.503   2.846 -0.0594 -0.4734  0.3108
18847TIP3    H277957   1.482   1.352   2.853 -0.2770 -0.5645 -1.0864
18848TIP3   OH277958   1.861   0.200  15.967  0.6092  0.1494 -0.0737
18848TIP3    H177959   1.788   0.244  16.011 -2.4797 -2.5492 -2.0181
18848TIP3    H277960   1.883   0.126  16.023  0.3380 -0.2658 -0.5080
18849TIP3   OH277961   0.123   2.495  14.801 -0.2260  0.1264 -0.1888
18849TIP3    H177962   0.164   2.410  14.785  1.1902  0.9298 -1.1286
18849TIP3    H277963   0.107   2.497  14.896 -1.0659 -1.4907 -0.2710
18850TIP3   OH277964   3.362   2.999   1.664  0.3601 -0.1810  0.0856
18850TIP3    H177965   3.298   3.034   1.727 -0.0426  2.6504 -1.7167
18850TIP3    H277966   3.310   2.952   1.600  0.5232 -1.0618  0.5855
18851TIP3   OH277967   0.428   0.323  13.857  0.4566  0.3157 -0.6039
18851TIP3    H177968   0.495   0.386  13.831  1.4103 -0.3786  0.0980
18851TIP3    H277969   0.402   0.350  13.946  0.8190 -0.2227 -0.3271
18852TIP3   OH277970   2.135   5.027  16.771 -0.5314 -0.4934  0.2836
18852TIP3    H177971   2.041   5.024  16.753 -0.5045 -0.8285  0.1931
18852TIP3    H277972   2.174   5.061  16.690 -0.6325  0.3225  0.5616
18853TIP3   OH277973   5.412   4.340  13.407 -0.4101 -0.3311  0.6716
18853TIP3    H177974   5.430   4.340  13.313  0.8210 -0.5481  0.8967
18853TIP3    H277975   5.472   4.405  13.444 -0.5379 -0.5929  1.3684
18854TIP3   OH277976   6.562   3.895   3.629  0.2807 -0.3896 -0.0084
18854TIP3    H177977   6.531   3.806   3.648  1.5090 -0.7608  0.3086
18854TIP3    H277978   6.655   3.894   3.652  0.2135  1.1189  0.4576
18855TIP3   OH277979   6.175   5.935  15.501  0.1193  0.0568 -0.1477
18855TIP3    H177980   6.178   5.843  15.475 -1.3111  0.5686 -2.4850
18855TIP3    H277981   6.099   5.941  15.558  0.7617 -0.3428  0.7730
18856TIP3   OH277982   5.595   5.960  16.714  0.0906  0.0645 -0.4697
18856TIP3    H177983   5.554   6.036  16.673  1.5401  1.2272  0.1437
18856TIP3    H277984   5.605   5.897  16.643 -0.6159  0.6634 -1.1235
18857TIP3   OH277985   5.044   5.648   4.602  0.3118  0.0818  0.9291
18857TIP3    H177986   5.006   5.580   4.658  0.8651  0.4230  1.7343
18857TIP3    H277987   5.136   5.623   4.592 -0.1203 -0.8617 -1.1958
18858TIP3   OH277988   2.589   0.568  11.285 -0.2491  0.1564 -0.2889
18858TIP3    H177989   2.564   0.511  11.213 -0.0048 -0.4527  0.1019
18858TIP3    H277990   2.566   0.519  11.364  0.1927  0.4929  0.0575
18859TIP3   OH277991   1.218   3.534  14.661 -0.1939  1.0950 -0.2691
18859TIP3    H177992   1.287   3.556  14.599 -0.2047  0.3411 -0.5640
18859TIP3    H277993   1.217   3.607  14.723  1.6331  0.6118  0.3954
18860TIP3   OH277994   4.457   1.666   0.264  0.3565 -0.3395 -0.1461
18860TIP3    H177995   4.395   1.684   0.194  0.7339  0.1736 -0.3535
18860TIP3    H277996   4.541   1.699   0.232  0.6211 -0.4843  0.3720
18861TIP3   OH277997   0.829   3.140   0.053  0.1384 -0.4915  0.4211
18861TIP3    H177998   0.739   3.119   0.079 -0.0977 -0.1317 -0.1006
18861TIP3    H277999   0.858   3.064   0.003 -0.5743  0.1987 -1.1144
18862TIP3   OH278000   2.496   5.971   5.754  0.2676  0.2156 -0.0580
18862TIP3    H178001   2.464   6.036   5.692  0.7089  0.7684  0.2741
18862TIP3    H278002   2.573   5.933   5.711 -1.1104 -1.5129 -1.0962
18863TIP3   OH278003   5.475   6.345  11.406  0.1736  0.0817 -0.0912
18863TIP3    H178004   5.414   6.408  11.445 -0.5632 -0.1390 -0.8764
18863TIP3    H278005   5.549   6.399  11.378  0.2025  0.3960  0.5638
18864TIP3   OH278006   1.424   3.025   3.324  0.6688 -0.3665 -0.1683
18864TIP3    H178007   1.384   3.090   3.266  2.2802 -0.3802 -1.3705
18864TIP3    H278008   1.465   2.962   3.264  1.9691 -0.6567  0.9738
18865TIP3   OH278009   3.435   4.098   2.635  0.6549  0.1826 -0.2908
18865TIP3    H178010   3.400   4.104   2.724  0.1540  1.8850 -0.5718
18865TIP3    H278011   3.501   4.168   2.631  1.1344 -0.3009 -1.0637
18866TIP3   OH278012   1.639   6.168  13.325  0.1049 -0.0255 -0.7076
18866TIP3    H178013   1.668   6.197  13.412  1.2891 -2.0047 -0.3766
18866TIP3    H278014   1.552   6.130  13.341 -0.1278  0.5492 -0.5914
18867TIP3   OH278015   5.014   6.700  12.265 -0.2777 -0.0452  0.5123
18867TIP3    H178016   5.010   6.783  12.217 -0.6133 -0.7580 -0.7169
18867TIP3    H278017   5.076   6.646  12.216 -0.5916 -0.7769  0.9038
18868TIP3   OH278018   4.576   6.072  11.076 -0.2313 -0.4091 -0.2233
18868TIP3    H178019   4.657   6.058  11.028 -0.8462 -0.7713 -1.1809
18868TIP3    H278020   4.584   6.160  11.113  0.3553 -0.2165 -0.7996
18869TIP3   OH278021   2.708   5.596   2.900 -0.0418 -0.7156  1.0457
18869TIP3    H178022   2.742   5.508   2.919  0.3077 -1.1761 -1.3205
18869TIP3    H278023   2.625   5.580   2.855  0.1812  0.1415  0.2960
18870TIP3   OH278024   1.814   4.597  13.351 -0.0302  0.1523  0.0725
18870TIP3    H178025   1.907   4.618  13.362  0.0415 -0.3892  0.5214
18870TIP3    H278026   1.786   4.569  13.438 -1.2331  2.6546  0.5787
18871TIP3   OH278027   1.860   4.223  11.934  0.1610 -0.1774  0.4302
18871TIP3    H178028   1.870   4.296  11.872 -2.5211 -0.8552 -0.9810
18871TIP3    H278029   1.882   4.260  12.019  3.1702  1.0377 -0.7598
18872TIP3   OH278030   4.355   5.095  16.263  0.0999  0.6481  0.1463
18872TIP3    H178031   4.301   5.151  16.319  1.2526  1.1943  0.7573
18872TIP3    H278032   4.426   5.152  16.234  1.5995 -0.5889  1.1953
18873TIP3   OH278033   2.283   0.539  13.881 -0.4707 -0.2011  0.0848
18873TIP3    H178034   2.333   0.615  13.851 -1.6653  0.8977  0.7967
18873TIP3    H278035   2.192   0.568  13.880 -0.9553 -1.6335  0.3710
18874TIP3   OH278036   0.670   1.839   5.678  0.0504 -0.1497  0.2764
18874TIP3    H178037   0.606   1.782   5.637  0.6120 -0.7660  0.2297
18874TIP3    H278038   0.734   1.779   5.718  1.7209  0.3878 -1.4262
18875TIP3   OH278039   0.261   6.526   0.005  0.5343 -0.3329 -0.5647
18875TIP3    H178040   0.278   6.608   0.052  1.1830 -0.3645 -0.7353
18875TIP3    H278041   0.175   6.538  -0.034  1.2350  0.8666 -1.8310
18876TIP3   OH278042   1.426   4.216  11.249  0.0753 -0.3592  0.1719
18876TIP3    H178043   1.428   4.301  11.205  1.7467  0.6918  2.0449
18876TIP3    H278044   1.476   4.231  11.330  0.1142 -3.0504  0.7279
18877TIP3   OH278045   3.315   4.102  15.084 -0.0007 -0.1620  0.1299
18877TIP3    H178046   3.278   4.140  15.164 -1.1026  1.2576 -1.0055
18877TIP3    H278047   3.276   4.014  15.080  1.2024 -0.8407  1.8621
18878TIP3   OH278048   3.716   4.040  17.133 -0.2227  0.3430 -0.4013
18878TIP3    H178049   3.757   3.992  17.204 -0.2859  2.0116  0.8212
18878TIP3    H278050   3.785   4.049  17.067  0.7593  1.2150  0.6981
18879TIP3   OH278051   6.626   3.719   2.053  0.2245 -0.1505 -0.1816
18879TIP3    H178052   6.590   3.767   2.127  0.8502 -0.5090  0.3715
18879TIP3    H278053   6.717   3.701   2.078  0.6029  0.1682 -1.2579
18880TIP3   OH278054   3.385   6.292  15.016 -0.4070 -0.3084  0.4463
18880TIP3    H178055   3.409   6.306  15.108  0.1671 -0.0517  0.2629
18880TIP3    H278056   3.419   6.368  14.970 -3.0417  0.9395  0.3704
18881TIP3   OH278057   2.606   2.456   5.559 -0.1283  0.2538  0.2882
18881TIP3    H178058   2.611   2.534   5.615 -0.5916 -1.0653  2.2910
18881TIP3    H278059   2.673   2.470   5.492  0.4919  1.9105  1.1952
18882TIP3   OH278060   0.504   0.884   0.007  0.2237 -0.0827 -0.2808
18882TIP3    H178061   0.599   0.896   0.012  0.2981 -0.9490  0.9185
18882TIP3    H278062   0.473   0.906   0.095 -0.6506 -0.1262 -0.5727
18883TIP3   OH278063   3.859   0.359  11.495  0.0504  0.3802 -0.1667
18883TIP3    H178064   3.786   0.315  11.452 -0.1174  1.1349 -0.6796
18883TIP3    H278065   3.819   0.430  11.544  0.3132 -0.0512  0.6822
18884TIP3   OH278066   3.152   5.447  15.200  0.4943 -0.0448  0.1563
18884TIP3    H178067   3.098   5.403  15.265 -0.8805 -0.2371 -1.0757
18884TIP3    H278068   3.091   5.475  15.132  2.0241 -1.0294 -1.7367
18885TIP3   OH278069   4.565   5.223  10.273  0.5044 -0.3445 -0.1195
18885TIP3    H178070   4.480   5.218  10.229  0.0621 -1.9505  0.8200
18885TIP3    H278071   4.552   5.174  10.354  2.2097 -0.2309  0.2535
18886TIP3   OH278072   1.351   3.693   0.199 -0.1963 -0.1375 -0.1026
18886TIP3    H178073   1.433   3.713   0.154 -1.0299 -0.2463 -1.7450
18886TIP3    H278074   1.360   3.602   0.227  1.0609  0.4699  1.6735
18887TIP3   OH278075   4.774   3.742   5.986  0.2106 -0.2370 -0.3962
18887TIP3    H178076   4.869   3.735   5.982  0.3592 -1.6787  2.8341
18887TIP3    H278077   4.744   3.704   5.903  2.4017 -0.3567 -1.1979
18888TIP3   OH278078   2.941   0.250  11.238  0.4762 -0.3269  0.0426
18888TIP3    H178079   2.866   0.206  11.199  0.7870 -0.3566 -0.5388
18888TIP3    H278080   2.914   0.269  11.328  0.0052 -0.8786  0.0214
18889TIP3   OH278081   5.270   6.435   2.389  0.3575  0.1505  0.4617
18889TIP3    H178082   5.342   6.372   2.390  0.5737  0.3745 -0.5160
18889TIP3    H278083   5.285   6.487   2.310 -0.5215  0.6156  0.5962
18890TIP3   OH278084   6.611   3.081   0.127 -0.9723 -0.2700 -0.0885
18890TIP3    H178085   6.689   3.062   0.076 -0.2144  2.3439 -0.0543
18890TIP3    H278086   6.543   3.097   0.062 -1.2911 -1.7195 -0.1343
18891TIP3   OH278087   6.123   0.181  11.549 -0.1151  0.7815  0.0091
18891TIP3    H178088   6.133   0.106  11.608  0.5526  0.6599 -0.2469
18891TIP3    H278089   6.036   0.217  11.569 -0.6804 -0.3931 -0.2512
18892TIP3   OH278090   1.080   3.599  16.192  0.1363 -0.1440 -0.0665
18892TIP3    H178091   1.083   3.694  16.195 -0.1075 -0.1624  0.8662
18892TIP3    H278092   1.001   3.576  16.240  1.2390 -0.8870  1.4938
18893TIP3   OH278093   5.155   0.497  15.568 -0.1529  0.3948 -0.6931
18893TIP3    H178094   5.133   0.476  15.477  0.7893  0.0373 -0.8554
18893TIP3    H278095   5.231   0.442  15.587 -1.4790 -0.9762  0.9486
18894TIP3   OH278096   5.674   3.110   4.930  0.3403  0.0489  0.2585
18894TIP3    H178097   5.661   3.195   4.887 -1.6578 -0.0965  0.4678
18894TIP3    H278098   5.714   3.132   5.014  3.6817  0.3915 -1.2635
18895TIP3   OH278099   0.431   3.369   2.493  0.0172 -0.2479  0.4981
18895TIP3    H178100   0.490   3.295   2.507  0.1188 -0.6825 -1.8694
18895TIP3    H278101   0.345   3.336   2.518  0.1563 -0.9691  0.0567
18896TIP3   OH278102   0.331   3.606  15.286 -0.2073  0.8461 -0.6530
18896TIP3    H178103   0.273   3.597  15.210  1.4831  0.1831 -1.9224
18896TIP3    H278104   0.419   3.599  15.250  0.6564 -0.6225  1.5153
18897TIP3   OH278105   4.707   6.545  11.673 -0.2212 -0.0720 -0.2181
18897TIP3    H178106   4.722   6.631  11.711  0.0528  0.2125 -0.9552
18897TIP3    H278107   4.632   6.556  11.615 -1.2200 -0.7136  0.8888
18898TIP3   OH278108   6.678   3.363  13.349  0.1110 -0.7296  0.2778
18898TIP3    H178109   6.696   3.337  13.440  0.8767  0.6522  0.5579
18898TIP3    H278110   6.764   3.365  13.308  0.2077  1.7285  0.4218
18899TIP3   OH278111   1.260   0.297  14.446 -0.0552  0.4152 -0.2574
18899TIP3    H178112   1.269   0.323  14.354 -0.4883  1.3926 -0.0318
18899TIP3    H278113   1.167   0.276  14.456 -0.4255  2.1918  0.4079
18900TIP3   OH278114   3.590   5.810  16.654  0.2340 -0.8614 -0.5717
18900TIP3    H178115   3.601   5.836  16.746  2.7596 -2.5631 -0.2998
18900TIP3    H278116   3.607   5.890  16.605  2.3655 -0.6540  0.3845
18901TIP3   OH278117   5.552   3.186  13.305  0.5104 -0.3954  0.3433
18901TIP3    H178118   5.614   3.251  13.338  0.3726 -0.5205  0.8570
18901TIP3    H278119   5.506   3.155  13.383  2.4057 -3.0681  0.5171
18902TIP3   OH278120   6.394   5.556   6.446  0.0124  0.5596 -0.2151
18902TIP3    H178121   6.332   5.485   6.433 -0.8492  1.2129  0.2323
18902TIP3    H278122   6.438   5.535   6.529  0.1718  0.2589 -0.3750
18903TIP3   OH278123   2.101   3.659  13.657  0.0032 -0.0674 -0.5066
18903TIP3    H178124   2.064   3.587  13.708  0.0917 -0.8740 -1.5518
18903TIP3    H278125   2.026   3.711  13.630 -0.0445  0.3717  0.4298
18904TIP3   OH278126   3.241   3.302   4.665  0.7344 -0.0689 -0.1425
18904TIP3    H178127   3.285   3.274   4.745  1.1513  1.5790  0.2550
18904TIP3    H278128   3.157   3.338   4.695  0.8203  0.4005 -0.4553
18905TIP3   OH278129   0.960   3.579   4.269 -0.0317 -0.5029 -0.1574
18905TIP3    H178130   0.928   3.639   4.202 -0.2418 -1.1765 -0.6689
18905TIP3    H278131   1.000   3.635   4.335  1.2948  0.1033 -1.4301
18906TIP3   OH278132   1.286   3.491   4.323 -0.0733  0.2031 -0.9556
18906TIP3    H178133   1.284   3.466   4.416  1.2621  0.9655 -0.6957
18906TIP3    H278134   1.198   3.469   4.291 -0.4631 -0.3706  0.4025
18907TIP3   OH278135   5.130   1.043   2.852 -0.3036 -0.2283  0.0543
18907TIP3    H178136   5.165   0.986   2.783 -0.0313 -1.0495  0.8455
18907TIP3    H278137   5.207   1.090   2.886 -0.3143 -0.3840  0.2987
18908TIP3   OH278138   1.144   4.986   1.813 -0.3284  0.4622  0.4681
18908TIP3    H178139   1.120   5.075   1.835  0.9164  1.2674 -1.1960
18908TIP3    H278140   1.125   4.978   1.719 -0.8571 -1.1770  0.6750
18909TIP3   OH278141   3.265   2.617   5.399 -0.1602 -0.1934  0.3184
18909TIP3    H178142   3.184   2.566   5.393 -0.2212  0.0450 -1.3485
18909TIP3    H278143   3.250   2.693   5.342  1.1221  0.0016  0.2139
18910TIP3   OH278144   2.443   3.746   4.899 -0.2222 -0.2845 -0.6134
18910TIP3    H178145   2.411   3.713   4.983  2.5620 -1.5522  0.0404
18910TIP3    H278146   2.386   3.821   4.880 -2.3491 -1.3035  1.2658
18911TIP3   OH278147   6.617   4.485  14.709  0.0563  0.4162  0.3191
18911TIP3    H178148   6.651   4.456  14.794 -0.1428  2.8308  1.3049
18911TIP3    H278149   6.670   4.562  14.687 -1.5516  1.3474 -0.4849
18912TIP3   OH278150   1.458   2.140   6.168  0.7724 -0.4571  0.2109
18912TIP3    H178151   1.365   2.150   6.188  0.3273 -1.7311 -1.0054
18912TIP3    H278152   1.495   2.097   6.245  0.7455  1.5589  1.4097
18913TIP3   OH278153   5.484   4.483  15.806 -0.0942  0.0272  0.2523
18913TIP3    H178154   5.521   4.405  15.847  2.4548 -0.5045 -2.7065
18913TIP3    H278155   5.394   4.459  15.786 -1.1238 -0.0661  4.2001
18914TIP3   OH278156   0.889   1.715   1.633 -0.4129 -0.0080 -0.3509
18914TIP3    H178157   0.819   1.729   1.568  0.9306  0.8930 -1.6608
18914TIP3    H278158   0.877   1.624   1.660 -2.8427  0.4623  0.4267
18915TIP3   OH278159   5.532   5.600   1.775 -0.5636 -0.1514 -0.5375
18915TIP3    H178160   5.558   5.514   1.742 -1.1865 -0.5836  0.0750
18915TIP3    H278161   5.520   5.587   1.869  0.6258  0.9183 -0.2022
18916TIP3   OH278162   0.555   5.765   1.408 -0.3537  0.1343 -0.0801
18916TIP3    H178163   0.499   5.697   1.446 -0.4769  0.4644  0.3289
18916TIP3    H278164   0.606   5.718   1.341 -0.4573 -0.3549  0.1763
18917TIP3   OH278165   4.301   1.735   0.050 -0.1481  0.2195 -0.4672
18917TIP3    H178166   4.327   1.818   0.010  1.0613 -1.3683 -3.2282
18917TIP3    H278167   4.205   1.737   0.047 -0.1519  1.5714 -0.2852
18918TIP3   OH278168   3.335   2.738  13.557 -0.3496 -0.7149  0.2621
18918TIP3    H178169   3.254   2.687  13.564  0.9425 -3.1033 -1.0359
18918TIP3    H278170   3.362   2.727  13.466  0.8907  0.9339  0.3994
18919TIP3   OH278171   1.670   3.363  15.303  0.0587 -0.8080  0.0329
18919TIP3    H178172   1.726   3.324  15.235 -1.8648  0.4587 -2.4235
18919TIP3    H278173   1.607   3.295  15.324  0.9888 -1.3954  1.0268
18920TIP3   OH278174   0.930   5.051   5.960  0.2646  0.3367 -0.4709
18920TIP3    H178175   0.912   5.117   6.027 -0.0864  0.0561 -0.2801
18920TIP3    H278176   0.878   4.975   5.987 -0.8346  0.6173 -1.7183
18921TIP3   OH278177   4.668   0.177  17.162 -1.3141 -0.4518 -0.0646
18921TIP3    H178178   4.652   0.266  17.194  1.2059 -0.3292  1.0585
18921TIP3    H278179   4.756   0.181  17.124 -2.0949 -1.9244 -2.2113
18922TIP3   OH278180   2.882   5.908   2.265  0.8269  0.0589  0.1312
18922TIP3    H178181   2.881   5.824   2.312 -0.0256  0.3910  0.7422
18922TIP3    H278182   2.851   5.971   2.330  0.4667  0.6765 -0.6261
18923TIP3   OH278183   3.955   1.805  11.570  0.2257  0.0417 -0.5222
18923TIP3    H178184   3.908   1.884  11.595 -0.4977 -0.2546 -0.9363
18923TIP3    H278185   3.980   1.820  11.479  0.2656 -0.1216 -0.5375
18924TIP3   OH278186   4.225   0.863   2.758  0.1675 -0.2093  0.0062
18924TIP3    H178187   4.199   0.810   2.834  0.6516 -1.1237 -0.4494
18924TIP3    H278188   4.217   0.953   2.788 -1.0209 -0.5221  0.6978
18925TIP3   OH278189   1.228   6.464   1.159 -0.0507 -0.1607  0.1403
18925TIP3    H178190   1.235   6.556   1.130 -1.7596  0.2712  0.9953
18925TIP3    H278191   1.143   6.459   1.203 -0.8764 -2.5991 -1.4910
18926TIP3   OH278192   5.081   3.731  11.145  0.1864  0.0394  0.0797
18926TIP3    H178193   5.110   3.764  11.230  0.9820  0.6470 -0.4123
18926TIP3    H278194   5.124   3.646  11.136 -1.1289 -0.7576  0.9424
18927TIP3   OH278195   2.229   1.641   0.599 -0.0145  0.2248  0.0903
18927TIP3    H178196   2.177   1.593   0.664 -0.0618  0.4302  0.2080
18927TIP3    H278197   2.210   1.598   0.516 -0.0636  0.0476  0.1925
18928TIP3   OH278198   2.810   3.100  15.142  0.1937 -0.4861  0.1760
18928TIP3    H178199   2.787   3.160  15.212  1.9320 -1.8022  1.9784
18928TIP3    H278200   2.797   3.150  15.062 -1.6069  1.1541  1.4140
18929TIP3   OH278201   1.691   3.966  14.866  0.0996 -0.6681 -0.2397
18929TIP3    H178202   1.609   4.013  14.886 -0.0406 -0.9028 -0.2636
18929TIP3    H278203   1.757   4.008  14.922 -0.0678 -0.5802 -0.1067
18930TIP3   OH278204   6.507   5.093   0.754 -0.2189 -0.0598  0.2942
18930TIP3    H178205   6.503   5.041   0.673 -1.2153 -0.4906  0.5966
18930TIP3    H278206   6.598   5.123   0.759  0.2028 -1.1552 -0.2858
18931TIP3   OH278207   6.593   4.028   2.650 -0.2327 -0.1797 -0.4525
18931TIP3    H178208   6.579   3.935   2.633  1.0600 -0.0970 -2.1876
18931TIP3    H278209   6.568   4.071   2.569 -1.0796  1.0424  0.4245
18932TIP3   OH278210   5.000   4.953  16.975 -0.6090  0.3986  0.5897
18932TIP3    H178211   4.932   5.020  16.968  0.2775  1.2585  0.0538
18932TIP3    H278212   5.000   4.911  16.889 -0.5138  0.3480  0.6146
18933TIP3   OH278213   6.097   5.922   5.017  0.2244 -0.1249  0.5391
18933TIP3    H178214   6.056   5.997   4.976  0.5301  0.0797  0.6075
18933TIP3    H278215   6.087   5.937   5.111  1.9558  0.7872  0.6154
18934TIP3   OH278216   0.840   6.132  12.006  0.2922 -0.0676 -0.5031
18934TIP3    H178217   0.798   6.046  11.994 -0.0711 -0.1065  0.9397
18934TIP3    H278218   0.888   6.124  12.088  2.1283  0.3960 -1.4654
18935TIP3   OH278219   6.425   3.425  14.381  0.4705 -0.0961  0.4148
18935TIP3    H178220   6.396   3.349  14.433 -0.1354 -1.7986 -2.2467
18935TIP3    H278221   6.503   3.394  14.336  1.8844  1.8646  1.3932
18936TIP3   OH278222   5.869   6.428   4.134  0.0778 -0.2172  0.0639
18936TIP3    H178223   5.860   6.395   4.224  0.9036 -1.3460 -0.2443
18936TIP3    H278224   5.957   6.466   4.131  0.1544 -0.4208 -0.3295
18937TIP3   OH278225   2.221   1.951  16.185 -0.4033 -0.0580  0.3311
18937TIP3    H178226   2.247   2.021  16.246 -0.6445 -1.5401  2.2273
18937TIP3    H278227   2.125   1.950  16.190 -0.3894 -0.6642  0.4856
18938TIP3   OH278228   3.490   3.697  14.736 -0.3687  0.3719  0.1908
18938TIP3    H178229   3.401   3.691  14.702 -0.1496 -2.5957 -0.1660
18938TIP3    H278230   3.484   3.757  14.811 -2.6295  0.3673  0.0675
18939TIP3   OH278231   1.683   6.470   3.515  0.4180  0.3740  0.5344
18939TIP3    H178232   1.714   6.486   3.604  1.2570  2.6811 -0.0984
18939TIP3    H278233   1.589   6.453   3.525  0.2686  1.7388  1.7804
18940TIP3   OH278234   5.552   4.479  16.216 -0.4612 -0.0163 -0.5731
18940TIP3    H178235   5.638   4.457  16.180 -0.0496  0.8499 -0.1455
18940TIP3    H278236   5.547   4.574  16.211 -0.2129  0.2106  1.9543
18941TIP3   OH278237   1.678   4.643   4.938  0.3724  0.3786  0.0183
18941TIP3    H178238   1.666   4.738   4.946 -0.9371  0.2820 -0.5017
18941TIP3    H278239   1.605   4.605   4.988 -0.3011 -0.3160 -1.4281
18942TIP3   OH278240   4.209   2.016   0.517  0.2927 -0.0524 -0.3448
18942TIP3    H178241   4.133   1.973   0.477  0.3324  0.8039 -1.3885
18942TIP3    H278242   4.280   1.952   0.507 -0.0508 -0.4440 -0.3023
18943TIP3   OH278243   4.375   3.956  13.306  0.1798 -0.2673 -0.0583
18943TIP3    H178244   4.422   3.919  13.380 -0.9017  0.3230  0.9554
18943TIP3    H278245   4.298   3.900  13.297 -1.2900  1.4418  1.2660
18944TIP3   OH278246   6.110   0.647   3.020 -0.1915 -0.2744 -0.0065
18944TIP3    H178247   6.108   0.583   3.091 -0.4062  0.4628  0.6639
18944TIP3    H278248   6.038   0.620   2.962  1.7746 -2.6279 -1.5630
18945TIP3   OH278249   5.974   3.752  16.786  0.0335 -0.0781  0.6735
18945TIP3    H178250   6.042   3.810  16.753  0.0759 -0.5115 -0.0278
18945TIP3    H278251   6.016   3.702  16.855  0.2654  0.0611  0.6321
18946TIP3   OH278252   2.536   2.950  15.899  0.1271 -0.3822  0.2851
18946TIP3    H178253   2.532   2.858  15.874 -0.8320 -0.7624  1.7524
18946TIP3    H278254   2.464   2.991  15.851  0.3265 -0.4563 -0.0829
18947TIP3   OH278255   4.537   6.444   4.736  0.3809  0.2835  0.1601
18947TIP3    H178256   4.516   6.351   4.741  1.1043  0.1450  0.6907
18947TIP3    H278257   4.525   6.476   4.826  1.1327  0.4849  0.1912
18948TIP3   OH278258   4.138   4.788   3.097  0.5081  0.6303 -0.3002
18948TIP3    H178259   4.173   4.740   3.172 -1.9766 -4.1666 -1.7957
18948TIP3    H278260   4.067   4.841   3.133  1.7125  1.3650  1.1098
18949TIP3   OH278261   4.072   6.442  13.416  0.4990 -0.4696 -0.2055
18949TIP3    H178262   4.116   6.514  13.371  0.3657  1.1583  2.0925
18949TIP3    H278263   4.023   6.484  13.487 -1.4208 -2.6252 -0.1177
18950TIP3   OH278264   0.168   5.804  12.597  0.0075 -0.1717  0.0741
18950TIP3    H178265   0.208   5.763  12.674 -1.9319 -2.6359 -0.0938
18950TIP3    H278266   0.130   5.885  12.629  2.8844  1.0731  0.7101
18951TIP3   OH278267   4.389   4.359  11.881  0.2268 -0.5645  0.2591
18951TIP3    H178268   4.337   4.404  11.947  0.0463  0.0871 -0.3175
18951TIP3    H278269   4.351   4.386  11.798  0.2663 -1.6072 -0.1083
18952TIP3   OH278270   1.589   0.124   5.506 -0.4340  0.3164  0.0595
18952TIP3    H178271   1.535   0.164   5.574 -0.3453 -0.8502  0.8516
18952TIP3    H278272   1.542   0.143   5.424 -0.9293  1.1034  0.5097
18953TIP3   OH278273   1.636   6.561   4.814 -0.2346 -0.0635  0.1070
18953TIP3    H178274   1.661   6.595   4.900  0.6789  1.0172 -0.5607
18953TIP3    H278275   1.712   6.578   4.759 -0.3658 -1.7577 -0.6690
18954TIP3   OH278276   1.101   3.562   4.916  0.2567 -0.2160  0.6235
18954TIP3    H178277   1.176   3.600   4.961  0.4025  3.0843 -2.0224
18954TIP3    H278278   1.068   3.632   4.860 -2.7615 -2.5682 -0.8728
18955TIP3   OH278279   6.225   2.930  14.262  0.7309 -0.1354  0.1791
18955TIP3    H178280   6.280   2.854  14.278  1.7647  0.7399  0.9279
18955TIP3    H278281   6.282   2.993  14.218  0.0377  0.3966  0.0117
18956TIP3   OH278282   1.315   0.111  10.646 -0.0477 -0.0539  0.5580
18956TIP3    H178283   1.302   0.110  10.551  0.3108 -2.7769  0.4682
18956TIP3    H278284   1.407   0.137  10.657 -0.6226  2.3379  0.3475
18957TIP3   OH278285   1.801   5.448  15.518 -0.3114 -0.6321  0.1242
18957TIP3    H178286   1.774   5.400  15.440 -2.7407 -1.5034  1.3716
18957TIP3    H278287   1.896   5.447  15.516 -0.2563  0.0844 -3.2022
18958TIP3   OH278288   6.405   0.621   3.158 -0.2686  0.3957  0.0686
18958TIP3    H178289   6.424   0.530   3.135 -0.2245  0.6860 -1.0870
18958TIP3    H278290   6.310   0.623   3.169 -0.2540  0.1835  0.2562
18959TIP3   OH278291   0.987   6.581  14.768  0.4376  0.3631  0.0538
18959TIP3    H178292   0.907   6.537  14.794  0.3510  0.7500  0.4610
18959TIP3    H278293   0.958   6.665  14.731  0.6643  0.6631  0.5360
18960TIP3   OH278294   1.095   1.814  14.881  0.5439 -0.4207  0.1813
18960TIP3    H178295   1.088   1.766  14.799  2.4636  0.0266 -0.2965
18960TIP3    H278296   1.180   1.858  14.876 -0.2337  1.3466  1.5054
18961TIP3   OH278297   6.581   0.128  15.063  0.1702 -0.4744  0.4878
18961TIP3    H178298   6.492   0.096  15.049 -0.5739 -0.3936  4.0579
18961TIP3    H278299   6.575   0.223  15.048 -0.2959 -0.5022  0.4834
18962TIP3   OH278300   0.517   3.182  16.929  0.2783 -0.2647 -0.2839
18962TIP3    H178301   0.475   3.264  16.907  1.1411  0.0018 -1.0090
18962TIP3    H278302   0.595   3.179  16.874 -0.4454 -2.2129 -1.2984
18963TIP3   OH278303   2.095   6.620  13.301 -0.5338 -0.3662  0.1590
18963TIP3    H178304   2.062   6.693  13.354 -0.7723 -1.7724  2.0226
18963TIP3    H278305   2.190   6.632  13.300 -0.5422 -0.2078  0.7621
18964TIP3   OH278306   2.884   0.020   0.896  0.1200  0.2564 -0.1642
18964TIP3    H178307   2.835   0.092   0.857  1.6327  0.6363 -1.4540
18964TIP3    H278308   2.872  -0.053   0.834 -0.2093 -0.1699  0.3914
18965TIP3   OH278309   4.176   3.283   4.098  0.3742 -0.0595  0.1437
18965TIP3    H178310   4.158   3.376   4.110 -1.5257 -0.3976  0.2235
18965TIP3    H278311   4.231   3.279   4.019  1.4805  1.1808  0.8095
18966TIP3   OH278312   1.921   6.037  15.110  0.7437  0.1163  0.0434
18966TIP3    H178313   1.867   6.029  15.188  1.6627 -1.3753  0.5654
18966TIP3    H278314   1.873   5.989  15.043  1.4380 -1.3070  0.5367
18967TIP3   OH278315   5.064   1.754  10.660  0.4414  0.4288  0.2909
18967TIP3    H178316   5.026   1.801  10.735  1.7998 -0.9696  1.9647
18967TIP3    H278317   4.999   1.763  10.591 -0.8201  1.9285  1.5772
18968TIP3   OH278318   1.677   5.248   1.870  0.1097  0.3723  0.2269
18968TIP3    H178319   1.676   5.164   1.824  1.6880 -0.0136  0.8132
18968TIP3    H278320   1.590   5.284   1.857 -0.5691 -1.3149 -0.1365
18969TIP3   OH278321   6.409   4.552  13.161  0.1842 -0.2241  0.1017
18969TIP3    H178322   6.439   4.617  13.098  0.5063  1.4482  1.8537
18969TIP3    H278323   6.314   4.568  13.167  0.4176  0.9193  1.3303
18970TIP3   OH278324   2.882   4.073  17.082  0.1485 -0.2225  0.6018
18970TIP3    H178325   2.893   3.995  17.137 -1.2318 -0.4324  0.6089
18970TIP3    H278326   2.888   4.146  17.143  2.3249 -0.2310  0.4788
18971TIP3   OH278327   6.248   2.730  16.644  0.5108 -0.0337 -0.0804
18971TIP3    H178328   6.298   2.785  16.703  0.0425 -0.0017  0.2977
18971TIP3    H278329   6.159   2.733  16.679  0.2817 -0.2275 -0.6330
18972TIP3   OH278330   4.280   3.897  17.175 -0.2532 -0.0163 -0.6343
18972TIP3    H178331   4.267   3.981  17.219 -0.3785  0.1732 -1.0301
18972TIP3    H278332   4.237   3.908  17.090  0.5662 -0.1495 -1.0686
18973TIP3   OH278333   5.537   4.589  11.725 -0.1797  0.5745  0.1478
18973TIP3    H178334   5.554   4.497  11.706  0.6037  0.6713  0.3527
18973TIP3    H278335   5.474   4.587  11.797  0.7592  0.1742  0.9871
18974TIP3   OH278336   3.298   1.723   3.789 -0.2553  0.1774  0.0449
18974TIP3    H178337   3.333   1.808   3.815  1.0006 -0.4473  0.4584
18974TIP3    H278338   3.229   1.705   3.852  0.5060  0.2072  0.9034
18975TIP3   OH278339   4.026   0.946   2.967  0.1645  0.5187 -0.1230
18975TIP3    H178340   4.052   0.857   2.941 -1.5496  0.0486 -0.3679
18975TIP3    H278341   3.980   0.933   3.050  1.5122  1.4388  0.8083
18976TIP3   OH278342   4.788   2.044   1.067 -0.0295  0.5762 -0.3367
18976TIP3    H178343   4.839   2.126   1.066 -1.0779  1.2513 -1.2143
18976TIP3    H278344   4.844   1.982   1.113  1.3702  1.4222 -0.8254
18977TIP3   OH278345   6.109   4.057   0.856  0.1923 -0.3260 -0.0877
18977TIP3    H178346   6.174   4.058   0.926  1.0653  0.1602 -0.8882
18977TIP3    H278347   6.056   3.979   0.873  1.4100 -1.1033  0.1816
18978TIP3   OH278348   4.423   2.160  13.945 -0.1125 -0.0592  0.0329
18978TIP3    H178349   4.375   2.096  13.997  2.0213 -0.8119  1.2159
18978TIP3    H278350   4.515   2.148  13.971  0.9026  0.4731 -2.9331
18979TIP3   OH278351   0.384   6.566   1.544 -0.1360 -0.3911 -0.0313
18979TIP3    H178352   0.431   6.593   1.465  0.6471 -0.2026  0.4968
18979TIP3    H278353   0.394   6.471   1.546 -0.3311 -0.4175 -0.2666
18980TIP3   OH278354   0.477   2.603   4.733  0.3290 -0.2359  0.6169
18980TIP3    H178355   0.382   2.597   4.725  0.4585 -1.2910 -0.4208
18980TIP3    H278356   0.491   2.648   4.817 -1.0711 -0.1928  0.8555
18981TIP3   OH278357   6.188   5.895   6.068 -0.6479  0.3381 -0.1935
18981TIP3    H178358   6.214   5.841   6.143  0.9867  1.5174  0.1291
18981TIP3    H278359   6.093   5.883   6.063 -0.4365 -2.1159  0.1818
18982TIP3   OH278360   4.825   3.298  12.346 -0.4566  0.4312 -0.8351
18982TIP3    H178361   4.743   3.291  12.395  0.3265 -0.5557  0.3928
18982TIP3    H278362   4.852   3.389  12.360  0.4371 -0.1408  1.8247
18983TIP3   OH278363   0.735   4.160  16.975  0.0538 -0.1954 -1.1023
18983TIP3    H178364   0.754   4.252  16.993 -0.8695 -0.1101 -0.5346
18983TIP3    H278365   0.743   4.117  17.060 -2.7726 -0.0556 -0.6558
18984TIP3   OH278366   5.709   2.479   3.561  0.6839  0.3251 -0.4643
18984TIP3    H178367   5.712   2.526   3.645  0.2820  0.1183 -0.3277
18984TIP3    H278368   5.749   2.394   3.580 -4.0780 -1.9611  1.0448
18985TIP3   OH278369   2.720   6.272   2.110 -0.4849 -0.1854 -0.0492
18985TIP3    H178370   2.793   6.241   2.055  0.7241 -0.2174  1.5139
18985TIP3    H278371   2.752   6.353   2.149 -1.8071  0.5030 -0.3263
18986TIP3   OH278372   2.771   0.846   0.078  0.1725 -0.5733 -0.7159
18986TIP3    H178373   2.781   0.912   0.010  2.8935 -0.3467 -0.1812
18986TIP3    H278374   2.751   0.896   0.158 -1.1118 -0.7019 -0.9308
18987TIP3   OH278375   4.838   2.377  17.210 -0.8664 -0.1828 -0.0582
18987TIP3    H178376   4.780   2.433  17.158 -0.5181  0.0640 -0.1824
18987TIP3    H278377   4.780   2.335  17.273 -1.2171 -0.1097 -0.3273
18988TIP3   OH278378   3.811   3.801   1.263  0.5831 -0.6066 -0.3228
18988TIP3    H178379   3.871   3.800   1.338 -1.8333 -1.1132  1.7016
18988TIP3    H278380   3.826   3.887   1.222  1.6709 -0.1545  0.9608
18989TIP3   OH278381   0.329   5.371   6.694 -0.4504 -0.3713 -0.2097
18989TIP3    H178382   0.303   5.437   6.630  1.1843  0.1791 -0.3565
18989TIP3    H278383   0.291   5.289   6.662 -1.9548  0.3425 -0.3829
18990TIP3   OH278384   3.016   2.896  13.285  0.0037  0.1827 -0.1936
18990TIP3    H178385   2.930   2.927  13.314 -0.2796 -0.9402  0.2166
18990TIP3    H278386   3.071   2.975  13.286 -1.6959  1.5792 -3.3019
18991TIP3   OH278387   2.179   1.051   2.301 -0.2790  0.9660 -0.8810
18991TIP3    H178388   2.096   1.094   2.278 -0.2763  0.0756 -2.8178
18991TIP3    H278389   2.159   1.003   2.381 -1.4540  1.3274 -0.9269
18992TIP3   OH278390   2.322   1.376  11.773  0.2835  0.0845  0.1944
18992TIP3    H178391   2.384   1.317  11.730 -1.6303 -1.1667 -1.0350
18992TIP3    H278392   2.263   1.317  11.821 -1.3410  0.9822 -0.5986
18993TIP3   OH278393   0.315   6.436  11.888  0.4310 -0.1019  0.1297
18993TIP3    H178394   0.258   6.445  11.812  2.0680  0.9888 -1.0482
18993TIP3    H278395   0.255   6.433  11.963 -1.1854 -0.0723 -1.1004
18994TIP3   OH278396   2.408   2.594  15.233 -0.7136 -0.1623 -0.3767
18994TIP3    H178397   2.398   2.688  15.217 -0.7050 -0.2458 -0.8818
18994TIP3    H278398   2.498   2.585  15.266 -0.9279  0.0833  0.2926
18995TIP3   OH278399   5.796   1.535   4.545  0.3911 -0.3433  0.0945
18995TIP3    H178400   5.840   1.571   4.622  2.4887  0.1790 -1.2558
18995TIP3    H278401   5.706   1.567   4.552  0.1340 -1.3854  2.9455
18996TIP3   OH278402   0.478   1.045   3.146 -0.2198 -0.8159  0.6725
18996TIP3    H178403   0.574   1.042   3.147  0.0642  2.1399 -2.2362
18996TIP3    H278404   0.452   0.966   3.099  1.1466  0.1310 -1.8699
18997TIP3   OH278405   0.055   6.332   2.627 -0.0487  0.0880  0.2305
18997TIP3    H178406  -0.006   6.405   2.643  0.8416  1.0247 -0.5355
18997TIP3    H278407   0.119   6.367   2.565 -0.1259 -1.6588 -0.8786
18998TIP3   OH278408   4.592   6.006  16.517  0.1545 -0.0871 -0.1789
18998TIP3    H178409   4.628   6.055  16.590  0.0621 -1.1313  0.5938
18998TIP3    H278410   4.617   5.915  16.534 -1.5917 -0.6448 -0.3568
18999TIP3   OH278411   5.041   1.108   3.895  0.0405 -0.1335  0.8239
18999TIP3    H178412   5.044   1.203   3.903  1.2450  0.2058 -2.2915
18999TIP3    H278413   4.950   1.086   3.912 -0.3512  1.6233  1.2295
19000TIP3   OH278414   4.424   6.540  14.617 -0.4222  0.2321 -0.7349
19000TIP3    H178415   4.471   6.462  14.645  0.2369  0.9904  0.3475
19000TIP3    H278416   4.492   6.604  14.597 -0.9462  0.4681 -1.8941
19001TIP3   OH278417   0.858   3.398   4.655  0.6666  0.3655  0.1068
19001TIP3    H178418   0.845   3.411   4.561 -3.5699 -1.0754  0.2994
19001TIP3    H278419   0.794   3.457   4.696  2.0269  0.5380  2.1125
19002TIP3   OH278420   5.185   4.350  15.343 -0.0049 -0.0305  0.1102
19002TIP3    H178421   5.195   4.367  15.250 -0.5333  0.8126  0.1977
19002TIP3    H278422   5.196   4.255  15.352  1.4957  0.0553 -0.6059
19003TIP3   OH278423   1.448   1.933   2.856  0.4442 -0.1246  0.0334
19003TIP3    H178424   1.420   2.009   2.805  1.1392 -0.1102 -0.3396
19003TIP3    H278425   1.379   1.921   2.921  0.4628  1.0148  0.2910
19004TIP3   OH278426   5.886   3.964   3.186 -0.6159 -0.3445  0.1332
19004TIP3    H178427   5.922   3.878   3.205 -2.1148 -0.7658  1.2785
19004TIP3    H278428   5.844   3.955   3.101 -0.4020 -0.6146  0.0575
19005TIP3   OH278429   5.672   6.077   3.006 -0.1480  0.0690 -0.0152
19005TIP3    H178430   5.716   6.048   3.086  1.0371 -1.4547 -1.1592
19005TIP3    H278431   5.637   6.164   3.028  0.3699 -0.1966  2.0511
19006TIP3   OH278432   5.099   3.296   2.018 -0.2221  0.1164  0.4534
19006TIP3    H178433   5.154   3.358   2.067  1.5136 -0.4577 -0.6687
19006TIP3    H278434   5.105   3.326   1.927 -0.3755 -0.9596  0.0752
19007TIP3   OH278435   5.958   5.222  12.342  0.0845 -0.2799  0.1639
19007TIP3    H178436   5.977   5.312  12.368 -1.1828 -0.3718  1.5000
19007TIP3    H278437   5.913   5.230  12.258 -0.8495  0.4094  0.7169
19008TIP3   OH278438   5.396   0.973  11.670  0.2012  0.4353  0.2276
19008TIP3    H178439   5.486   0.943  11.655  0.5757  0.8528  1.5060
19008TIP3    H278440   5.348   0.945  11.591  1.1387 -0.9928  0.1191
19009TIP3   OH278441   3.223   1.129  16.982 -0.0822 -0.1975 -0.2870
19009TIP3    H178442   3.210   1.132  17.077 -0.7682 -0.4673 -0.3615
19009TIP3    H278443   3.182   1.208  16.949 -0.5817 -0.5090 -0.4285
19010TIP3   OH278444   4.810   0.250  14.610 -0.2229  0.2410  0.2263
19010TIP3    H178445   4.809   0.302  14.530 -1.8911  0.7891  0.5505
19010TIP3    H278446   4.795   0.314  14.680 -1.5941 -0.5630  0.6986
19011TIP3   OH278447   3.470   1.044   1.947  0.0399  0.0171  0.2443
19011TIP3    H178448   3.517   0.997   1.878 -1.0172 -0.2097 -0.3419
19011TIP3    H278449   3.457   1.132   1.911 -0.4407 -0.0778  0.1715
19012TIP3   OH278450   3.875   2.750  12.065 -0.6526  0.2970  0.0252
19012TIP3    H178451   3.885   2.834  12.109 -3.1461  0.5109  0.3275
19012TIP3    H278452   3.788   2.720  12.090  0.0833 -2.3346 -0.2026
19013TIP3   OH278453   2.979   4.412  16.498 -0.2958 -0.4160  0.1024
19013TIP3    H178454   3.064   4.368  16.497 -0.1209 -0.0857  0.3186
19013TIP3    H278455   2.954   4.416  16.590 -0.6643 -0.7357  0.0192
19014TIP3   OH278456   6.575   5.885  13.541 -0.0661  0.5255 -0.4597
19014TIP3    H178457   6.600   5.960  13.487  1.2210  0.1493 -0.4077
19014TIP3    H278458   6.577   5.810  13.482 -2.2477  0.6201 -0.7359
19015TIP3   OH278459   6.531   2.144   4.913  0.0027 -0.1657 -0.2830
19015TIP3    H178460   6.516   2.162   4.820  1.5118  0.4495 -0.4379
19015TIP3    H278461   6.504   2.053   4.924  0.1784 -0.3785 -1.4308
19016TIP3   OH278462   2.929   2.106  11.920  0.4867  0.4191  0.0291
19016TIP3    H178463   2.867   2.033  11.925  1.1446 -0.1002  1.1020
19016TIP3    H278464   2.925   2.135  11.829 -2.5708  1.5066  0.4083
19017TIP3   OH278465   1.234   4.092   5.943 -0.0836 -0.3152  0.5988
19017TIP3    H178466   1.293   4.033   5.990  1.4246  0.5763 -0.0916
19017TIP3    H278467   1.149   4.049   5.948 -0.0668 -0.2774  4.1572
19018TIP3   OH278468   4.686   0.092   5.519  0.2484 -0.2422 -0.5648
19018TIP3    H178469   4.651   0.034   5.451 -1.8389 -0.8505  0.9510
19018TIP3    H278470   4.693   0.037   5.597  3.8790  0.0825 -0.4663
19019TIP3   OH278471   0.522   6.232   2.968 -0.5697 -0.6004  0.1447
19019TIP3    H178472   0.446   6.235   2.910 -1.0127 -2.1601  0.5883
19019TIP3    H278473   0.490   6.188   3.047  0.7538 -1.1774  0.3848
19020TIP3   OH278474   5.042   3.293  11.522  0.0933  0.1606  0.6049
19020TIP3    H178475   5.063   3.213  11.473 -0.5043  0.3661  0.0022
19020TIP3    H278476   5.108   3.357  11.494  0.2473  0.0372  0.6843
19021TIP3   OH278477   6.499   1.193  13.988 -0.0839  0.1046  0.2042
19021TIP3    H178478   6.535   1.279  13.965 -0.3292  0.6131  1.5979
19021TIP3    H278479   6.565   1.131  13.959 -0.0775  0.7232 -1.1910
19022TIP3   OH278480   3.793   3.257  13.331  0.2600 -0.3120 -0.0862
19022TIP3    H178481   3.735   3.253  13.407  1.1520  0.1850  0.6534
19022TIP3    H278482   3.837   3.172  13.329  0.0661 -0.4101 -0.1865
19023TIP3   OH278483   0.625   0.299   2.120 -0.7283 -0.1891 -0.0621
19023TIP3    H178484   0.655   0.389   2.109 -0.1401 -0.4201 -0.4353
19023TIP3    H278485   0.700   0.254   2.160 -1.3206 -0.3250  0.8988
19024TIP3   OH278486   5.598   2.116  12.538 -0.3852  0.0530 -0.0399
19024TIP3    H178487   5.556   2.088  12.620 -0.6599  0.1681 -0.1427
19024TIP3    H278488   5.529   2.110  12.472  0.1381 -1.2496 -0.5194
19025TIP3   OH278489   1.354   4.080   2.351 -0.1690 -0.0959 -0.4389
19025TIP3    H178490   1.303   4.147   2.306 -0.1950  0.2401  0.0875
19025TIP3    H278491   1.392   4.028   2.280 -0.8534 -0.0608 -0.8383
19026TIP3   OH278492   6.219   3.005   5.521  0.1518 -0.9105 -0.1957
19026TIP3    H178493   6.168   3.059   5.582  4.5092  1.8842  1.4677
19026TIP3    H278494   6.173   3.014   5.437 -1.5875  2.1469  0.9049
19027TIP3   OH278495   6.177   1.506   4.528 -0.2146 -0.0027  0.5242
19027TIP3    H178496   6.202   1.438   4.591 -1.2871 -2.1669 -1.2521
19027TIP3    H278497   6.097   1.544   4.565 -0.5471 -0.8885  0.7473
19028TIP3   OH278498   3.335   1.796   4.708  0.7634 -0.2521 -0.0330
19028TIP3    H178499   3.416   1.772   4.662  0.0961 -1.7199 -0.4877
19028TIP3    H278500   3.353   1.778   4.800  1.5019  1.0030  0.0835
19029TIP3   OH278501   1.491   3.617  16.625  0.3788 -0.1710  0.1576
19029TIP3    H178502   1.580   3.599  16.595  0.4700  0.0848  0.2737
19029TIP3    H278503   1.448   3.656  16.550  1.0889  2.0502  0.8085
19030TIP3   OH278504   2.282   6.500   1.083  0.1377  0.3997  0.1255
19030TIP3    H178505   2.255   6.558   1.154  2.0253  1.0614  0.3584
19030TIP3    H278506   2.200   6.461   1.051 -1.0572  2.3274  0.6905
19031TIP3   OH278507   3.699   1.031   2.744  0.2932  0.0464  0.1593
19031TIP3    H178508   3.691   0.994   2.656  0.1293 -0.1643  0.2628
19031TIP3    H278509   3.610   1.054   2.769 -0.0010 -1.9788  1.1724
19032TIP3   OH278510   1.946   3.685   1.840  0.1106 -0.6053  0.1366
19032TIP3    H178511   1.978   3.759   1.891  0.0369  0.2297 -1.0010
19032TIP3    H278512   2.025   3.642   1.807  0.1494  0.2145 -0.9165
19033TIP3   OH278513   3.650   1.077  13.829 -0.1276 -0.3906  0.5874
19033TIP3    H178514   3.712   1.145  13.853 -0.9865  0.6641 -0.0691
19033TIP3    H278515   3.596   1.065  13.907  1.1685 -1.6797  1.3396
19034TIP3   OH278516   6.669   1.112  14.894  0.0481  0.2840 -0.0659
19034TIP3    H178517   6.649   1.182  14.831  1.6320  0.4019 -0.4862
19034TIP3    H278518   6.764   1.106  14.893 -0.0356 -1.6474  0.2374
19035TIP3   OH278519   0.917   3.276  15.164 -0.6841 -0.6984  0.4906
19035TIP3    H178520   0.832   3.273  15.208 -1.2390 -2.0279 -0.5734
19035TIP3    H278521   0.896   3.275  15.070  0.4159  2.9197  0.0336
19036TIP3   OH278522   3.249   2.779   2.283 -0.2122 -0.6140 -0.2023
19036TIP3    H178523   3.295   2.757   2.364  0.8422 -0.3838 -0.7120
19036TIP3    H278524   3.319   2.791   2.219 -0.9791  0.0594 -0.9409
19037TIP3   OH278525   5.929   6.067  12.971 -0.0870  0.8412 -0.0720
19037TIP3    H178526   5.902   6.157  12.957  0.4633  1.1377  0.7002
19037TIP3    H278527   6.002   6.073  13.032  1.2047  0.0163 -1.4549
19038TIP3   OH278528   2.496   1.197  12.186  0.7922 -0.0628 -0.8544
19038TIP3    H178529   2.513   1.268  12.248 -0.7551 -0.7479  0.4307
19038TIP3    H278530   2.580   1.182  12.143  1.0839  2.7419 -1.4292
19039TIP3   OH278531   5.262   3.275   3.043 -0.0335 -0.3540 -0.3914
19039TIP3    H178532   5.357   3.268   3.042 -0.1369 -1.9735 -0.7262
19039TIP3    H278533   5.234   3.232   2.962 -1.0654 -0.1748 -0.1426
19040TIP3   OH278534   2.915   4.572   0.119 -0.6290 -0.4250  0.6958
19040TIP3    H178535   3.006   4.558   0.144 -0.1593 -1.6962 -1.4388
19040TIP3    H278536   2.865   4.515   0.178  0.1658 -1.2934  0.5636
19041TIP3   OH278537   4.772   0.464  14.808  0.9424  0.3151 -0.0748
19041TIP3    H178538   4.817   0.531  14.755 -0.0717  1.7543  0.7940
19041TIP3    H278539   4.679   0.486  14.800  0.6806 -0.1868  1.2727
19042TIP3   OH278540   0.568   2.437   0.331 -0.0493  0.4037  0.0083
19042TIP3    H178541   0.660   2.464   0.327 -0.0581  0.3534 -3.0928
19042TIP3    H278542   0.520   2.518   0.347  0.3716  1.2361 -2.4444
19043TIP3   OH278543   5.218   6.659  11.188  0.0026  0.3259  0.5347
19043TIP3    H178544   5.174   6.588  11.236 -0.5209  1.2071  1.3976
19043TIP3    H278545   5.157   6.682  11.118  0.3201 -0.2829  0.0465
19044TIP3   OH278546   4.229   3.829  13.635 -0.2509 -0.3162  0.0300
19044TIP3    H178547   4.141   3.827  13.670  0.6327 -1.1900  2.4087
19044TIP3    H278548   4.275   3.895  13.687  0.8329 -0.8399 -0.2169
19045TIP3   OH278549   5.838   4.128  13.076 -0.0883  0.2427  0.0196
19045TIP3    H178550   5.789   4.176  13.144 -0.8216 -0.3341 -0.0932
19045TIP3    H278551   5.786   4.140  12.997 -0.3616 -0.8603  0.0205
19046TIP3   OH278552   6.552   4.877   3.253  1.0236 -0.0797  0.0145
19046TIP3    H178553   6.556   4.968   3.282  1.8104 -0.0422 -0.1950
19046TIP3    H278554   6.603   4.875   3.172  2.4876 -1.0477  0.9254
19047TIP3   OH278555   0.569   4.936   4.282 -0.3969 -0.0663 -0.1639
19047TIP3    H178556   0.634   4.936   4.352  0.5695  0.6679 -1.0117
19047TIP3    H278557   0.622   4.929   4.202 -1.2746  1.5278 -0.9261
19048TIP3   OH278558   0.937   1.375   4.796 -0.4291 -0.3520  0.0055
19048TIP3    H178559   0.890   1.413   4.870  0.9935 -1.1868  1.4084
19048TIP3    H278560   1.030   1.387   4.818  0.0550 -2.5621 -0.5332
19049TIP3   OH278561   4.361   6.687   5.148 -0.0699  0.7767  0.9707
19049TIP3    H178562   4.301   6.708   5.076  0.4880 -2.5087 -0.6080
19049TIP3    H278563   4.306   6.644   5.214  0.3059 -1.7159 -0.2308
19050TIP3   OH278564   0.974   2.307  15.492  0.0346  0.0775 -0.0041
19050TIP3    H178565   1.002   2.340  15.577  0.8990 -0.1706 -0.1820
19050TIP3    H278566   1.031   2.232  15.475 -1.1872 -0.8649 -0.0975
19051TIP3   OH278567   4.383   2.733  16.492  0.0968  0.0715 -0.1761
19051TIP3    H178568   4.464   2.783  16.504  1.6454 -1.5475 -2.9972
19051TIP3    H278569   4.323   2.796  16.452  0.8646  0.6291 -0.4983
19052TIP3   OH278570   2.595   6.319   4.752  0.5042  0.2117 -0.4740
19052TIP3    H178571   2.535   6.269   4.696  1.2921 -1.1340 -0.1487
19052TIP3    H278572   2.542   6.393   4.783 -0.0335  0.8788 -2.7639
19053TIP3   OH278573   2.915   4.667  12.680  0.2190  0.3759  0.5047
19053TIP3    H178574   2.976   4.606  12.639 -0.4650 -0.4353  0.6684
19053TIP3    H278575   2.837   4.664  12.625  0.1865  1.1249  0.5058
19054TIP3   OH278576   3.571   5.905  15.792  0.3464 -0.7563  0.2152
19054TIP3    H178577   3.586   5.999  15.780 -0.6709 -0.4894  0.8915
19054TIP3    H278578   3.651   5.864  15.759 -0.4129  0.1244 -3.0323
19055TIP3   OH278579   4.007   5.150   1.467  0.0394 -0.7978  0.0756
19055TIP3    H178580   4.097   5.159   1.500  0.0349 -1.0636  0.1605
19055TIP3    H278581   3.955   5.204   1.526  0.5889  2.3374 -2.0509
19056TIP3   OH278582   0.686   3.207  12.060  0.0626 -0.6659 -0.0419
19056TIP3    H178583   0.667   3.135  12.000 -1.6958 -0.1869 -0.1001
19056TIP3    H278584   0.704   3.282  12.003 -0.9712 -0.3684  0.0101
19057TIP3   OH278585   5.726   1.652   1.895 -0.3889  0.4186 -0.7702
19057TIP3    H178586   5.716   1.729   1.951  1.7013  0.8259 -0.8650
19057TIP3    H278587   5.790   1.678   1.829 -0.1240 -1.1762 -1.1980
19058TIP3   OH278588   2.909   4.093  16.644  0.1267 -0.1354  0.7438
19058TIP3    H178589   2.942   4.183  16.643  0.3791 -0.1712  2.3788
19058TIP3    H278590   2.910   4.066  16.552 -1.6083  2.0968 -0.0305
19059TIP3   OH278591   2.671   1.644  16.923 -0.0594  0.1722 -1.0984
19059TIP3    H178592   2.636   1.609  17.005  2.1393  0.2292 -0.0714
19059TIP3    H278593   2.707   1.568  16.878 -0.6575  0.2459 -1.7159
19060TIP3   OH278594   3.654   3.092  15.156 -0.7498  0.5519 -0.2735
19060TIP3    H178595   3.735   3.067  15.112 -0.5716  1.4584 -0.4772
19060TIP3    H278596   3.660   3.052  15.243 -0.4408 -0.0185 -0.5481
19061TIP3   OH278597   6.531   1.878   5.461 -0.1607 -0.1937  0.3398
19061TIP3    H178598   6.470   1.934   5.413 -0.4627 -1.0711 -0.3135
19061TIP3    H278599   6.596   1.939   5.497 -0.4388  0.5647 -0.4179
19062TIP3   OH278600   0.937   5.718   0.585  0.3700 -0.4748 -0.0481
19062TIP3    H178601   0.849   5.699   0.618  0.6945 -0.8307  0.6184
19062TIP3    H278602   0.977   5.773   0.652  0.3876  0.3562 -0.7207
19063TIP3   OH278603   0.729   4.539  17.213  0.1469 -0.1720  0.1396
19063TIP3    H178604   0.749   4.619  17.166  0.0895 -2.1656 -3.6710
19063TIP3    H278605   0.634   4.543  17.228  0.0182  0.1841 -0.6941
19064TIP3   OH278606   3.101   0.910   4.477  0.5514  0.1470 -0.1798
19064TIP3    H178607   3.086   0.838   4.537  0.6364  0.4358  0.1931
19064TIP3    H278608   3.176   0.883   4.425 -0.2554 -0.6252 -0.9864
19065TIP3   OH278609   2.887   2.763   6.107  0.3979 -0.4336 -0.0615
19065TIP3    H178610   2.834   2.833   6.146  0.6855 -0.2722  0.0495
19065TIP3    H278611   2.919   2.801   6.025 -0.6675 -0.9748 -0.7458
19066TIP3   OH278612   3.209   6.526   3.616  0.8602  0.1832 -0.0491
19066TIP3    H178613   3.204   6.588   3.689  1.7446  0.3713 -0.1375
19066TIP3    H278614   3.133   6.469   3.628  1.8952 -0.8784  2.0174
19067TIP3   OH278615   6.642   2.206  16.677 -0.7136  0.4766 -0.2848
19067TIP3    H178616   6.659   2.143  16.747 -0.4777  0.3870 -0.4216
19067TIP3    H278617   6.572   2.261  16.710 -0.0742  0.9363  0.3449
19068TIP3   OH278618   5.184   6.180  14.713 -0.2088  0.8394  0.2585
19068TIP3    H178619   5.216   6.200  14.625 -0.0982  0.1146  0.1264
19068TIP3    H278620   5.244   6.113  14.745 -0.4012  0.9179  0.7932
19069TIP3   OH278621   6.198   5.179  15.779 -0.1909 -0.0324  0.2335
19069TIP3    H178622   6.203   5.210  15.869  0.9353  0.3941  0.0473
19069TIP3    H278623   6.169   5.088  15.785  0.1020 -0.0734  1.0314
19070TIP3   OH278624   0.275   0.565   4.365 -0.8572  0.0552 -0.1909
19070TIP3    H178625   0.185   0.595   4.382 -0.4886  1.1384 -0.0593
19070TIP3    H278626   0.281   0.481   4.410 -2.4576 -1.0964 -1.9492
19071TIP3   OH278627   3.123   0.885  15.852  0.4106 -0.4470  0.1502
19071TIP3    H178628   3.130   0.841  15.937  2.0007 -0.0819  0.2280
19071TIP3    H278629   3.194   0.948  15.851 -0.6645  0.8207 -0.7439
19072TIP3   OH278630   5.016   0.654  15.050  0.5238 -0.1452  0.5218
19072TIP3    H178631   4.945   0.717  15.040 -0.7849 -1.4942  0.9611
19072TIP3    H278632   4.973   0.575  15.084  2.5546 -0.2659  3.1306
19073TIP3   OH278633   4.359   1.253   5.290  0.2753  0.0565 -0.1242
19073TIP3    H178634   4.341   1.347   5.285  0.7900  0.2087  0.6424
19073TIP3    H278635   4.376   1.237   5.383 -0.3589 -0.9060 -0.1589
19074TIP3   OH278636   2.010   3.999   0.988 -0.0070 -0.2204 -0.3091
19074TIP3    H178637   1.949   4.035   1.053 -0.2558  1.5535 -1.4688
19074TIP3    H278638   1.955   3.944   0.932 -0.3968  0.6011 -0.7628
19075TIP3   OH278639   4.387   1.765  12.322  0.3664  0.1367  0.1646
19075TIP3    H178640   4.472   1.768  12.277  0.1258  0.3062 -0.2947
19075TIP3    H278641   4.408   1.737  12.411  0.8123 -0.6656 -0.1738
19076TIP3   OH278642   2.424   1.151  11.673  0.1593 -0.1229 -0.3378
19076TIP3    H178643   2.413   1.138  11.579 -1.6540  0.2591 -0.2176
19076TIP3    H278644   2.359   1.093  11.713  0.3510  0.3223  0.6507
19077TIP3   OH278645   6.408   4.946   5.904  0.4841  0.2190 -0.0686
19077TIP3    H178646   6.421   4.975   5.995  0.1018 -2.2663  0.8612
19077TIP3    H278647   6.488   4.897   5.883 -1.2078 -3.1969  0.7064
19078TIP3   OH278648   4.894   2.583  13.640 -0.2577 -0.4237 -0.2967
19078TIP3    H178649   4.893   2.652  13.574  3.2476  1.3229  1.1884
19078TIP3    H278650   4.943   2.512  13.599 -0.2220 -0.3256 -0.4248
19079TIP3   OH278651   1.354   4.464  12.734  0.0103 -0.1687 -0.0174
19079TIP3    H178652   1.431   4.406  12.733 -0.4433 -0.7837  0.2988
19079TIP3    H278653   1.290   4.419  12.788 -1.1558 -0.4080 -1.5278
19080TIP3   OH278654   5.813   5.744   4.450  0.2392  0.0368 -0.4667
19080TIP3    H178655   5.892   5.754   4.503 -0.2813 -0.0556  0.3397
19080TIP3    H278656   5.821   5.657   4.412  1.0300  0.4357 -1.2491
19081TIP3   OH278657   4.153   5.618  11.814  0.2889  0.9712 -0.9852
19081TIP3    H178658   4.084   5.684  11.819  0.7775  1.4227  0.1444
19081TIP3    H278659   4.212   5.639  11.886  1.0193 -0.0719 -1.2502
19082TIP3   OH278660   0.089   3.504  13.836  0.8077  0.3487  0.4384
19082TIP3    H178661   0.149   3.432  13.814  1.2044  1.2636 -1.6772
19082TIP3    H278662   0.147   3.574  13.866  0.4536  0.0025  2.0259
19083TIP3   OH278663   2.382   5.932  16.577 -0.4097  0.2306  0.1087
19083TIP3    H178664   2.404   5.839  16.571 -1.5114 -0.0608  0.2709
19083TIP3    H278665   2.395   5.965  16.488 -2.9757 -0.8198 -0.7448
19084TIP3   OH278666   1.235   1.930   3.016 -0.7392  0.2001  0.1104
19084TIP3    H178667   1.187   2.011   3.029 -0.5948  0.1222  1.3053
19084TIP3    H278668   1.168   1.862   3.014 -0.8671  0.3537 -0.9912
19085TIP3   OH278669   2.185   5.404   6.777  0.0606  0.1770 -0.5850
19085TIP3    H178670   2.140   5.488   6.772  0.9913  0.6651 -1.3107
19085TIP3    H278671   2.152   5.354   6.702  0.4831  0.4216 -0.9423
19086TIP3   OH278672   0.596   2.226   1.151 -0.6048 -0.2849 -0.0174
19086TIP3    H178673   0.543   2.148   1.168 -0.9493  0.1546  0.9854
19086TIP3    H278674   0.612   2.264   1.237  1.4182 -0.4416 -0.2686
19087TIP3   OH278675   0.210   4.367  13.131 -0.6542  0.2969 -0.2287
19087TIP3    H178676   0.209   4.280  13.170  0.9558  0.3293 -0.0747
19087TIP3    H278677   0.209   4.427  13.206 -0.6061  0.4000 -0.3110
19088TIP3   OH278678   4.503   0.077  14.243  0.6248  0.2570  0.0101
19088TIP3    H178679   4.447   0.035  14.307 -0.2812  1.2004 -0.1383
19088TIP3    H278680   4.513   0.166  14.275 -2.0461  1.5978 -2.4181
19089TIP3   OH278681   3.438   0.138  14.109 -0.6895  0.3053 -0.2993
19089TIP3    H178682   3.524   0.179  14.111 -0.6079  0.2505 -1.8670
19089TIP3    H278683   3.454   0.050  14.075 -1.2868  0.0792 -0.0075
19090TIP3   OH278684   1.448   4.063  15.029  0.6904  0.3804  0.5369
19090TIP3    H178685   1.425   4.002  15.099 -2.9163  0.6906 -0.1898
19090TIP3    H278686   1.476   4.142  15.074 -0.8442  0.3161  1.6801
19091TIP3   OH278687   5.184   0.850  12.470 -0.4348  0.0471  0.3001
19091TIP3    H178688   5.111   0.905  12.497 -0.3921  0.6169 -0.6694
19091TIP3    H278689   5.179   0.772  12.525 -1.0779  0.6000  1.0314
19092TIP3   OH278690   4.685   6.252  11.903 -0.0081  0.3383  0.7187
19092TIP3    H178691   4.674   6.184  11.969 -0.4364 -0.5297 -0.2204
19092TIP3    H278692   4.599   6.295  11.898 -0.1041  0.1246  0.4489
19093TIP3   OH278693   6.594   5.085   4.650 -0.0579  0.4517  0.2043
19093TIP3    H178694   6.683   5.119   4.661 -0.0866  1.3585 -1.9790
19093TIP3    H278695   6.579   5.033   4.729  1.4251  2.3796  1.8858
19094TIP3   OH278696   0.343   1.639   2.982 -0.1274 -0.3569  0.4879
19094TIP3    H178697   0.292   1.645   3.062 -1.7923  1.4422 -0.6088
19094TIP3    H278698   0.312   1.558   2.940 -2.0555  0.6150 -0.0787
19095TIP3   OH278699   1.271   1.080  14.397  0.0687  0.2948 -0.4776
19095TIP3    H178700   1.308   0.996  14.426  1.0624  1.5318  2.0853
19095TIP3    H278701   1.337   1.117  14.340  1.5169  1.0772  1.5965
19096TIP3   OH278702   5.168   0.010  17.003 -0.1843  0.2756 -0.0424
19096TIP3    H178703   5.218   0.020  17.084 -1.1116  0.3357  0.5400
19096TIP3    H278704   5.227  -0.037  16.944  0.9284  1.2563  0.2577
19097TIP3   OH278705   5.051   5.241  11.861 -0.1640 -0.7199 -0.0104
19097TIP3    H178706   5.053   5.307  11.792  0.3334 -0.1534  0.5429
19097TIP3    H278707   5.058   5.157  11.814 -1.1952 -0.4237 -0.7422
19098TIP3   OH278708   4.113   4.595   0.045  0.0836 -0.0954  0.3646
19098TIP3    H178709   4.081   4.678   0.008  1.3409  1.2719  2.1658
19098TIP3    H278710   4.190   4.573  -0.008  0.5379  0.6420  0.6940
19099TIP3   OH278711   2.456   2.908   1.007  0.5908  0.4140 -0.0909
19099TIP3    H178712   2.482   2.891   1.097  2.3282 -0.9047 -0.7946
19099TIP3    H278713   2.405   2.831   0.981  0.7559  0.4321 -0.4780
19100TIP3   OH278714   6.485   3.712   5.932  0.0975  0.3523 -0.4403
19100TIP3    H178715   6.482   3.689   6.025 -0.0383 -0.6998 -0.6997
19100TIP3    H278716   6.410   3.667   5.894 -0.5085  1.6657 -0.8849
19101TIP3   OH278717   4.458   0.855   2.949  0.4638  0.0257  0.7517
19101TIP3    H178718   4.529   0.829   2.890  0.5764 -0.3043  1.0277
19101TIP3    H278719   4.462   0.791   3.020  1.5562  1.5373  2.1058
19102TIP3   OH278720   6.775   2.504  16.614 -0.1536  0.2400 -0.4186
19102TIP3    H178721   6.844   2.460  16.664  0.9097  1.2378 -0.9690
19102TIP3    H278722   6.822   2.554  16.547 -1.4885 -0.1690 -1.7077
19103TIP3   OH278723   1.404   3.475  12.350  0.1079 -0.6989 -0.3179
19103TIP3    H178724   1.413   3.386  12.382  0.1735 -0.9630 -1.0558
19103TIP3    H278725   1.327   3.473  12.294 -0.9321  0.1080  1.0017
19104TIP3   OH278726   2.062   3.644  11.321 -0.1071  0.3110  0.2494
19104TIP3    H178727   2.115   3.564  11.325 -0.9293 -0.2066  3.5077
19104TIP3    H278728   2.076   3.686  11.405 -0.8948  2.8676 -0.8115
19105TIP3   OH278729   4.207   1.192   1.669  0.1042 -0.4160  0.2425
19105TIP3    H178730   4.138   1.245   1.706  3.2206  2.4777  2.5420
19105TIP3    H278731   4.254   1.156   1.745  1.0408 -2.4534 -1.1928
19106TIP3   OH278732   3.950   1.645   5.527  0.2714 -0.4165 -0.2213
19106TIP3    H178733   3.992   1.560   5.542  1.8283 -0.1343 -2.5238
19106TIP3    H278734   3.857   1.627   5.535  0.5343 -2.4911 -1.1381
19107TIP3   OH278735   4.577   1.995   2.399 -0.0583  0.3653 -0.2773
19107TIP3    H178736   4.621   1.966   2.320  1.4152  2.0994 -0.1698
19107TIP3    H278737   4.582   1.921   2.459 -1.5962 -1.1306 -1.9047
19108TIP3   OH278738   2.091   5.868  13.905 -0.2766 -0.5205  0.2760
19108TIP3    H178739   2.120   5.843  13.818 -0.8653  0.5847 -0.2550
19108TIP3    H278740   2.113   5.793  13.960 -0.3048 -1.4189 -0.8972
19109TIP3   OH278741   0.824   0.337   0.260  0.2126  0.2748  0.3121
19109TIP3    H178742   0.891   0.354   0.194  0.9127 -0.6484  0.7546
19109TIP3    H278743   0.772   0.417   0.263  2.2700  1.6636  1.0913
19110TIP3   OH278744   4.909   2.246   4.169  0.4763  0.2734 -0.5073
19110TIP3    H178745   4.996   2.283   4.158  0.6884  0.6120  1.8300
19110TIP3    H278746   4.851   2.308   4.124  1.4396 -0.4286 -2.8847
19111TIP3   OH278747   3.309   0.971   2.170 -0.1820 -0.1984  0.0264
19111TIP3    H178748   3.376   1.001   2.108 -0.7079 -1.4875 -1.2313
19111TIP3    H278749   3.227   1.008   2.136 -0.5180 -1.1729 -0.2782
19112TIP3   OH278750   4.665   5.015  16.200  0.6633  0.4259 -0.2852
19112TIP3    H178751   4.761   5.004  16.202  0.7273  0.5897 -1.6951
19112TIP3    H278752   4.648   5.078  16.270  1.7737  1.5274 -0.9469
19113TIP3   OH278753   4.576   3.351   0.937  0.1553 -0.2765 -0.0945
19113TIP3    H178754   4.618   3.404   1.004 -0.3828 -0.3393  0.2924
19113TIP3    H278755   4.511   3.299   0.983 -1.5615  1.0652 -0.9212
19114TIP3   OH278756   1.135   1.183  10.942  0.5603 -0.1351 -0.0989
19114TIP3    H178757   1.053   1.231  10.934  0.7899  0.7270  1.9986
19114TIP3    H278758   1.119   1.118  11.011  0.9301 -1.6492 -1.3713
19115TIP3   OH278759   0.579   4.570   5.414  0.0314 -0.2906  0.3589
19115TIP3    H178760   0.567   4.507   5.484  2.0042  0.8344  1.8029
19115TIP3    H278761   0.671   4.595   5.418  0.0127  0.5167 -2.0609
19116TIP3   OH278762   4.084   2.423   2.859  0.1302 -0.0961 -0.4118
19116TIP3    H178763   4.165   2.438   2.811 -0.6884  0.7942 -1.5564
19116TIP3    H278764   4.088   2.331   2.886  2.0161  0.2269  0.5427
19117TIP3   OH278765   6.169   1.180  14.311 -0.3306 -0.3098  0.0857
19117TIP3    H178766   6.260   1.202  14.288  0.2828 -1.9172  0.7603
19117TIP3    H278767   6.131   1.149  14.229 -0.3070  0.4509 -0.2216
19118TIP3   OH278768   1.914   1.678   4.266  0.1919 -0.0983  0.3435
19118TIP3    H178769   1.956   1.682   4.180  0.4649  1.5036  0.5191
19118TIP3    H278770   1.883   1.588   4.274  2.5596 -1.0280 -0.2868
19119TIP3   OH278771   5.521   0.870  16.669  0.5927 -0.5628 -0.8837
19119TIP3    H178772   5.517   0.964  16.653 -0.7839 -0.8681 -2.6512
19119TIP3    H278773   5.531   0.862  16.764  1.1355  1.3475 -0.7395
19120TIP3   OH278774   1.493   1.240   4.857 -0.2179 -0.3558  0.1377
19120TIP3    H178775   1.462   1.299   4.787 -0.7642  0.7904  1.3094
19120TIP3    H278776   1.503   1.155   4.813 -3.4801 -0.4373 -0.7399
19121TIP3   OH278777   0.083   4.940   5.518 -0.2358  0.3403  0.3012
19121TIP3    H178778   0.161   4.935   5.573 -0.3589 -2.1742  0.3981
19121TIP3    H278779   0.039   4.856   5.532 -2.0695  1.0080 -1.0509
19122TIP3   OH278780   5.077   1.879   5.663 -0.1368  0.2917 -0.0139
19122TIP3    H178781   5.041   1.855   5.748 -1.2839  1.1852 -0.2136
19122TIP3    H278782   5.136   1.952   5.681  0.7414 -0.4365  0.1681
19123TIP3   OH278783   4.820   4.590   1.630 -0.5736 -0.4090  0.1437
19123TIP3    H178784   4.769   4.662   1.593  1.7767  1.1846 -0.2295
19123TIP3    H278785   4.853   4.542   1.555  0.5235  0.1280  0.2575
19124TIP3   OH278786   6.563   4.308  12.006  0.3052 -0.4614 -0.0530
19124TIP3    H178787   6.533   4.343  11.922  0.1967 -2.9443 -1.1380
19124TIP3    H278788   6.489   4.257  12.039  0.3913  0.3865  1.5426
19125TIP3   OH278789   1.956   3.279   1.236  0.2591  0.1740  0.8300
19125TIP3    H178790   2.024   3.268   1.169  0.2476  0.9563  0.6847
19125TIP3    H278791   1.878   3.238   1.199 -0.1484  1.8819 -0.2727
19126TIP3   OH278792   1.414   6.721  16.385 -0.2062 -0.5256  0.0896
19126TIP3    H178793   1.334   6.674  16.360  0.4243 -1.1137 -0.8543
19126TIP3    H278794   1.384   6.787  16.447 -1.4919 -0.4779 -0.5527
19127TIP3   OH278795   0.830   3.114  14.794  0.0833  0.1999  0.1798
19127TIP3    H178796   0.849   3.202  14.827 -0.8672 -0.0929  1.5952
19127TIP3    H278797   0.736   3.105  14.805  0.0713 -0.7564 -0.6051
19128TIP3   OH278798   5.404   4.174  15.095 -0.3161 -0.7601 -0.6352
19128TIP3    H178799   5.456   4.247  15.061 -2.2194  0.5286 -0.9394
19128TIP3    H278800   5.429   4.168  15.187 -0.9317  1.0451 -0.3229
19129TIP3   OH278801   3.495   3.585  13.535  0.1111  0.1477 -0.2476
19129TIP3    H178802   3.583   3.549  13.519  0.5327  0.9797  0.0921
19129TIP3    H278803   3.436   3.528  13.486  0.9445  0.1452 -1.2968
19130TIP3   OH278804   1.250   6.249   1.884 -0.5961 -0.1083 -0.5707
19130TIP3    H178805   1.176   6.232   1.942  0.7786 -2.3695  0.6698
19130TIP3    H278806   1.290   6.163   1.870  2.6645  1.1328  0.0546
19131TIP3   OH278807   1.830   2.106   3.504 -0.0110 -0.1385 -0.6342
19131TIP3    H178808   1.744   2.068   3.519  0.2906 -0.0861  1.4972
19131TIP3    H278809   1.818   2.199   3.519  0.7117 -0.3240  1.4424
19132TIP3   OH278810   4.632   3.845  11.306 -0.5975  0.0833 -0.0611
19132TIP3    H178811   4.685   3.815  11.232  1.7434  0.1994  1.4639
19132TIP3    H278812   4.544   3.856  11.270  0.5254  0.5061 -2.9067
19133TIP3   OH278813   4.621   0.259  11.592 -0.0509  0.5642 -0.3978
19133TIP3    H178814   4.623   0.352  11.571 -0.3306  0.3526 -1.4757
19133TIP3    H278815   4.700   0.243  11.643  0.6783  1.1502 -1.3232
19134TIP3   OH278816   2.165   6.682   5.527  0.2547 -0.6217  0.2939
19134TIP3    H178817   2.088   6.626   5.514 -0.7797  1.1302 -1.8918
19134TIP3    H278818   2.189   6.710   5.438  1.0699  1.8814  1.2187
19135TIP3   OH278819   4.531   4.920  10.681  0.6677 -0.4351  0.5403
19135TIP3    H178820   4.590   4.882  10.615  1.4005 -0.3265  1.1166
19135TIP3    H278821   4.465   4.852  10.696 -0.7545  0.3099 -1.8041
19136TIP3   OH278822   2.828   3.688  16.910  0.3786  0.3510  0.5899
19136TIP3    H178823   2.874   3.610  16.877 -1.1478 -0.5160  0.3907
19136TIP3    H278824   2.882   3.762  16.880  1.9131 -0.6100  0.8485
19137TIP3   OH278825   1.110   5.279   3.557 -0.2706  0.0958 -0.1095
19137TIP3    H178826   1.134   5.249   3.645  1.1602  2.5866  0.4430
19137TIP3    H278827   1.162   5.358   3.544 -1.6648  0.6981 -2.5713
19138TIP3   OH278828   5.179   4.227  14.186 -0.0490 -0.2806  0.1462
19138TIP3    H178829   5.229   4.300  14.151  0.5081 -0.0188  1.4488
19138TIP3    H278830   5.101   4.266  14.225 -1.9800 -0.7797 -2.9110
19139TIP3   OH278831   1.122   5.400   1.374 -0.4827 -0.1143  0.1600
19139TIP3    H178832   1.213   5.427   1.381 -0.6880  0.3465  1.4060
19139TIP3    H278833   1.072   5.481   1.383 -1.0129 -0.1612 -1.9167
19140TIP3   OH278834   1.085   3.464   3.651 -0.1081 -0.2662  0.0855
19140TIP3    H178835   1.116   3.382   3.613 -0.0462  1.1094 -3.1308
19140TIP3    H278836   1.132   3.471   3.734  0.2354 -3.2022  0.2452
19141TIP3   OH278837   3.818   3.684  14.783 -0.0243  0.6070  0.1013
19141TIP3    H178838   3.745   3.668  14.724 -0.2716  1.0166  0.2910
19141TIP3    H278839   3.807   3.775  14.810  0.0834  0.4184  0.7833
19142TIP3   OH278840   3.794   6.138   4.678  0.2514 -0.5976 -0.2147
19142TIP3    H178841   3.706   6.173   4.692  0.7408  0.0716  1.3428
19142TIP3    H278842   3.780   6.044   4.663 -0.6573 -0.6974  1.0887
19143TIP3   OH278843   6.592   6.561  13.128  0.5297 -0.1651  0.1880
19143TIP3    H178844   6.636   6.492  13.178  2.8681  0.3431 -1.0148
19143TIP3    H278845   6.650   6.577  13.053 -1.8509  0.4601 -1.6452
19144TIP3   OH278846   2.951   2.698   0.871  0.0235 -0.0851 -0.1587
19144TIP3    H178847   2.941   2.716   0.777  0.7066  1.4413  0.0426
19144TIP3    H278848   3.014   2.625   0.874  0.2432  0.0631 -0.8778
19145TIP3   OH278849   6.465   4.680  14.974  0.0104 -0.0341 -1.1192
19145TIP3    H178850   6.503   4.597  15.002  0.9873  0.2353 -1.6138
19145TIP3    H278851   6.400   4.656  14.907  1.6022 -0.2986 -2.6299
19146TIP3   OH278852   5.080   4.736  10.759 -0.3369 -0.2530  0.2900
19146TIP3    H178853   5.134   4.667  10.722 -1.3131 -0.2562 -1.2186
19146TIP3    H278854   5.125   4.817  10.736 -0.1836 -0.3084  0.3935
19147TIP3   OH278855   4.729   3.490  13.674 -0.1415 -0.4464 -0.0068
19147TIP3    H178856   4.796   3.531  13.729  0.0985  2.4128 -2.1653
19147TIP3    H278857   4.777   3.455  13.599 -0.6087 -3.1039  0.8158
19148TIP3   OH278858   3.829   6.189   5.242 -0.3181 -0.8088 -0.0620
19148TIP3    H178859   3.896   6.150   5.185 -0.1650  0.5149 -0.8221
19148TIP3    H278860   3.796   6.264   5.192 -0.8796 -0.1973  1.1952
19149TIP3   OH278861   2.117   1.991  16.477  0.3871  0.1856  0.3099
19149TIP3    H178862   2.057   1.921  16.501  1.6179 -2.0250 -2.5475
19149TIP3    H278863   2.163   2.013  16.558 -0.7882 -1.5372  1.5027
19150TIP3   OH278864   3.878   5.790   3.359  0.0896 -0.4596  0.2815
19150TIP3    H178865   3.811   5.723   3.345  0.0643 -0.4706  0.4539
19150TIP3    H278866   3.961   5.744   3.348  0.0717 -0.4100 -0.1032
19151TIP3   OH278867   3.779   3.321   1.884  0.6310 -0.2007  0.1225
19151TIP3    H178868   3.869   3.353   1.881  0.4464  0.6493  2.0927
19151TIP3    H278869   3.737   3.360   1.808  1.5313  0.6960  0.0591
19152TIP3   OH278870   0.835   1.258   1.837  0.3161 -0.4469 -0.1224
19152TIP3    H178871   0.871   1.184   1.886 -0.0937 -0.7283 -0.2413
19152TIP3    H278872   0.756   1.223   1.796 -0.7618  0.4819  1.1006
19153TIP3   OH278873   4.278   6.013  14.565  0.1289  0.1806 -0.0470
19153TIP3    H178874   4.217   5.953  14.607 -0.2732  0.9110  0.4214
19153TIP3    H278875   4.222   6.073  14.515  0.5626 -0.2763 -1.1126
19154TIP3   OH278876   0.687   2.800   5.859 -0.8851 -0.2874  0.0066
19154TIP3    H178877   0.592   2.790   5.854 -0.8039 -0.6117 -1.3940
19154TIP3    H278878   0.720   2.710   5.864 -0.5819 -0.3091 -1.7999
19155TIP3   OH278879   5.318   4.201   3.576 -0.3047  0.1657  0.2103
19155TIP3    H178880   5.341   4.164   3.661 -0.7900  0.5299  0.5048
19155TIP3    H278881   5.276   4.128   3.530  2.1621 -0.7889 -0.6893
19156TIP3   OH278882   6.691   4.420  12.298 -0.6234 -0.1004 -0.8283
19156TIP3    H178883   6.666   4.486  12.233  0.6946  2.0985  0.7868
19156TIP3    H278884   6.655   4.453  12.381 -1.4435 -2.3550 -0.2136
19157TIP3   OH278885   0.136   0.855  12.101 -0.6828  0.3080  0.2610
19157TIP3    H178886   0.122   0.791  12.031  1.1825 -0.3865  0.4858
19157TIP3    H278887   0.176   0.930  12.057 -1.1530  0.5927  0.3104
19158TIP3   OH278888   0.499   6.122  14.691  0.0577  0.3230  0.0581
19158TIP3    H178889   0.589   6.145  14.669 -0.8430  3.9220 -0.4176
19158TIP3    H278890   0.474   6.182  14.762 -2.0584 -0.3932  0.0190
19159TIP3   OH278891   0.234   4.095  15.180 -0.4026 -0.2212  0.8404
19159TIP3    H178892   0.158   4.042  15.203  0.4191 -0.8213  2.3600
19159TIP3    H278893   0.292   4.034  15.133 -0.9422  0.2968 -0.5278
19160TIP3   OH278894   4.260   0.065   2.780  0.0495 -0.0430  0.0700
19160TIP3    H178895   4.269   0.155   2.747  0.1379  0.0873  0.4463
19160TIP3    H278896   4.348   0.028   2.769 -0.5741 -0.9365 -2.5201
19161TIP3   OH278897   6.612   3.035  14.335  0.1672  0.1579  0.2560
19161TIP3    H178898   6.553   2.960  14.332  0.0523  0.2778 -1.1248
19161TIP3    H278899   6.667   3.020  14.412 -0.3949 -0.9187  0.4559
19162TIP3   OH278900   5.893   3.385   3.411 -0.4857 -0.5130 -0.2221
19162TIP3    H178901   5.814   3.426   3.448  0.4836  0.5665  0.7265
19162TIP3    H278902   5.915   3.315   3.473  0.4188  0.4866  0.6312
19163TIP3   OH278903   4.018   5.775   0.794  0.3592  0.1852  0.1389
19163TIP3    H178904   4.113   5.768   0.786  0.1980 -2.9085 -0.3830
19163TIP3    H278905   3.998   5.863   0.762  3.1170  1.5182  1.6720
19164TIP3   OH278906   5.590   6.130  13.202  0.0151  0.3626  0.8101
19164TIP3    H178907   5.660   6.161  13.259  1.2780 -1.5236  0.3571
19164TIP3    H278908   5.630   6.061  13.150 -1.9557 -0.1416 -0.1196
19165TIP3   OH278909   2.906   3.072  16.994 -0.4014  0.3435  0.3289
19165TIP3    H178910   2.923   2.991  16.945  2.7338  1.6331 -1.0186
19165TIP3    H278911   2.828   3.109  16.953  0.1280 -0.3400 -1.4037
19166TIP3   OH278912   2.159   0.897   3.442  0.2398 -0.0256 -0.2680
19166TIP3    H178913   2.207   0.856   3.514  0.7837  2.5399  0.9193
19166TIP3    H278914   2.220   0.897   3.368  2.2732  3.1773  1.2092
19167TIP3   OH278915   4.249   1.502  15.916 -0.0649 -0.4735 -0.0931
19167TIP3    H178916   4.305   1.579  15.903 -0.0081 -0.0944  2.0842
19167TIP3    H278917   4.174   1.516  15.858 -0.4373  1.6441  0.8288
19168TIP3   OH278918   6.292   3.031   5.985  0.4660 -0.7281 -0.4278
19168TIP3    H178919   6.278   2.980   5.905  1.5225  0.3343 -1.3459
19168TIP3    H278920   6.303   2.966   6.054 -1.7890 -1.6640 -0.8645
19169TIP3   OH278921   2.096   5.767   5.772  0.1838  0.4541 -0.1273
19169TIP3    H178922   2.130   5.781   5.860 -1.2057  0.4866  0.4237
19169TIP3    H278923   2.133   5.682   5.745  1.1939  0.7822  0.1824
19170TIP3   OH278924   2.507   2.135   3.233 -0.2461  0.7862 -0.0749
19170TIP3    H178925   2.476   2.216   3.194 -4.0865 -0.5499 -0.1597
19170TIP3    H278926   2.509   2.152   3.327 -0.3054  1.1869 -0.1454
19171TIP3   OH278927   3.883   5.059  15.659 -0.0652  0.2583 -0.0665
19171TIP3    H178928   3.974   5.079  15.637  0.4441  0.1666  1.7619
19171TIP3    H278929   3.837   5.143  15.650  0.2391  0.3459 -0.8045
19172TIP3   OH278930   5.424   2.799  11.240 -0.1909 -0.1477 -0.0125
19172TIP3    H178931   5.388   2.858  11.173  0.1958  0.3259  0.1902
19172TIP3    H278932   5.503   2.763  11.200 -0.8751 -1.1942 -0.4599
19173TIP3   OH278933   3.972   0.327   5.089  0.3737  0.3497  0.1693
19173TIP3    H178934   3.881   0.357   5.087  0.3272  0.4184  1.6785
19173TIP3    H278935   4.023   0.408   5.086  0.4403  0.2800 -1.5095
19174TIP3   OH278936   3.553   4.896  15.296 -0.4039 -0.1488 -0.3935
19174TIP3    H178937   3.636   4.926  15.331 -0.4931 -1.4175  1.0047
19174TIP3    H278938   3.572   4.873  15.206  0.4191  0.8687 -0.5040
19175TIP3   OH278939   3.126   0.521   1.553  0.5334 -0.6271  0.4685
19175TIP3    H178940   3.200   0.578   1.534 -0.9339  1.2576  0.1132
19175TIP3    H278941   3.122   0.461   1.479 -0.3373  1.5246 -1.3558
19176TIP3   OH278942   4.078   4.819  15.887 -0.2182  0.3661 -0.6232
19176TIP3    H178943   4.142   4.831  15.816 -0.5329 -0.9646 -1.1459
19176TIP3    H278944   3.993   4.832  15.845 -0.3493  1.0447 -0.1593
19177TIP3   OH278945   0.248   2.839  15.692 -0.3846  0.2628  0.8275
19177TIP3    H178946   0.208   2.872  15.612  1.4097  2.0783  0.5966
19177TIP3    H278947   0.193   2.873  15.762  0.4873  2.5704  0.5050
19178TIP3   OH278948   0.555   4.123   4.880 -0.4218  0.0109 -0.0380
19178TIP3    H178949   0.619   4.179   4.835  0.2804 -2.1128 -1.8448
19178TIP3    H278950   0.471   4.164   4.860  0.0522  0.3545 -1.5030
19179TIP3   OH278951   0.482   3.145   2.084  0.0573  0.3712  0.2403
19179TIP3    H178952   0.424   3.082   2.126 -1.5399  1.7267  0.1828
19179TIP3    H278953   0.438   3.167   2.002  0.3095  1.9003  0.4809
19180TIP3   OH278954   2.073   0.335  14.271 -0.3124  0.3038  0.2409
19180TIP3    H178955   2.048   0.334  14.364  2.2357 -2.2143  1.0250
19180TIP3    H278956   2.085   0.243  14.248 -2.4964  0.6891 -3.1795
19181TIP3   OH278957   0.064   2.854   2.342  0.2353 -0.3958 -0.2702
19181TIP3    H178958   0.102   2.851   2.430  0.6738 -0.5837 -0.4609
19181TIP3    H278959   0.013   2.774   2.335 -0.6665  0.1241  0.1886
19182TIP3   OH278960   0.396   5.920   2.229  0.3251 -0.2310  0.4888
19182TIP3    H178961   0.410   5.921   2.324  0.1710  3.6790  0.6438
19182TIP3    H278962   0.300   5.922   2.219  0.2865 -2.0266  0.1288
19183TIP3   OH278963   0.572   4.576  14.658 -0.7367 -0.1343  0.1186
19183TIP3    H178964   0.591   4.486  14.683 -0.5571 -0.2452 -0.4135
19183TIP3    H278965   0.502   4.603  14.717  1.1509  0.3452  2.2933
19184TIP3   OH278966   1.118   5.399   2.090  0.2050 -0.3160  0.0337
19184TIP3    H178967   1.052   5.418   2.156  1.8695  1.1989  1.3697
19184TIP3    H278968   1.085   5.443   2.011 -0.0771  0.9880  0.8494
19185TIP3   OH278969   5.229   0.832   5.377  0.6464 -0.0352 -0.1901
19185TIP3    H178970   5.229   0.885   5.297 -0.4086 -0.4291 -0.4564
19185TIP3    H278971   5.301   0.770   5.364  1.0717  0.5014 -0.4300
19186TIP3   OH278972   6.124   6.498   3.649 -0.1321 -0.1371  0.2744
19186TIP3    H178973   6.063   6.525   3.580 -0.2473 -0.3704  0.2836
19186TIP3    H278974   6.187   6.570   3.656 -1.3874  0.8957  1.4471
19187TIP3   OH278975   5.360   6.146   4.598  0.2234  0.0138  0.0570
19187TIP3    H178976   5.334   6.072   4.652  0.9113 -0.7069 -0.5752
19187TIP3    H278977   5.279   6.177   4.558 -0.2615  0.4235  1.3220
19188TIP3   OH278978   2.392   4.321  13.652 -0.0871  0.0069  0.0061
19188TIP3    H178979   2.315   4.370  13.622  0.9387  2.9576  1.7029
19188TIP3    H278980   2.382   4.317  13.747  1.0489 -1.0229  0.1016
19189TIP3   OH278981   2.448   2.076  11.879  0.7339  0.0626  0.1317
19189TIP3    H178982   2.407   2.158  11.850 -0.1968 -1.1444 -2.2296
19189TIP3    H278983   2.378   2.026  11.920  0.6063 -0.6517 -0.9235
19190TIP3   OH278984   5.507   6.462   1.922 -0.1467  0.1667  0.0226
19190TIP3    H178985   5.489   6.439   2.013 -0.5720 -2.5059 -0.6630
19190TIP3    H278986   5.435   6.423   1.873  1.5775 -1.0086 -1.7160
19191TIP3   OH278987   1.226   5.903  13.126 -0.3538 -0.0104  0.5472
19191TIP3    H178988   1.313   5.867  13.109 -0.6997 -0.7713  0.3063
19191TIP3    H278989   1.173   5.873  13.051 -1.2678 -1.1771  1.6160
19192TIP3   OH278990   4.420   4.264   4.986 -0.0560 -0.3823  0.0243
19192TIP3    H178991   4.343   4.257   5.042  0.7405  1.0988  1.3808
19192TIP3    H278992   4.396   4.330   4.920 -0.8451 -1.8304 -1.2061
19193TIP3   OH278993   5.623   2.317   5.611 -0.6209  0.1634 -0.3889
19193TIP3    H178994   5.595   2.313   5.519  1.3367  1.4627 -1.0980
19193TIP3    H278995   5.542   2.331   5.660 -1.5845  0.5606 -2.0186
19194TIP3   OH278996   3.958   0.846  14.957  0.5268 -0.3459  0.3222
19194TIP3    H178997   4.041   0.892  14.956  0.2615  0.1903 -1.4219
19194TIP3    H278998   3.893   0.913  14.936 -0.1637 -1.0392  0.1760
19195TIP3   OH278999   6.551   4.238  14.567  0.3934 -0.1740  0.0711
19195TIP3    H179000   6.557   4.178  14.641  0.8426 -1.8178 -1.2308
19195TIP3    H279001   6.595   4.318  14.597 -0.5025 -0.3393  1.9539
19196TIP3   OH279002   3.438   0.260  15.438 -0.3155 -0.0323 -0.1733
19196TIP3    H179003   3.522   0.239  15.398  1.1813  3.6441  0.6791
19196TIP3    H279004   3.453   0.250  15.532 -1.3176 -0.7204 -0.0665
19197TIP3   OH279005   0.992   6.073  11.458 -0.2535 -0.5397  0.4562
19197TIP3    H179006   1.076   6.099  11.496 -0.3873  0.5626  0.0158
19197TIP3    H279007   0.946   6.030  11.531 -0.0424  0.5082  1.2363
19198TIP3   OH279008   1.553   3.597  11.538  0.4313 -0.0251  0.7379
19198TIP3    H179009   1.626   3.578  11.479 -0.1188 -0.8691  0.2886
19198TIP3    H279010   1.503   3.665  11.493 -0.1023 -0.8148  0.0873
19199TIP3   OH279011   5.080   2.636  13.086 -0.4327  0.3383 -0.3370
19199TIP3    H179012   5.074   2.699  13.158 -1.6086 -0.7673  0.5903
19199TIP3    H279013   4.989   2.607  13.073  0.0871 -1.2491 -0.6228
19200TIP3   OH279014   4.665   3.860  11.888  0.0733 -0.4994 -0.6856
19200TIP3    H179015   4.606   3.784  11.892  2.0475 -2.0741  2.0173
19200TIP3    H279016   4.606   3.935  11.884 -2.1188 -2.0356  0.3382
19201TIP3   OH279017   1.778   4.235   3.377  0.0430 -0.5082 -0.2415
19201TIP3    H179018   1.858   4.223   3.327 -0.8658 -0.7714 -1.6938
19201TIP3    H279019   1.755   4.327   3.366  0.5143 -0.2568  0.7756
19202TIP3   OH279020   4.872   2.505  15.364  0.2540 -0.3594 -0.2836
19202TIP3    H179021   4.890   2.411  15.371 -1.5754 -0.8520 -1.4302
19202TIP3    H279022   4.940   2.539  15.306 -0.0135 -1.3228 -1.1853
19203TIP3   OH279023   3.628   3.370   5.891 -0.4256  0.1564 -0.5724
19203TIP3    H179024   3.710   3.405   5.928 -0.8540  0.0379  0.5317
19203TIP3    H279025   3.562   3.391   5.957 -1.2881  0.2492 -1.4586
19204TIP3   OH279026   0.209   4.429   0.852  0.0071 -0.4674 -0.0921
19204TIP3    H179027   0.115   4.429   0.838 -0.0694 -2.3245  0.0792
19204TIP3    H279028   0.246   4.390   0.772  0.5932 -0.0743 -0.0211
19205TIP3   OH279029   2.933   5.300   6.571  0.2254 -0.4229 -0.0001
19205TIP3    H179030   2.980   5.375   6.609  0.0281  0.0195 -0.6118
19205TIP3    H279031   2.884   5.263   6.644  1.5267 -0.9116  0.6665
19206TIP3   OH279032   0.201   3.215  16.850  0.6604  0.2009 -0.4507
19206TIP3    H179033   0.146   3.221  16.772 -1.0544 -1.7159  0.5101
19206TIP3    H279034   0.248   3.133  16.840  1.0663  0.3501  0.1545
19207TIP3   OH279035   5.615   0.124   1.594  0.2675 -0.6983 -0.5935
19207TIP3    H179036   5.621   0.029   1.592 -0.2744 -0.7215 -1.7529
19207TIP3    H279037   5.532   0.144   1.550  0.4929  0.3113 -0.5794
19208TIP3   OH279038   3.049   5.405   6.299  0.5230 -0.2614  0.1814
19208TIP3    H179039   3.068   5.335   6.361 -0.1745 -0.7085 -0.0982
19208TIP3    H279040   2.987   5.462   6.346  1.1151  0.1895  0.4208
19209TIP3   OH279041   0.163   4.496  13.844  0.0661  0.6321  0.0602
19209TIP3    H179042   0.068   4.489  13.853 -0.4804  3.1040 -2.3200
19209TIP3    H279043   0.187   4.422  13.788 -0.0738 -1.1105  2.1917
19210TIP3   OH279044   4.260   4.454   4.775  0.2886  0.5286  0.1393
19210TIP3    H179045   4.256   4.447   4.679 -1.4773  2.7266 -0.0502
19210TIP3    H279046   4.302   4.539   4.790  3.2149 -1.0309  1.4673
19211TIP3   OH279047   2.836   0.446   0.163 -0.5060  0.7129  0.1912
19211TIP3    H179048   2.820   0.493   0.082  1.2624 -0.1186 -0.7079
19211TIP3    H279049   2.920   0.481   0.194  0.1322 -0.7960  0.2533
19212TIP3   OH279050   0.957   4.775  16.564 -0.0101  0.2336 -0.4265
19212TIP3    H179051   0.984   4.751  16.476 -0.2845 -0.8503 -0.2245
19212TIP3    H279052   0.947   4.870  16.561 -1.0150  0.1157 -1.8536
19213TIP3   OH279053   3.601   6.708   2.516  0.0600  0.1975 -0.3677
19213TIP3    H179054   3.558   6.726   2.433  0.5232 -1.2026 -0.9429
19213TIP3    H279055   3.614   6.794   2.556  0.5594  0.9799 -2.1096
19214TIP3   OH279056   1.198   4.245  15.210 -0.3507  0.0200  0.1380
19214TIP3    H179057   1.114   4.211  15.242  0.1576  0.4418  2.0165
19214TIP3    H279058   1.202   4.217  15.119 -2.4896 -0.0992  0.0297
19215TIP3   OH279059   3.138   1.875  10.888 -0.5553  0.1500  0.0253
19215TIP3    H179060   3.144   1.860  10.983 -0.1720  0.2118  0.0113
19215TIP3    H279061   3.228   1.887  10.860 -0.7249  0.9149 -0.2177
19216TIP3   OH279062   4.846   6.337   2.010 -0.5042  0.0587  0.2597
19216TIP3    H179063   4.750   6.340   2.017 -0.4755  0.1107  0.6304
19216TIP3    H279064   4.876   6.312   2.097 -0.2130 -0.6725 -0.0492
19217TIP3   OH279065   2.627   3.938  14.212  0.4548  0.2404  0.0996
19217TIP3    H179066   2.646   3.996  14.138  2.3308 -0.0472  0.3169
19217TIP3    H279067   2.708   3.935  14.262 -0.0848 -1.3366  0.9617
19218TIP3   OH279068   4.369   6.106   3.754 -0.0961 -0.0836  0.5793
19218TIP3    H179069   4.459   6.117   3.785  0.6155 -0.5707 -1.2027
19218TIP3    H279070   4.369   6.142   3.666 -1.2320 -1.5335 -0.0670
19219TIP3   OH279071   4.353   0.638  14.549 -0.6507 -0.4467  0.1640
19219TIP3    H179072   4.403   0.559  14.571  2.4690  0.8209 -1.6860
19219TIP3    H279073   4.267   0.605  14.521  0.2999 -3.1353  0.1587
19220TIP3   OH279074   4.050   4.089   0.614 -0.4431 -0.2884 -0.2902
19220TIP3    H179075   4.014   4.135   0.690  0.1629 -0.9249  0.3964
19220TIP3    H279076   4.123   4.144   0.586  0.8432 -1.2067  1.0702
19221TIP3   OH279077   2.368   6.107   0.583  0.6886  0.3284  0.7252
19221TIP3    H179078   2.317   6.060   0.650 -1.7082  1.5516 -0.1073
19221TIP3    H279079   2.379   6.042   0.513 -0.4111  0.2152  0.6271
19222TIP3   OH279080   5.084   6.083   5.483  0.4343  0.4520 -0.2324
19222TIP3    H179081   5.095   6.165   5.530 -0.8725  0.7022 -0.3383
19222TIP3    H279082   5.080   6.108   5.391 -1.1668  0.4157 -0.1889
19223TIP3   OH279083   0.597   3.583  11.822  0.6957  0.0876 -0.2840
19223TIP3    H179084   0.590   3.666  11.774  0.1126  0.1728 -0.0551
19223TIP3    H279085   0.605   3.609  11.914  2.6307 -0.0429 -0.3610
19224TIP3   OH279086   5.535   1.180  15.619  0.4328 -0.1460 -0.2213
19224TIP3    H179087   5.542   1.166  15.714 -1.7254 -1.9817 -0.2382
19224TIP3    H279088   5.473   1.253  15.610  1.2828  0.5897 -0.2447
19225TIP3   OH279089   4.885   5.606  15.304  0.6253  0.1586  0.4624
19225TIP3    H179090   4.861   5.678  15.362 -0.5066  0.1501  0.0121
19225TIP3    H279091   4.980   5.596  15.318  0.4253  0.2473  2.1867
19226TIP3   OH279092   6.154   1.093   0.101  0.4789  0.8746 -0.2073
19226TIP3    H179093   6.194   1.147   0.169 -0.4194  3.3615 -1.5425
19226TIP3    H279094   6.157   1.147   0.022  0.7978 -1.6103 -2.0049
19227TIP3   OH279095   5.801   2.633  15.038  0.1481 -0.5978 -0.1872
19227TIP3    H179096   5.737   2.650  14.969 -0.5000  0.3435  0.6212
19227TIP3    H279097   5.840   2.548  15.015  1.1655  0.4320 -2.6229
19228TIP3   OH279098   3.830   0.748   1.295  0.5991 -0.3303  0.3596
19228TIP3    H179099   3.905   0.758   1.354 -0.4101  1.4346  1.4342
19228TIP3    H279100   3.800   0.838   1.279 -1.8692 -0.9984  0.7525
19229TIP3   OH279101   6.083   2.836  12.284  0.0145  0.2574  0.7590
19229TIP3    H179102   6.053   2.883  12.207  0.0777  0.9355  1.1369
19229TIP3    H279103   6.043   2.750  12.277  0.0625  0.2938 -0.0520
19230TIP3   OH279104   0.681   6.191  16.145  0.0288  0.4815  0.8209
19230TIP3    H179105   0.765   6.206  16.102 -0.8940 -0.3866 -1.4086
19230TIP3    H279106   0.684   6.099  16.171  0.0288  0.6420  1.4147
19231TIP3   OH279107   0.615   2.165  15.956  0.3600 -0.3016  0.0300
19231TIP3    H179108   0.692   2.219  15.967  0.0729  0.1901 -0.3694
19231TIP3    H279109   0.584   2.182  15.867 -0.7380  0.2139  0.4857
19232TIP3   OH279110   2.103   2.557  13.736  0.1811  0.3100  0.3640
19232TIP3    H179111   2.023   2.608  13.741  0.5275  0.9640 -0.4616
19232TIP3    H279112   2.115   2.521  13.823 -0.0606  1.6584  0.9730
19233TIP3   OH279113   4.735   5.204  14.158  0.0968 -0.2471  0.1282
19233TIP3    H179114   4.650   5.165  14.180 -0.4794  0.8735 -0.0244
19233TIP3    H279115   4.736   5.286  14.206  0.0402  0.9127 -1.7519
19234TIP3   OH279116   3.918   0.438  13.528  0.3542 -0.2969  0.6982
19234TIP3    H179117   3.848   0.462  13.588  0.8374  0.4923  0.9674
19234TIP3    H279118   3.885   0.363  13.480 -2.3142  2.3502 -2.0150
19235TIP3   OH279119   4.904   0.951  15.882 -0.0774 -0.6300 -0.1886
19235TIP3    H179120   4.995   0.982  15.885  0.1107 -1.2365  1.9522
19235TIP3    H279121   4.911   0.860  15.854 -0.1516 -0.3330 -1.2027
19236TIP3   OH279122   6.180   3.986   3.103  0.2707  0.8688 -0.2976
19236TIP3    H179123   6.263   3.955   3.068  0.4079  2.6185 -1.6892
19236TIP3    H279124   6.195   3.996   3.197  1.1340 -0.2504 -0.2922
19237TIP3   OH279125   1.244   0.054  16.602  0.8582 -0.1036  0.1127
19237TIP3    H179126   1.159   0.057  16.646  0.7039 -1.3898 -0.0790
19237TIP3    H279127   1.304   0.021  16.668  0.9985 -0.2137 -0.0695
19238TIP3   OH279128   6.143   1.905   0.574 -0.1270  0.2614  0.2791
19238TIP3    H179129   6.169   1.855   0.496 -0.9150 -0.4445  0.4576
19238TIP3    H279130   6.099   1.982   0.539  0.3824  0.4372  0.0138
19239TIP3   OH279131   0.016   4.750   1.466  0.2380 -0.4646 -0.0408
19239TIP3    H179132  -0.029   4.765   1.383 -1.4181  0.3164  0.9314
19239TIP3    H279133   0.092   4.808   1.463 -0.7133  0.8169 -0.3582
19240TIP3   OH279134   1.571   6.687   3.328 -0.4640  0.0030  0.0671
19240TIP3    H179135   1.597   6.779   3.334  1.3048 -0.3486 -1.3667
19240TIP3    H279136   1.602   6.648   3.409  0.4795  0.3216 -0.1209
19241TIP3   OH279137   2.677   0.539  17.147 -0.8356  0.4697 -0.0769
19241TIP3    H179138   2.651   0.459  17.101  0.1545 -0.2064  0.4969
19241TIP3    H279139   2.744   0.578  17.092  2.7788 -2.0256  2.0962
19242TIP3   OH279140   1.952   4.766   4.159 -0.0657  0.0878  0.1535
19242TIP3    H179141   1.992   4.695   4.209  1.9621  0.4243 -0.9137
19242TIP3    H279142   2.014   4.838   4.164 -1.8054  1.6376  0.7092
19243TIP3   OH279143   5.005   6.183   2.495  0.0683 -0.1404  0.4858
19243TIP3    H179144   5.062   6.131   2.551  0.8745  0.3235  0.1140
19243TIP3    H279145   4.967   6.249   2.553  0.0643 -0.3245  0.6929
19244TIP3   OH279146   3.573   3.664   3.255 -0.0507 -0.2742 -0.3914
19244TIP3    H179147   3.582   3.630   3.167 -1.7234  1.5286 -1.3563
19244TIP3    H279148   3.492   3.624   3.288 -0.7433  0.8567 -0.6437
19245TIP3   OH279149   1.563   5.188  15.032 -0.3909  0.2045  0.0410
19245TIP3    H179150   1.626   5.145  15.089  1.1905  1.8616 -0.3702
19245TIP3    H279151   1.593   5.279  15.027 -1.7930  0.6369 -1.6123
19246TIP3   OH279152   0.051   3.550   2.714 -0.2100  0.6404  0.4777
19246TIP3    H179153   0.086   3.618   2.773 -3.7094  3.1704 -0.0341
19246TIP3    H279154  -0.036   3.582   2.691 -1.0574 -2.8973 -1.8962
19247TIP3   OH279155   0.220   1.187  12.950 -0.0282  0.7803  0.1430
19247TIP3    H179156   0.163   1.137  12.892 -0.8778  1.3187  0.4973
19247TIP3    H279157   0.266   1.248  12.892 -1.9023  2.2920  0.1423
19248TIP3   OH279158   4.228   5.104   5.685  0.1418 -0.2435  0.2120
19248TIP3    H179159   4.218   5.191   5.647 -0.2692 -0.5603 -0.4184
19248TIP3    H279160   4.322   5.087   5.680  0.2771  0.3162  0.6977
19249TIP3   OH279161   5.189   0.718  16.419  0.0037 -0.0659  0.2278
19249TIP3    H179162   5.153   0.804  16.439 -0.0424 -0.6697  3.1617
19249TIP3    H279163   5.195   0.673  16.504  3.5405 -1.5998 -0.6096
19250TIP3   OH279164   1.043   4.351   5.343  0.4925 -0.9358  0.0966
19250TIP3    H179165   1.007   4.412   5.407  1.6185 -0.3186  0.1715
19250TIP3    H279166   0.977   4.282   5.336 -1.4255  0.9364 -1.0279
19251TIP3   OH279167   5.998   5.580   3.491 -0.1016  0.3633  0.3880
19251TIP3    H179168   5.966   5.493   3.516  0.1149  0.4440  0.9643
19251TIP3    H279169   6.076   5.594   3.545 -0.3892  1.0941  0.6335
19252TIP3   OH279170   0.413   2.866   2.824  0.3489 -0.0313  0.0157
19252TIP3    H179171   0.423   2.908   2.909  0.5559 -2.7987  1.4906
19252TIP3    H279172   0.484   2.901   2.771  0.8752  0.9657  1.3232
19253TIP3   OH279173   5.759   0.341  17.186 -0.1711  0.1672 -0.2447
19253TIP3    H179174   5.671   0.348  17.221 -0.2585 -0.0745 -0.4127
19253TIP3    H279175   5.799   0.268  17.233 -0.9046 -1.3898 -1.8944
19254TIP3   OH279176   1.324   4.173   0.563 -0.1728 -0.2878 -0.0729
19254TIP3    H179177   1.279   4.255   0.542 -1.2238 -0.7986  0.0806
19254TIP3    H279178   1.342   4.133   0.478  1.2196  0.5409 -0.1831
19255TIP3   OH279179   0.834   4.259   4.997  0.0446 -0.0818  0.0353
19255TIP3    H179180   0.896   4.194   5.031  0.6458 -0.0700 -1.0058
19255TIP3    H279181   0.748   4.218   5.005  0.0308  0.2599  2.3856
19256TIP3   OH279182   5.877   6.193   3.994  0.8929  0.0518 -0.1064
19256TIP3    H179183   5.883   6.276   4.042  0.2911 -0.1972  0.4025
19256TIP3    H279184   5.862   6.127   4.062  0.3099 -0.3386 -0.6149
19257TIP3   OH279185   2.992   3.445  16.958 -0.0906  0.7211 -0.5383
19257TIP3    H179186   2.950   3.443  17.043 -1.3722  0.2471 -1.1605
19257TIP3    H279187   3.075   3.400  16.971 -1.1676 -1.2055  0.0110
19258TIP3   OH279188   6.750   2.636   0.886 -0.4200 -0.2001  0.3827
19258TIP3    H179189   6.764   2.591   0.970  2.3867 -1.2883 -0.5584
19258TIP3    H279190   6.793   2.721   0.897 -0.0888 -0.3261  0.0777
19259TIP3   OH279191   2.910   5.390  14.526  0.1625  0.4112  0.3326
19259TIP3    H179192   2.889   5.335  14.451 -1.9256 -0.1571  1.2469
19259TIP3    H279193   2.984   5.443  14.498  0.0929 -0.5145 -1.7460
19260TIP3   OH279194   2.902   2.898   4.141 -0.4473  0.1497 -0.4136
19260TIP3    H179195   2.809   2.882   4.123 -0.5301  1.4633 -1.3281
19260TIP3    H279196   2.912   2.881   4.235 -1.3397 -1.1397 -0.5267
19261TIP3   OH279197   4.994   0.109   1.403 -0.2733 -0.3161  0.0676
19261TIP3    H179198   4.981   0.017   1.428  3.7523 -0.8167  1.0344
19261TIP3    H279199   5.037   0.105   1.318 -0.8184  0.7106 -0.2648
19262TIP3   OH279200   4.665   0.493  16.729  0.2580 -0.4575  0.2016
19262TIP3    H179201   4.600   0.423  16.723  1.5685 -2.0003  2.4821
19262TIP3    H279202   4.645   0.538  16.811  1.7532 -0.6623  0.7023
19263TIP3   OH279203   2.600   1.505  17.137 -0.0935 -0.2510  0.5914
19263TIP3    H179204   2.558   1.420  17.125 -0.5793 -0.2054  1.9169
19263TIP3    H279205   2.576   1.532  17.225  0.8537  0.8261  0.5374
19264TIP3   OH279206   2.097   1.149   1.403  0.1929  0.2831  0.3721
19264TIP3    H179207   2.149   1.071   1.391  0.5072  0.5963 -0.3587
19264TIP3    H279208   2.006   1.118   1.404  0.3371 -0.1307  0.4628
19265TIP3   OH279209   5.659   3.084   3.196 -0.4005 -0.1423 -0.8586
19265TIP3    H179210   5.634   3.046   3.280  1.6531 -0.3369 -0.2836
19265TIP3    H279211   5.637   3.016   3.131  2.1112 -1.9246  0.0206
19266TIP3   OH279212   5.155   1.178  15.423  0.4474  0.0377 -0.0125
19266TIP3    H179213   5.138   1.090  15.391  1.5403 -0.1439 -0.1467
19266TIP3    H279214   5.141   1.173  15.518  0.5128 -0.2805 -0.0203
19267TIP3   OH279215   0.790   5.823   4.318 -0.4461  0.0109 -0.8108
19267TIP3    H179216   0.719   5.785   4.369 -0.4064  0.5794 -0.3144
19267TIP3    H279217   0.776   5.917   4.324  0.4419  0.1401 -0.5637
19268TIP3   OH279218   3.748   4.620  17.140 -0.1686  0.0724 -0.5360
19268TIP3    H179219   3.657   4.637  17.114 -0.2557  0.0600 -0.2385
19268TIP3    H279220   3.753   4.525  17.151 -0.0592  0.0489 -0.7698
19269TIP3   OH279221   3.645   3.751  15.521 -0.0635  0.3255  0.3980
19269TIP3    H179222   3.713   3.685  15.534 -1.0749 -1.0885 -1.2155
19269TIP3    H279223   3.688   3.834  15.545  1.5928 -0.7445  1.3249
19270TIP3   OH279224   2.420   4.851  14.852  0.0773  0.1731  0.0873
19270TIP3    H179225   2.357   4.855  14.780 -0.3029  0.7382  0.4390
19270TIP3    H279226   2.492   4.799  14.818  0.2440  1.0634 -0.9791
19271TIP3   OH279227   2.856   3.976   4.884 -0.4686 -0.6897 -0.2562
19271TIP3    H179228   2.864   4.006   4.793  0.9294  1.3881  0.5015
19271TIP3    H279229   2.946   3.963   4.913 -0.9154 -1.8229  0.7192
19272TIP3   OH279230   2.857   3.281  11.834  0.4933 -0.1308  0.1618
19272TIP3    H179231   2.950   3.258  11.832  0.3526 -0.7205 -0.1526
19272TIP3    H279232   2.815   3.203  11.870 -0.1541 -0.9769 -2.2168
19273TIP3   OH279233   3.987   3.132   5.506  0.9251  0.0355  0.0546
19273TIP3    H179234   4.048   3.064   5.535  0.1534  0.4644  3.0922
19273TIP3    H279235   4.034   3.214   5.520  0.9252  0.2582 -1.1402
19274TIP3   OH279236   2.490   4.224  13.094 -0.7098  0.6628 -0.2131
19274TIP3    H179237   2.556   4.187  13.153  0.6794 -2.0534 -3.1849
19274TIP3    H279238   2.412   4.169  13.108 -0.8473  0.9340  0.0871
19275TIP3   OH279239   2.619   0.639   1.975  0.1309 -0.3677  0.2859
19275TIP3    H179240   2.657   0.641   2.063  1.1752 -1.4991 -0.1071
19275TIP3    H279241   2.631   0.549   1.947 -0.3046 -0.0415 -0.9800
19276TIP3   OH279242   1.618   4.300  15.098 -0.1946 -0.5505 -0.0180
19276TIP3    H179243   1.602   4.321  15.189 -0.0626 -2.6385  0.5436
19276TIP3    H279244   1.708   4.329  15.081  0.2310 -1.2801  0.9039
19277TIP3   OH279245   3.962   1.365  12.406  0.2531  0.1122  0.1863
19277TIP3    H179246   3.979   1.271  12.410  1.9646  0.3038 -1.3285
19277TIP3    H279247   3.981   1.397  12.494 -0.1380 -0.9051  0.6625
19278TIP3   OH279248   6.378   3.443   3.186 -0.8625 -0.2796 -0.4793
19278TIP3    H179249   6.444   3.508   3.205  0.5452 -1.8763  0.3815
19278TIP3    H279250   6.413   3.394   3.112 -0.4914 -1.8125  0.6417
19279TIP3   OH279251   0.365   4.493   2.943 -0.3611  0.3904  0.2954
19279TIP3    H179252   0.382   4.504   2.850 -1.4960 -1.3425 -0.1814
19279TIP3    H279253   0.393   4.403   2.962 -0.7337  0.5002  1.4704
19280TIP3   OH279254   1.355   2.201  10.576 -0.1831 -0.9324  0.1046
19280TIP3    H179255   1.403   2.147  10.513 -0.8662 -0.5028 -0.8021
19280TIP3    H279256   1.384   2.291  10.557 -0.1441 -0.8353  0.6238
19281TIP3   OH279257   5.259   0.950  14.035 -0.0129 -0.0357  0.4176
19281TIP3    H179258   5.197   0.999  14.089 -0.5767 -1.4037  1.0811
19281TIP3    H279259   5.206   0.915  13.964  0.4601  0.6083 -0.2714
19282TIP3   OH279260   3.699   6.473  15.320  0.3571 -0.0788 -0.7315
19282TIP3    H179261   3.613   6.435  15.299  0.3036  1.1949 -3.2796
19282TIP3    H279262   3.753   6.398  15.343 -1.1975 -1.0125  0.0894
19283TIP3   OH279263   4.830   5.112   3.491  0.0028 -0.3462 -0.2427
19283TIP3    H179264   4.812   5.076   3.579 -1.2477  2.2706  0.6769
19283TIP3    H279265   4.925   5.109   3.483  0.0333 -3.1592 -0.0132
19284TIP3   OH279266   3.840   6.668  16.766  0.1366  0.2415 -0.3064
19284TIP3    H179267   3.776   6.597  16.768  0.2602  0.1341  0.8376
19284TIP3    H279268   3.840   6.699  16.676  1.2144 -2.2631 -1.2609
19285TIP3   OH279269   4.291   4.309   1.516  0.4660 -0.1209  0.1642
19285TIP3    H179270   4.372   4.356   1.497  0.3151 -0.0910 -0.4160
19285TIP3    H279271   4.294   4.294   1.611  0.9198  0.3016  0.2222
19286TIP3   OH279272   2.853   1.967  12.367 -0.1378 -0.9216 -0.0004
19286TIP3    H179273   2.850   1.923  12.282  1.0510 -0.1322 -0.4894
19286TIP3    H279274   2.830   2.058  12.347  2.9022 -0.0319 -0.0700
19287TIP3   OH279275   6.267   0.279  11.331 -0.0376  0.0151 -0.5528
19287TIP3    H179276   6.203   0.243  11.393  2.3838 -2.3674  0.7876
19287TIP3    H279277   6.321   0.203  11.307  3.4991  2.1867 -0.0450
19288TIP3   OH279278   3.073   3.730  11.880  0.0947 -0.3653  0.1117
19288TIP3    H179279   3.006   3.790  11.848  0.3130  0.3281  0.9042
19288TIP3    H279280   3.146   3.787  11.905  0.7644 -1.0616 -0.2148
19289TIP3   OH279281   0.188   4.593   4.268  0.1304  1.0168  0.0399
19289TIP3    H179282   0.208   4.560   4.180  0.0091 -1.9230  1.0040
19289TIP3    H279283   0.098   4.567   4.284  0.4277  0.7288  1.3560
19290TIP3   OH279284   4.435   6.048  11.412  0.2854 -0.0977 -0.7115
19290TIP3    H179285   4.382   5.991  11.468  0.8935 -0.3636 -0.3937
19290TIP3    H279286   4.397   6.039  11.325 -0.0090 -0.5125 -0.5406
19291TIP3   OH279287   6.616   5.966  15.373  0.2547  0.4098  0.0939
19291TIP3    H179288   6.642   5.890  15.424 -0.9198  0.0511  0.1697
19291TIP3    H279289   6.537   5.939  15.326 -0.2347  1.5998  0.1939
19292TIP3   OH279290   6.322   4.392   5.285  0.3778  0.4285  0.2399
19292TIP3    H179291   6.252   4.396   5.350  0.2559 -0.5842  0.1981
19292TIP3    H279292   6.306   4.310   5.238 -1.5961  2.6461 -3.4197
19293TIP3   OH279293   0.779   6.243   4.164  0.3627 -0.4151  0.1717
19293TIP3    H179294   0.777   6.253   4.068 -0.1151  0.9923  0.2953
19293TIP3    H279295   0.868   6.267   4.189 -0.0639  1.1900  0.2329
19294TIP3   OH279296   2.001   4.454   4.049  0.6682  0.0639 -0.0083
19294TIP3    H179297   2.027   4.364   4.064  0.9458 -0.1073 -1.3490
19294TIP3    H279298   1.906   4.449   4.034  0.4830  0.1653  1.0858
19295TIP3   OH279299   3.488   4.248  15.895  0.2213 -0.0292  0.4273
19295TIP3    H179300   3.509   4.267  15.986  1.3711 -0.9223  0.3713
19295TIP3    H279301   3.515   4.157  15.882 -0.6467 -0.1643 -0.5979
19296TIP3   OH279302   2.630   3.356  17.053 -0.3316 -0.1263 -0.3655
19296TIP3    H179303   2.707   3.408  17.078 -0.4027 -0.1977  0.0034
19296TIP3    H279304   2.565   3.422  17.026 -0.8874  0.0871  1.3545
19297TIP3   OH279305   5.374   5.775   4.349 -0.3405 -0.8456  0.2792
19297TIP3    H179306   5.382   5.682   4.367 -2.2857 -1.0620  0.1706
19297TIP3    H279307   5.299   5.782   4.290 -0.8510  0.8727  1.0775
19298TIP3   OH279308   2.386   3.147   1.318 -0.3068  0.2839 -0.0204
19298TIP3    H179309   2.384   3.239   1.289 -3.5335  1.1634  2.4021
19298TIP3    H279310   2.308   3.108   1.280 -0.6752 -0.5390  1.5000
19299TIP3   OH279311   4.478   4.531  13.684  0.1272 -0.3654  0.5839
19299TIP3    H179312   4.448   4.445  13.656 -0.8358 -0.2601  1.2168
19299TIP3    H279313   4.496   4.521  13.778  0.0150  0.1174  0.6629
19300TIP3   OH279314   4.001   6.220   0.959 -0.3509 -0.0479  0.8146
19300TIP3    H179315   3.937   6.234   0.889  0.0764 -2.5979 -0.1906
19300TIP3    H279316   3.956   6.248   1.039 -2.4661 -1.0477  0.0382
19301TIP3   OH279317   2.139   1.352  14.436 -0.6290 -0.0750  0.3673
19301TIP3    H179318   2.190   1.430  14.415 -0.5992 -0.4093 -0.8670
19301TIP3    H279319   2.193   1.305  14.499 -0.8936  1.1460  1.5742
19302TIP3   OH279320   1.282   0.043   5.056 -0.1445 -0.2294  0.4726
19302TIP3    H179321   1.189   0.036   5.033 -0.3607 -0.4566  1.3537
19302TIP3    H279322   1.317   0.106   4.993 -1.3575  1.4260  1.3609
19303TIP3   OH279323   6.159   1.827   3.577  0.0579  0.3657 -0.1014
19303TIP3    H179324   6.096   1.786   3.517 -0.8600  2.2623 -0.5112
19303TIP3    H279325   6.105   1.871   3.642  1.0184  0.5132  0.6226
19304TIP3   OH279326   1.973   1.406   5.738  0.5662 -0.4511 -0.1096
19304TIP3    H179327   1.959   1.457   5.658 -1.2389  0.9451  1.0126
19304TIP3    H279328   1.894   1.352   5.746  1.7535 -2.3256 -0.4411
19305TIP3   OH279329   1.114   4.548   1.727 -0.0248  0.4273 -0.6861
19305TIP3    H179330   1.155   4.577   1.646  1.3337 -0.3967 -0.3335
19305TIP3    H279331   1.139   4.614   1.792  0.1029  0.3381 -0.6426
19306TIP3   OH279332   2.663   3.624   3.618 -0.4218 -0.3367  0.3209
19306TIP3    H179333   2.682   3.557   3.685 -0.5584 -2.0175 -1.2494
19306TIP3    H279334   2.568   3.619   3.607 -0.7886  1.8445  1.8580
19307TIP3   OH279335   5.406   1.894  12.873 -0.4894  0.0933 -0.4741
19307TIP3    H179336   5.478   1.831  12.879 -0.6690 -0.0675  0.0567
19307TIP3    H279337   5.350   1.860  12.803  0.4031  0.6957 -1.5062
19308TIP3   OH279338   5.031   3.034   1.750 -0.1149  0.5305  0.0688
19308TIP3    H179339   5.039   2.946   1.714 -0.3189  0.0562  1.1497
19308TIP3    H279340   5.106   3.082   1.715 -0.1724  0.0117 -0.7629
19309TIP3   OH279341   4.469   0.838  13.676  0.4951 -0.2523 -0.0160
19309TIP3    H179342   4.531   0.911  13.668  0.4406 -0.0664  1.1067
19309TIP3    H279343   4.384   0.881  13.685  0.7758 -0.1817  4.4697
19310TIP3   OH279344   5.368   5.518  12.710 -0.4434 -0.4065 -0.1802
19310TIP3    H179345   5.298   5.540  12.772 -1.7692  0.0707 -1.7862
19310TIP3    H279346   5.340   5.435  12.672  0.7056 -1.0426  0.3138
19311TIP3   OH279347   4.815   6.285   5.371  0.1375  0.7061 -0.0884
19311TIP3    H179348   4.799   6.334   5.290 -1.6002 -2.3024 -1.7635
19311TIP3    H279349   4.872   6.342   5.423 -0.6466  3.8376 -2.3518
19312TIP3   OH279350   3.099   5.256  14.067  0.4627  0.6382 -0.1517
19312TIP3    H179351   3.127   5.232  14.156  1.8293  0.1120 -0.7044
19312TIP3    H279352   3.040   5.185  14.041 -3.0690  2.5961  1.6699
19313TIP3   OH279353   5.972   3.512  16.551  0.0051 -0.0292 -0.2682
19313TIP3    H179354   6.011   3.509  16.639 -0.2104  0.2173 -0.1609
19313TIP3    H279355   5.970   3.606  16.530 -3.0688  0.2701  0.8907
19314TIP3   OH279356   4.744   3.667   3.453  0.6854 -0.4064 -0.1735
19314TIP3    H179357   4.691   3.724   3.508  1.6375  0.3734 -0.0274
19314TIP3    H279358   4.702   3.668   3.367 -1.3828 -2.4062  0.7202
19315TIP3   OH279359   4.166   6.603  15.002 -0.3435  0.2682 -0.7918
19315TIP3    H179360   4.212   6.617  15.085  1.1581 -2.9536 -0.9524
19315TIP3    H279361   4.201   6.671  14.944  2.5046 -0.5545 -0.1908
19316TIP3   OH279362   5.598   0.550  15.521  0.6448 -0.3160 -0.4271
19316TIP3    H179363   5.578   0.554  15.615  0.1817 -0.6721 -0.5064
19316TIP3    H279364   5.624   0.639  15.498 -1.2522  0.2946 -0.3920
19317TIP3   OH279365   3.892   5.162  16.431  0.1566  0.4058  0.1828
19317TIP3    H179366   3.889   5.256  16.451  0.2946  0.3670  0.3826
19317TIP3    H279367   3.843   5.154  16.349  0.0046  0.6307  0.2506
19318TIP3   OH279368   3.364   3.137   5.639  0.5112  0.3969 -0.7355
19318TIP3    H179369   3.329   3.224   5.623 -0.4695  0.0113 -0.7693
19318TIP3    H279370   3.440   3.151   5.695  1.4965  1.4246 -2.2435
19319TIP3   OH279371   1.564   3.491   0.274  0.0410  0.1246  0.7341
19319TIP3    H179372   1.591   3.582   0.259  0.5742 -0.2657 -0.9505
19319TIP3    H279373   1.576   3.477   0.368 -0.1564  1.8156  1.0364
19320TIP3   OH279374   0.550   2.676  12.729 -0.2331  0.3133  0.6279
19320TIP3    H179375   0.604   2.611  12.775  0.5572  0.2428 -0.3686
19320TIP3    H279376   0.537   2.745  12.793  0.4938  0.0223  1.1088
19321TIP3   OH279377   5.076   3.029   2.374  0.2225 -0.5469  0.1570
19321TIP3    H179378   5.034   3.090   2.313  0.2115  1.1179  1.7466
19321TIP3    H279379   5.158   3.006   2.332  0.6110  1.2438 -0.1341
19322TIP3   OH279380   0.341   6.435  16.964 -0.2063  0.0902  0.7692
19322TIP3    H179381   0.326   6.422  17.057 -1.4470  0.6866  0.6652
19322TIP3    H279382   0.274   6.498  16.937  0.4164  0.2676 -0.4323
19323TIP3   OH279383   0.919   5.707   2.268 -0.2906 -0.0524  0.6074
19323TIP3    H179384   0.906   5.800   2.283 -2.9319 -0.7694  4.1509
19323TIP3    H279385   1.004   5.687   2.306 -1.3249  0.4348  3.4165
19324TIP3   OH279386   5.993   5.887  16.501 -0.1206 -0.1604 -0.1260
19324TIP3    H179387   6.082   5.872  16.531  0.0533 -0.3983 -0.7496
19324TIP3    H279388   5.983   5.982  16.502  0.1252 -0.1366  0.0021
19325TIP3   OH279389   2.050   2.512   6.044 -0.3263 -0.1700 -0.3116
19325TIP3    H179390   2.056   2.591   6.096 -0.2215  0.0633 -0.6738
19325TIP3    H279391   1.984   2.459   6.088 -0.7890  0.3493 -0.3748
19326TIP3   OH279392   6.347   4.402  12.675  0.3625  0.6426  0.1500
19326TIP3    H179393   6.433   4.432  12.703  1.1397  0.2892 -1.7897
19326TIP3    H279394   6.350   4.307  12.684  0.4914  0.5571 -0.7805
19327TIP3   OH279395   5.222   1.623  15.186 -0.4528 -0.0477  0.3852
19327TIP3    H179396   5.297   1.683  15.185 -1.0625  0.7476  1.0757
19327TIP3    H279397   5.171   1.647  15.109  0.3329 -1.0443 -0.4682
19328TIP3   OH279398   4.128   2.114  11.107  0.1559  0.2277 -0.7210
19328TIP3    H179399   4.082   2.058  11.044  0.9281  0.6614 -1.7016
19328TIP3    H279400   4.219   2.114  11.077  0.2853  1.5109 -0.3773
19329TIP3   OH279401   2.191   0.819  11.381  0.0782 -0.2300  0.1094
19329TIP3    H179402   2.127   0.882  11.348 -1.7974 -0.8801  2.2110
19329TIP3    H279403   2.255   0.810  11.311 -0.2276  3.0612 -0.7441
19330TIP3   OH279404   1.884   4.482   3.636 -0.2374 -0.5066 -0.4469
19330TIP3    H179405   1.818   4.430   3.682 -1.1356 -0.0592 -1.2022
19330TIP3    H279406   1.854   4.484   3.545  0.2411  0.6001 -0.5947
19331TIP3   OH279407   0.851   4.059   1.443 -0.2222 -0.5010  0.5575
19331TIP3    H179408   0.883   3.969   1.445 -2.7871 -1.4793  1.6866
19331TIP3    H279409   0.848   4.085   1.535 -1.4849 -0.0609  0.4135
19332TIP3   OH279410   1.519   3.895  12.255 -0.0526  0.7094  0.0427
19332TIP3    H179411   1.425   3.908  12.266 -0.1773  0.8018 -1.0140
19332TIP3    H279412   1.528   3.804  12.228  0.1757  0.6444  0.3367
19333TIP3   OH279413   3.542   0.612   4.669 -0.5139  0.2273 -0.3382
19333TIP3    H179414   3.570   0.548   4.603  0.9016  0.8408 -0.3705
19333TIP3    H279415   3.461   0.576   4.704 -0.9442 -0.4591 -1.9279
19334TIP3   OH279416   6.736   5.922  14.931  0.2464 -0.6796 -0.2569
19334TIP3    H179417   6.761   5.830  14.940  0.9907 -0.3964  0.8382
19334TIP3    H279418   6.746   5.958  15.020  1.2257  0.7645 -0.9150
19335TIP3   OH279419   0.632   4.264   6.486  0.8067  0.8723  0.3873
19335TIP3    H179420   0.668   4.178   6.465 -1.3613  0.1258 -0.5852
19335TIP3    H279421   0.546   4.245   6.524  0.4083  2.5881  0.4158
19336TIP3   OH279422   2.603   1.453  13.246 -0.0437  0.2794  0.6155
19336TIP3    H179423   2.669   1.493  13.190  1.2739  0.7062  2.3900
19336TIP3    H279424   2.531   1.432  13.187  1.4528  0.2707 -1.3033
19337TIP3   OH279425   4.860   2.174   6.136 -0.3143 -0.2939  0.3449
19337TIP3    H179426   4.896   2.086   6.140 -0.5727 -0.3777  0.9303
19337TIP3    H279427   4.803   2.181   6.213  1.0688  0.9863  1.3089
19338TIP3   OH279428   0.291   1.808  14.725 -0.5543 -0.4718 -0.1287
19338TIP3    H179429   0.238   1.731  14.748 -1.3093 -0.2066 -0.9397
19338TIP3    H279430   0.243   1.882  14.761 -1.4780 -0.0969 -2.0018
19339TIP3   OH279431   2.843   0.246   5.859  0.2707 -0.2899  0.2626
19339TIP3    H179432   2.903   0.206   5.796 -1.1940 -1.2562 -0.5796
19339TIP3    H279433   2.827   0.176   5.923 -0.7999 -0.4233 -0.1353
19340TIP3   OH279434   6.414   6.320   1.739 -0.3399  0.2287  0.2326
19340TIP3    H179435   6.507   6.341   1.727  0.0813 -1.6979 -0.2456
19340TIP3    H279436   6.381   6.311   1.649  0.0899 -3.2085  0.2974
19341TIP3   OH279437   0.211   1.082  13.228  0.0541  0.1708 -0.2985
19341TIP3    H179438   0.179   1.104  13.141  0.0205  1.1898 -0.0348
19341TIP3    H279439   0.180   0.992  13.243 -2.2496  0.9211 -0.2480
19342TIP3   OH279440   0.379   5.508  11.443  0.0210  0.0883 -0.0920
19342TIP3    H179441   0.409   5.420  11.423  0.0791 -0.1291  0.9072
19342TIP3    H279442   0.338   5.501  11.529  1.7135  1.3764  0.8852
19343TIP3   OH279443   0.915   4.916   5.273  0.1567  0.1231  0.1318
19343TIP3    H179444   0.837   4.943   5.322  0.3577  0.0671  0.4820
19343TIP3    H279445   0.899   4.823   5.254  0.4189 -0.0486  0.7404
19344TIP3   OH279446   0.421   1.551   6.602  0.8367 -0.2395  0.2062
19344TIP3    H179447   0.495   1.608   6.623 -0.0451  0.4065  1.7693
19344TIP3    H279448   0.457   1.486   6.542  2.5408  0.3678  0.5125
19345TIP3   OH279449   0.057   5.578   5.635 -0.3586  0.6084 -0.8005
19345TIP3    H179450   0.121   5.534   5.579  0.8344  1.0894  0.1544
19345TIP3    H279451  -0.006   5.616   5.573  0.8586  1.0349 -1.8280
19346TIP3   OH279452   5.494   2.029  15.732 -0.6033 -0.2224 -0.4861
19346TIP3    H179453   5.509   2.111  15.778 -0.3549  0.4963 -1.8172
19346TIP3    H279454   5.581   1.998  15.707 -0.7305 -0.6343 -0.4350
19347TIP3   OH279455   2.712   5.453   3.566  0.1487  0.0882  0.0275
19347TIP3    H179456   2.719   5.548   3.554 -0.3937 -0.0661 -1.7234
19347TIP3    H279457   2.803   5.423   3.573  0.3540  1.0236  3.9022
19348TIP3   OH279458   4.786   5.041  13.895  0.4692 -0.8047  0.3679
19348TIP3    H179459   4.728   5.098  13.945  1.4145  1.8492 -1.3612
19348TIP3    H279460   4.873   5.055  13.933  0.5942 -1.8690  0.5238
19349TIP3   OH279461   2.675   5.799  16.043  0.0493  0.0638  0.1420
19349TIP3    H179462   2.760   5.812  16.086  3.3963 -0.7991 -5.2686
19349TIP3    H279463   2.662   5.879  15.992 -1.1049 -0.8034 -0.9939
19350TIP3   OH279464   6.497   5.171   5.292 -0.0138 -0.2330  0.6359
19350TIP3    H179465   6.475   5.079   5.302  2.4283 -1.1292 -1.2981
19350TIP3    H279466   6.450   5.198   5.213 -0.5931  0.1685  1.1062
19351TIP3   OH279467   2.807   0.461   1.650  0.4593  0.2126 -0.2080
19351TIP3    H179468   2.844   0.395   1.592 -1.1944 -0.4751 -0.5555
19351TIP3    H279469   2.766   0.410   1.721 -0.5295  0.8583 -0.2916
19352TIP3   OH279470   3.083   0.238  13.513 -0.1787  0.0842  0.2306
19352TIP3    H179471   3.160   0.292  13.528  1.3128 -1.2886 -1.8471
19352TIP3    H279472   3.069   0.192  13.596  0.1440  1.6200  1.1692
19353TIP3   OH279473   5.310   1.460  16.605  0.1099 -0.0286 -0.3547
19353TIP3    H179474   5.281   1.372  16.630 -0.5950  0.3052  0.0276
19353TIP3    H279475   5.297   1.513  16.684 -0.5863  0.6792 -0.9309
19354TIP3   OH279476   4.284   6.687   1.517 -0.0150  0.3777  0.3272
19354TIP3    H179477   4.236   6.770   1.525 -0.3227  0.1439  1.0151
19354TIP3    H279478   4.285   6.652   1.606  0.6420 -0.0694  0.1482
19355TIP3   OH279479   5.844   4.279   0.253 -0.9458 -0.3627 -0.0173
19355TIP3    H179480   5.855   4.282   0.158 -0.0401 -0.1453  0.0904
19355TIP3    H279481   5.898   4.206   0.281  0.5721  0.9054  0.5480
19356TIP3   OH279482   3.732   3.620  16.443 -0.1563 -0.0302  0.3518
19356TIP3    H179483   3.646   3.620  16.486  0.5255 -0.1036  1.7580
19356TIP3    H279484   3.793   3.596  16.512  0.7754 -2.2051 -1.1508
19357TIP3   OH279485   1.231   2.379  11.642 -0.0852 -0.0978  0.5266
19357TIP3    H179486   1.300   2.445  11.646  0.0200 -0.0425 -1.2832
19357TIP3    H279487   1.193   2.390  11.555 -1.1278 -1.3750  0.7943
19358TIP3   OH279488   1.352   5.128   1.560 -1.0304  0.0635  0.4959
19358TIP3    H179489   1.389   5.204   1.516 -1.4951 -0.0201 -0.0520
19358TIP3    H279490   1.318   5.074   1.490  1.4319 -1.8595  0.6331
19359TIP3   OH279491   2.792   3.470  15.627  0.6474  0.3291  0.3537
19359TIP3    H179492   2.752   3.506  15.548 -0.4070  2.2807  1.7037
19359TIP3    H279493   2.719   3.428  15.674  1.4871 -1.9315 -0.2207
19360TIP3   OH279494   4.105   4.701  13.308 -0.0642 -0.7751  0.0151
19360TIP3    H179495   4.130   4.792  13.291 -2.3533 -0.3207 -1.2999
19360TIP3    H279496   4.045   4.707  13.382 -0.4258 -1.1763 -0.2450
19361TIP3   OH279497   1.028   5.100  12.812  0.0124  0.2143  0.0327
19361TIP3    H179498   0.958   5.096  12.878 -2.3661  0.3303 -2.3083
19361TIP3    H279499   0.999   5.041  12.742  1.8236  0.9672 -1.4407
19362TIP3   OH279500   2.422   4.025   0.568  0.1297  0.3620  0.4839
19362TIP3    H179501   2.396   3.946   0.519 -1.4151  0.4097  1.1467
19362TIP3    H279502   2.505   4.051   0.530  0.6189 -1.5289  0.1598
19363TIP3   OH279503   1.423   3.238   5.532 -0.3143  0.9142  0.3528
19363TIP3    H179504   1.421   3.164   5.593 -1.2262  1.3883  0.9213
19363TIP3    H279505   1.363   3.213   5.462 -0.3662  0.9838  0.3731
19364TIP3   OH279506   2.337   0.916   1.657 -0.2038  0.0666  0.0315
19364TIP3    H179507   2.251   0.949   1.684  1.0559  1.7152  2.3096
19364TIP3    H279508   2.382   0.992   1.619  0.0136 -0.9881 -2.0060
19365TIP3   OH279509   4.146   0.083   6.317  0.2568  0.1260 -0.5289
19365TIP3    H179510   4.073   0.093   6.256  0.3979 -0.9615 -0.8992
19365TIP3    H279511   4.129   0.148   6.386 -1.4863 -0.6076 -0.1963
19366TIP3   OH279512   4.519   5.659   3.434 -0.0305  0.1465  0.6129
19366TIP3    H179513   4.595   5.602   3.442  0.3938  0.6192  0.0292
19366TIP3    H279514   4.450   5.603   3.399  0.2482 -0.1212  0.4906
19367TIP3   OH279515   4.829   2.823   1.364 -0.1997  0.1729 -0.2520
19367TIP3    H179516   4.780   2.770   1.301  1.2708 -2.1766  0.4602
19367TIP3    H279517   4.907   2.852   1.316 -0.1951  0.2942 -0.1719
19368TIP3   OH279518   3.171   2.327   2.745  0.3768  0.7593  0.1740
19368TIP3    H179519   3.249   2.368   2.709 -0.5457  2.2177 -0.2556
19368TIP3    H279520   3.125   2.292   2.669  1.2151 -1.3136  0.5412
19369TIP3   OH279521   4.715   6.400  15.558 -0.2723 -0.1611  0.6206
19369TIP3    H179522   4.802   6.363  15.567 -0.4720 -0.6480  0.5888
19369TIP3    H279523   4.691   6.430  15.645  0.1391  0.4563  0.5228
19370TIP3   OH279524   6.241   1.613  15.258 -0.0348  0.3579  0.6153
19370TIP3    H179525   6.328   1.590  15.290 -0.4448 -1.7305  0.3858
19370TIP3    H279526   6.186   1.539  15.284 -1.5445  1.2009 -0.0632
19371TIP3   OH279527   0.401   0.432  12.408 -0.3384 -0.1306  0.1313
19371TIP3    H179528   0.379   0.427  12.315 -1.3026  2.3000  0.1531
19371TIP3    H279529   0.477   0.490  12.411 -0.3981 -0.0848  0.8545
19372TIP3   OH279530   0.094   1.133  15.641  0.6177  0.1842 -0.3804
19372TIP3    H179531   0.162   1.187  15.680  0.7100 -0.0743 -0.1745
19372TIP3    H279532   0.071   1.177  15.559 -0.1158  1.1619  0.3247
19373TIP3   OH279533   5.149   1.827  15.000 -0.2341  1.1182 -0.5158
19373TIP3    H179534   5.068   1.869  14.970 -0.7630  1.0842  0.7922
19373TIP3    H279535   5.155   1.747  14.948 -1.1831  0.9865 -0.4400
19374TIP3   OH279536   3.636   6.674   4.098  0.2503  0.4646  0.1505
19374TIP3    H179537   3.546   6.642   4.102  0.5945 -0.5768  0.0542
19374TIP3    H279538   3.666   6.651   4.010 -0.2552  3.3604 -0.8774
19375TIP3   OH279539   2.330   3.112   2.698  0.3281 -0.3637 -0.6354
19375TIP3    H179540   2.339   3.205   2.718  1.5545 -0.9354  1.7855
19375TIP3    H279541   2.307   3.071   2.781  1.4103 -2.4230 -1.2813
19376TIP3   OH279542   2.139   2.463  15.679  0.7424 -0.1337 -0.2061
19376TIP3    H179543   2.154   2.491  15.769 -2.0795  0.2263  0.2304
19376TIP3    H279544   2.213   2.500  15.630  1.1214  1.6240  1.5777
19377TIP3   OH279545   1.362   5.206  14.451  0.2591  0.2273  0.3140
19377TIP3    H179546   1.449   5.166  14.456 -0.0304 -0.5730 -0.5942
19377TIP3    H279547   1.311   5.145  14.397  0.0619  2.2596 -1.9916
19378TIP3   OH279548   3.766   2.859  13.124  0.0999 -0.0791 -0.1664
19378TIP3    H179549   3.689   2.811  13.093 -0.0055  0.0903 -0.1677
19378TIP3    H279550   3.828   2.853  13.052  0.2168 -0.5051 -0.0345
19379TIP3   OH279551   1.743   1.438   1.739 -0.0506 -0.0945  0.0580
19379TIP3    H179552   1.787   1.513   1.777 -2.1719  0.0098  2.5196
19379TIP3    H279553   1.781   1.362   1.784  0.6524 -0.3966 -0.9852
19380TIP3   OH279554   3.743   4.186  11.447 -0.6138  0.0439 -0.2957
19380TIP3    H179555   3.733   4.229  11.362 -1.1731 -1.0015 -0.7683
19380TIP3    H279556   3.786   4.103  11.427 -0.9575 -0.3111  0.4202
19381TIP3   OH279557   0.952   6.254  11.777  0.6803  0.0295  0.6866
19381TIP3    H179558   1.015   6.186  11.751  0.3451 -0.8545  2.0908
19381TIP3    H279559   0.894   6.211  11.840 -0.3955  1.2542  0.5796
19382TIP3   OH279560   1.529   4.190  11.953  0.2456 -0.1937  0.3534
19382TIP3    H179561   1.455   4.224  11.901  0.7696 -0.5400 -0.6488
19382TIP3    H279562   1.605   4.240  11.922  0.7036 -0.9690  0.2000
19383TIP3   OH279563   0.351   1.520   3.827  0.1669 -0.1378  0.1261
19383TIP3    H179564   0.440   1.495   3.850  0.4502 -0.4359 -1.2256
19383TIP3    H279565   0.349   1.616   3.836  0.9514 -0.0099 -0.8627
19384TIP3   OH279566   0.768   5.532  16.801 -0.6395 -0.9312 -0.0107
19384TIP3    H179567   0.725   5.614  16.778  0.3635 -0.6474 -1.0039
19384TIP3    H279568   0.861   5.550  16.788 -0.3963 -2.2010 -0.1827
19385TIP3   OH279569   6.220   1.036   2.647  0.0460  0.0445  0.0638
19385TIP3    H179570   6.203   1.012   2.556  1.0728 -1.3760  0.2101
19385TIP3    H279571   6.310   1.067   2.648  0.2904 -0.6448  0.7062
19386TIP3   OH279572   3.458   1.797  13.606  0.7072 -0.3972 -0.2860
19386TIP3    H179573   3.408   1.756  13.536  0.9769 -0.8718 -0.2022
19386TIP3    H279574   3.511   1.863  13.562 -0.9442  1.0462 -0.2179
19387TIP3   OH279575   0.541   2.883   3.693 -0.0212  0.5959  0.2380
19387TIP3    H179576   0.630   2.900   3.723 -0.4468  0.9737  1.3264
19387TIP3    H279577   0.514   2.964   3.651 -1.0645  1.8292  3.0054
19388TIP3   OH279578   1.055   2.116   4.191 -0.2349 -0.5384  0.2627
19388TIP3    H179579   1.005   2.080   4.116 -1.3291 -1.7284  1.5047
19388TIP3    H279580   1.018   2.203   4.204  0.8867  0.2430 -1.3745
19389TIP3   OH279581   0.505   0.209   4.194  0.1188  0.6792 -0.0891
19389TIP3    H179582   0.461   0.125   4.205 -0.7575  1.1461  0.0723
19389TIP3    H279583   0.441   0.264   4.148  1.0232  0.9861 -1.0162
19390TIP3   OH279584   5.609   3.483   1.802  0.2971 -0.5021 -0.9568
19390TIP3    H179585   5.606   3.559   1.860  2.8048 -1.0941  0.0600
19390TIP3    H279586   5.543   3.502   1.736 -1.7850  0.8127  1.3119
19391TIP3   OH279587   4.639   5.398  12.660  0.0933  0.2552  0.1249
19391TIP3    H179588   4.670   5.316  12.699 -0.7413 -0.0720  0.1248
19391TIP3    H279589   4.575   5.432  12.722 -0.2171  0.4462 -0.2921
19392TIP3   OH279590   3.541   6.354   5.500  0.3212  0.1573 -0.2783
19392TIP3    H179591   3.620   6.392   5.461  0.3004 -0.2141 -0.6899
19392TIP3    H279592   3.519   6.413   5.572  0.8212  0.4109 -0.3286
19393TIP3   OH279593   2.771   0.536  16.369 -0.4655  0.4307 -0.1477
19393TIP3    H179594   2.714   0.462  16.390 -1.4144  1.2204  0.1155
19393TIP3    H279595   2.858   0.506  16.395 -1.1695  0.2976  2.3593
19394TIP3   OH279596   5.409   0.995  11.186  0.5083 -0.3953 -0.0780
19394TIP3    H179597   5.475   0.927  11.180 -0.8112 -1.6779 -0.8880
19394TIP3    H279598   5.437   1.061  11.122  2.1611  0.2068  1.2002
19395TIP3   OH279599   1.500   3.754   2.471  0.0686 -0.4857 -0.5116
19395TIP3    H179600   1.582   3.723   2.508  1.0336 -0.9950 -2.9069
19395TIP3    H279601   1.432   3.709   2.522  1.2740 -0.8683  0.8145
19396TIP3   OH279602   5.027   6.665  15.081  0.0075  0.2465  0.0224
19396TIP3    H179603   5.104   6.663  15.024 -0.0516  0.1754 -0.0552
19396TIP3    H279604   4.953   6.659  15.021 -0.0329 -1.1253  0.1742
19397TIP3   OH279605   3.790   5.966  15.620  0.4861  0.0889 -0.3216
19397TIP3    H179606   3.789   6.000  15.531  0.1362 -1.9561 -1.1418
19397TIP3    H279607   3.855   5.896  15.619  2.1544  1.4949  1.6557
19398TIP3   OH279608   6.605   0.476  10.656 -0.4953  0.1898  0.2025
19398TIP3    H179609   6.615   0.439  10.569  0.9573 -0.7845  0.7466
19398TIP3    H279610   6.601   0.400  10.714  1.8932  0.8038  1.2958
19399TIP3   OH279611   1.098   1.588  13.396  0.4206 -0.3220  0.0758
19399TIP3    H179612   1.110   1.502  13.438  0.2796 -0.5674 -0.3765
19399TIP3    H279613   1.105   1.651  13.467 -0.7354 -0.7883  0.6285
19400TIP3   OH279614   4.121   2.522   5.380 -0.1579  1.1172 -0.2388
19400TIP3    H179615   4.212   2.530   5.410  0.2920  1.2673 -1.5665
19400TIP3    H279616   4.118   2.437   5.336 -0.8502  0.8111  0.3914
19401TIP3   OH279617   3.422   4.594  12.165  0.3658 -0.2309  1.1719
19401TIP3    H179618   3.389   4.672  12.209  0.3391  1.6746 -1.9163
19401TIP3    H279619   3.347   4.560  12.116  1.3143  0.4068 -0.8634
19402TIP3   OH279620   2.372   6.358   0.639  0.0425  0.4346 -0.2742
19402TIP3    H179621   2.428   6.362   0.716 -1.6246 -0.3319  1.0537
19402TIP3    H279622   2.371   6.266   0.614  1.1499  0.7719 -1.7213
19403TIP3   OH279623   4.301   0.053  14.858  0.5972 -0.1742 -0.0843
19403TIP3    H179624   4.314   0.095  14.773 -0.9413  3.3670  1.2279
19403TIP3    H279625   4.377   0.080  14.909 -0.0767  0.5102  0.5788
19404TIP3   OH279626   6.662   2.752   1.832  0.2846 -0.4332 -0.1551
19404TIP3    H179627   6.600   2.733   1.762  0.7571  0.2088 -0.7609
19404TIP3    H279628   6.747   2.754   1.788  0.5327  0.4774  0.3468
19405TIP3   OH279629   2.889   5.264  11.405  0.0978  0.0764 -0.0694
19405TIP3    H179630   2.848   5.180  11.382 -1.1580  0.7517 -0.4119
19405TIP3    H279631   2.853   5.326  11.341  0.0785  1.1088  0.9183
19406TIP3   OH279632   4.534   0.227  14.870  0.6300 -1.0843  0.2204
19406TIP3    H179633   4.516   0.313  14.909  0.2128 -0.4557 -1.2760
19406TIP3    H279634   4.620   0.203  14.905  0.5523 -0.2741  1.0184
19407TIP3   OH279635   5.007   1.821   2.947  0.8916 -0.2069 -0.3350
19407TIP3    H179636   4.971   1.814   3.035 -1.9440 -1.3198 -1.4450
19407TIP3    H279637   4.977   1.907   2.916  1.2059 -0.1441 -0.4624
19408TIP3   OH279638   5.363   3.414   2.690 -0.0275 -0.0488 -0.0798
19408TIP3    H179639   5.438   3.428   2.633  0.9372 -1.0786  0.8906
19408TIP3    H279640   5.368   3.486   2.754 -0.9960  0.9903 -1.1344
19409TIP3   OH279641   5.588   2.191   1.218 -0.0544 -0.4428  0.5354
19409TIP3    H179642   5.646   2.135   1.269 -0.5277  0.1137  1.7206
19409TIP3    H279643   5.644   2.229   1.151  0.7263 -0.7125  1.0215
19410TIP3   OH279644   5.138   1.655   3.868  0.1753 -0.4047 -0.1498
19410TIP3    H179645   5.192   1.589   3.824  0.4256 -0.2898 -0.0133
19410TIP3    H279646   5.055   1.654   3.819  0.0690 -1.0291  0.0323
19411TIP3   OH279647   4.015   0.821   1.469 -0.5477  0.0836  0.2420
19411TIP3    H179648   4.107   0.826   1.494 -0.6931  0.8465  0.6443
19411TIP3    H279649   3.971   0.886   1.524 -1.4536 -0.8230  0.6229
19412TIP3   OH279650   5.814   5.640  14.908  0.1511  0.1364  0.1493
19412TIP3    H179651   5.730   5.651  14.952  0.2239  1.0174  0.0838
19412TIP3    H279652   5.879   5.647  14.978  0.1779 -0.7327  0.2306
19413TIP3   OH279653   5.977   4.451  13.774  0.2635 -0.0793  0.2282
19413TIP3    H179654   5.992   4.546  13.777  1.6165 -0.1378 -2.2665
19413TIP3    H279655   5.882   4.442  13.774 -0.0174  1.5309 -2.6478
19414TIP3   OH279656   4.687   5.177  12.792  0.2538  0.0364 -0.5202
19414TIP3    H179657   4.699   5.177  12.887 -1.7147  1.1287 -0.2288
19414TIP3    H279658   4.735   5.099  12.762  1.3306 -0.0550  1.2834
19415TIP3   OH279659   4.144   2.153  17.040 -0.9360  0.7045 -0.0312
19415TIP3    H179660   4.107   2.239  17.056 -1.7924  0.0740  1.6510
19415TIP3    H279661   4.132   2.138  16.946 -1.2229  2.1875 -0.2544
19416TIP3   OH279662   1.024   6.560   4.692 -0.5177 -0.3587  0.4740
19416TIP3    H179663   1.111   6.530   4.667 -0.4885  0.2314 -0.1520
19416TIP3    H279664   1.024   6.556   4.788  0.5750  0.6428  0.5353
19417TIP3   OH279665   5.172   2.514  15.816  0.2612  0.9811  0.1247
19417TIP3    H179666   5.215   2.550  15.739  1.3718  2.2535  1.2887
19417TIP3    H279667   5.078   2.524  15.798  0.4909  0.8418 -1.2204
19418TIP3   OH279668   5.634   4.051  10.526  0.4605 -0.3109 -0.0448
19418TIP3    H179669   5.594   3.966  10.543  0.0495 -0.0949  0.0718
19418TIP3    H279670   5.583   4.112  10.579  1.7676 -0.2047  1.1379
19419TIP3   OH279671   5.691   0.755   4.110 -0.5366  0.0193 -0.0568
19419TIP3    H179672   5.655   0.842   4.127 -2.5743 -0.7128 -0.3090
19419TIP3    H279673   5.625   0.695   4.145 -0.3651 -1.4443 -2.0945
19420TIP3   OH279674   2.421   0.391   2.197 -0.7155  0.3006 -0.1068
19420TIP3    H179675   2.346   0.386   2.256 -2.3730  0.5445 -2.0920
19420TIP3    H279676   2.445   0.484   2.196  0.8957 -0.0197  1.9530
19421TIP3   OH279677   3.394   2.129   6.011  0.1022  0.1500  0.5074
19421TIP3    H179678   3.446   2.178   5.947 -0.6810  0.7761  0.3237
19421TIP3    H279679   3.448   2.054   6.035  0.6493  0.2252 -0.4538
19422TIP3   OH279680   0.130   4.943  15.341  0.1807 -0.5949  0.1307
19422TIP3    H179681   0.180   4.919  15.263 -2.0185  1.8637 -2.2304
19422TIP3    H279682   0.162   5.031  15.364 -0.2123 -0.6967  1.1151
19423TIP3   OH279683   6.086   3.604   2.138 -0.3423  0.1024 -0.1746
19423TIP3    H179684   6.022   3.630   2.072 -0.4210  0.2444 -0.0423
19423TIP3    H279685   6.160   3.568   2.087 -0.2215  0.6043 -0.3579
19424TIP3   OH279686   6.368   1.577  11.888 -0.0499 -0.2648  0.2923
19424TIP3    H179687   6.447   1.537  11.923 -0.7694 -2.0231 -0.0183
19424TIP3    H279688   6.296   1.522  11.919 -0.9246 -0.2937 -1.6531
19425TIP3   OH279689   4.333   4.247   1.796  0.2885  0.1991 -0.0169
19425TIP3    H179690   4.428   4.235   1.787  0.2689 -1.7953  1.6573
19425TIP3    H279691   4.300   4.161   1.821 -1.9225  0.9699 -0.0498
19426TIP3   OH279692   4.106   0.614  12.675  0.6119 -0.3908 -0.3596
19426TIP3    H179693   4.182   0.556  12.684  1.7388  1.0335 -0.4151
19426TIP3    H279694   4.114   0.650  12.587  1.4767  1.8801  0.5731
19427TIP3   OH279695   0.966   6.568   1.996  0.0643  0.8322 -0.3189
19427TIP3    H179696   0.886   6.518   2.015  0.1139  0.0673 -1.9652
19427TIP3    H279697   0.994   6.537   1.910  1.5753  1.8356 -0.2259
19428TIP3   OH279698   6.724   0.764  14.006 -0.5651  0.0517  0.2928
19428TIP3    H179699   6.763   0.780  14.091 -0.4664 -0.4567  0.3492
19428TIP3    H279700   6.709   0.669  14.004 -0.4210  0.0370 -0.3178
19429TIP3   OH279701   0.139   0.040   1.211  0.1883  0.2085 -0.0407
19429TIP3    H179702   0.093   0.121   1.235  0.2275  0.4209 -0.6568
19429TIP3    H279703   0.231   0.067   1.205  0.2084  0.1079 -0.1874
19430TIP3   OH279704   3.469   0.479  11.187 -0.2790 -0.5357  0.1612
19430TIP3    H179705   3.474   0.455  11.280 -0.1429 -1.4603 -0.0692
19430TIP3    H279706   3.525   0.414  11.143 -1.2738 -0.8464 -0.6871
19431TIP3   OH279707   2.512   5.652  16.864  0.0792  0.1689 -0.2300
19431TIP3    H179708   2.573   5.719  16.833  0.1683  0.4076  0.4388
19431TIP3    H279709   2.521   5.654  16.960  0.7172 -1.3786 -0.2173
19432TIP3   OH279710   2.393   3.451   2.025 -0.2872 -0.3747  0.0524
19432TIP3    H179711   2.356   3.434   2.112  0.6057 -1.1059  0.2995
19432TIP3    H279712   2.456   3.381   2.011 -0.2607 -0.1469 -1.1076
19433TIP3   OH279713   1.550   1.541   5.670 -0.0143  0.0062 -0.0320
19433TIP3    H179714   1.483   1.475   5.685  0.2992 -0.3161 -0.0461
19433TIP3    H279715   1.609   1.533   5.744 -0.3070  0.6874  0.2864
19434TIP3   OH279716   0.041   3.348   3.811 -0.8557  0.5289 -0.8464
19434TIP3    H179717   0.024   3.285   3.741 -0.7394  1.2718 -1.5521
19434TIP3    H279718  -0.045   3.382   3.834 -0.9778 -0.2189 -0.1248
19435TIP3   OH279719   2.513   2.752   2.523  0.8918 -0.5439 -0.6196
19435TIP3    H179720   2.505   2.818   2.454  2.3915 -1.3547 -1.6198
19435TIP3    H279721   2.595   2.707   2.504  2.2948  0.2971  2.6806
19436TIP3   OH279722   4.898   0.593  15.565  0.8039 -0.2253  0.3793
19436TIP3    H179723   4.866   0.507  15.536  2.6677 -2.1724  3.5627
19436TIP3    H279724   4.990   0.579  15.586  0.7009  2.0204  2.8715
19437TIP3   OH279725   2.915   0.938   1.249  0.0708 -0.3735  0.0124
19437TIP3    H179726   2.918   0.843   1.251 -0.1692 -0.3782  0.1636
19437TIP3    H279727   2.848   0.959   1.184 -0.1794 -0.3150  0.2830
19438TIP3   OH279728   2.458   2.425   5.158  0.2807  0.4137  0.4962
19438TIP3    H179729   2.481   2.359   5.224  1.6001 -0.2366 -0.5586
19438TIP3    H279730   2.531   2.423   5.097 -0.7427  1.2648 -0.7933
19439TIP3   OH279731   1.128   2.195   3.042 -0.1739  0.2503  0.5756
19439TIP3    H179732   1.069   2.228   2.974  1.3642  0.3424 -0.7714
19439TIP3    H279733   1.194   2.263   3.052 -0.5118  0.3501  2.3791
19440TIP3   OH279734   4.281   5.799   3.491  0.0257 -0.5103 -0.4517
19440TIP3    H179735   4.369   5.783   3.457  0.6253  0.8846  0.3762
19440TIP3    H279736   4.228   5.730   3.451  1.7102 -2.1832  0.0302
19441TIP3   OH279737   3.261   2.387  14.130  0.0121 -0.0805  0.0920
19441TIP3    H179738   3.287   2.301  14.164  1.9550  0.8216  0.9924
19441TIP3    H279739   3.343   2.431  14.108 -0.9475  1.5602 -0.3951
19442TIP3   OH279740   5.049   3.566  17.206 -0.4390 -0.3600 -0.1438
19442TIP3    H179741   5.014   3.576  17.294 -0.1922  0.8420 -0.1694
19442TIP3    H279742   5.125   3.624  17.203  1.5519 -2.7987 -0.1246
19443TIP3   OH279743   6.244   6.522   2.796 -0.1168  0.5392 -0.3278
19443TIP3    H179744   6.230   6.485   2.709 -0.8455 -0.0235  0.0121
19443TIP3    H279745   6.158   6.554   2.823 -0.2591 -0.6505  0.7768
19444TIP3   OH279746   6.653   5.562  16.192  0.2114 -0.6725  0.2697
19444TIP3    H179747   6.594   5.529  16.260 -0.5617 -1.7611 -0.8908
19444TIP3    H279748   6.615   5.645  16.165 -0.0369 -0.7216  0.4697
19445TIP3   OH279749   5.681   2.915  13.213  0.0501 -0.0425  0.5313
19445TIP3    H179750   5.624   2.850  13.172 -0.7894 -0.0063  1.5977
19445TIP3    H279751   5.623   2.966  13.269  1.0020  0.5077  1.0371
19446TIP3   OH279752   3.605   3.750   3.806 -0.1668 -0.1388  0.4146
19446TIP3    H179753   3.590   3.843   3.790  0.5093 -0.4512 -2.5162
19446TIP3    H279754   3.679   3.749   3.867 -1.6193  1.1692  2.3713
19447TIP3   OH279755   5.987   5.071  16.067  0.4682 -0.2618  0.4578
19447TIP3    H179756   5.943   5.132  16.009  0.1954 -0.1599  0.7717
19447TIP3    H279757   6.080   5.087  16.052  0.4097 -0.5772 -0.3106
19448TIP3   OH279758   0.674   5.034  12.058 -0.3441 -0.3611 -0.1292
19448TIP3    H179759   0.659   5.128  12.051  0.4466 -0.1303  1.0550
19448TIP3    H279760   0.696   5.020  12.150  3.4956 -1.0770 -1.0009
19449TIP3   OH279761   3.820   3.963  14.785  0.3540 -0.4926 -0.3803
19449TIP3    H179762   3.839   4.049  14.822 -0.0560 -0.7840  0.5207
19449TIP3    H279763   3.764   3.982  14.709 -0.1695  0.0132  0.1168
19450TIP3   OH279764   5.197   4.392  13.790  0.3971 -0.1997 -0.2464
19450TIP3    H179765   5.112   4.350  13.773  0.8806 -1.5454  0.5468
19450TIP3    H279766   5.192   4.475  13.743 -0.8215 -0.8788 -1.3897
19451TIP3   OH279767   1.215   6.059  13.662  0.6990 -0.4458 -0.0223
19451TIP3    H179768   1.204   5.986  13.722  0.1147  1.1140  1.8776
19451TIP3    H279769   1.134   6.110  13.671  1.3425  0.7739 -0.8123
19452TIP3   OH279770   3.244   4.966  13.794  0.5612  0.5506  0.2335
19452TIP3    H179771   3.219   4.922  13.875 -0.1929 -0.5564 -0.5786
19452TIP3    H279772   3.312   4.910  13.756  0.5374  0.7879 -0.1684
19453TIP3   OH279773   0.686   1.794   2.735 -0.4784  0.0255 -1.0144
19453TIP3    H179774   0.758   1.738   2.765 -1.3798 -2.6157 -3.3134
19453TIP3    H279775   0.726   1.856   2.674  0.2267  0.4271 -0.1496
19454TIP3   OH279776   0.733   5.609   1.598  0.5658 -0.0513 -0.3058
19454TIP3    H179777   0.670   5.673   1.630 -0.1819 -0.7753 -0.3134
19454TIP3    H279778   0.692   5.524   1.613  2.7756 -0.7700  2.6003
19455TIP3   OH279779   0.251   4.118  13.233  0.0274  0.8730 -0.6719
19455TIP3    H179780   0.345   4.101  13.243 -0.0016 -0.4097 -2.1849
19455TIP3    H279781   0.210   4.068  13.304  0.4653  1.2670 -0.1349
19456TIP3   OH279782   1.685   5.026  13.957  0.1123 -0.2980  0.5694
19456TIP3    H179783   1.643   5.035  13.872 -0.0956  0.7470  0.7623
19456TIP3    H279784   1.771   5.068  13.946 -1.1538  2.9591  1.6983
19457TIP3   OH279785   1.235   6.504  11.697 -0.4187 -0.3923 -0.6096
19457TIP3    H179786   1.236   6.459  11.781  0.0787 -0.5835 -0.7153
19457TIP3    H279787   1.304   6.462  11.646  0.4223  0.8184 -0.5243
19458TIP3   OH279788   2.194   3.869  13.377 -0.0955 -0.0420  0.4390
19458TIP3    H179789   2.232   3.911  13.453 -0.8148  1.5197 -0.0281
19458TIP3    H279790   2.104   3.849  13.402 -0.5403  1.0780 -0.1806
19459TIP3   OH279791   2.701   1.825   0.735  0.7610  0.0685  0.0560
19459TIP3    H179792   2.622   1.774   0.718  0.3019  0.5687  0.6754
19459TIP3    H279793   2.672   1.898   0.790  1.6068  0.3922  0.0876
19460TIP3   OH279794   6.371   5.657  12.457  0.1786  0.0618  0.4802
19460TIP3    H179795   6.331   5.670  12.371  0.3116 -0.4879  0.3283
19460TIP3    H279796   6.313   5.702  12.518  0.9777  1.9084 -0.0762
19461TIP3   OH279797   0.398   5.601  14.106  0.2029 -0.1549  0.1191
19461TIP3    H179798   0.343   5.623  14.031  1.0311 -0.1251 -0.4909
19461TIP3    H279799   0.336   5.586  14.177 -0.5283  1.3049 -0.1732
19462TIP3   OH279800   5.563   0.262  13.990 -0.6352  0.2036 -0.6063
19462TIP3    H179801   5.656   0.241  13.997  0.2586  3.8924  0.9808
19462TIP3    H279802   5.554   0.305  13.905 -1.1707 -1.0660 -1.2175
19463TIP3   OH279803   5.301   0.917   6.019 -0.3911  0.4340  0.8128
19463TIP3    H179804   5.217   0.872   6.013 -0.3337  0.1731  1.7728
19463TIP3    H279805   5.328   0.904   6.110  0.4495  0.9409  0.6410
19464TIP3   OH279806   3.884   5.091   4.479 -0.7647 -0.2111 -0.3005
19464TIP3    H179807   3.854   5.181   4.466  0.1104 -0.0199 -1.0495
19464TIP3    H279808   3.963   5.083   4.426  0.3290 -0.8114  1.3428
19465TIP3   OH279809   3.609   4.408  14.879  0.1308  0.4871 -0.3602
19465TIP3    H179810   3.571   4.355  14.948  0.0909  0.3900 -0.4577
19465TIP3    H279811   3.682   4.453  14.922 -0.6576  1.4000  0.0678
19466TIP3   OH279812   0.596   3.876   5.378  0.2757  0.5735 -0.6493
19466TIP3    H179813   0.519   3.820   5.365  1.2904 -0.7172 -1.3568
19466TIP3    H279814   0.658   3.846   5.312  0.6912  2.9219 -1.4310
19467TIP3   OH279815   0.857   5.801   0.312  0.3747  0.7547 -0.0889
19467TIP3    H179816   0.921   5.823   0.380 -0.4746 -1.0634  1.4060
19467TIP3    H279817   0.774   5.794   0.360  0.3491 -4.6102 -0.3639
19468TIP3   OH279818   0.481   6.202   4.053 -0.4518 -0.4071  0.7705
19468TIP3    H179819   0.564   6.220   4.096 -0.6597 -1.4609  1.6653
19468TIP3    H279820   0.501   6.201   3.959  0.4349 -0.1579  0.9545
19469TIP3   OH279821   3.465   5.398  14.884  0.9498 -0.5370 -0.4140
19469TIP3    H179822   3.429   5.401  14.796 -1.0562  0.8596  0.3887
19469TIP3    H279823   3.449   5.308  14.913  0.4830 -0.6590 -1.0245
19470TIP3   OH279824   4.289   3.017  14.239 -0.0578  0.5557 -0.5563
19470TIP3    H179825   4.384   3.001  14.240 -0.2975 -1.0830  0.2571
19470TIP3    H279826   4.276   3.089  14.300  0.5307 -0.4521  0.8387
19471TIP3   OH279827   3.096   2.817   5.233 -0.6264  0.4494 -0.2379
19471TIP3    H179828   3.040   2.816   5.311  0.7783  0.8933  0.8230
19471TIP3    H279829   3.129   2.906   5.228 -0.0966  0.2257 -0.9018
19472TIP3   OH279830   2.606   6.014   5.353  0.1151 -0.6764 -0.0047
19472TIP3    H179831   2.609   5.940   5.414  1.4855 -2.0684 -1.6434
19472TIP3    H279832   2.654   5.983   5.276  0.0687  1.6743 -1.0581
19473TIP3   OH279833   3.499   5.604  14.073  0.3810 -0.0633  0.7709
19473TIP3    H179834   3.446   5.679  14.101  1.3507  1.3394 -0.9417
19473TIP3    H279835   3.436   5.532  14.067 -0.7351  0.7720  1.7136
19474TIP3   OH279836   1.149   5.569   3.423 -0.3385 -0.7001 -0.4382
19474TIP3    H179837   1.237   5.558   3.458 -0.2153 -1.9716 -1.1024
19474TIP3    H279838   1.137   5.664   3.417  0.7965 -0.5097  0.1007
19475TIP3   OH279839   4.615   5.851  15.770 -0.3212 -0.2640 -0.3320
19475TIP3    H179840   4.611   5.939  15.809  0.1314  0.1696 -1.2401
19475TIP3    H279841   4.524   5.828  15.754 -0.6128 -0.8607  1.8256
19476TIP3   OH279842   5.630   4.047   1.050 -0.0040 -0.2550  0.2397
19476TIP3    H179843   5.630   4.033   1.145  1.3887  0.5017  0.3773
19476TIP3    H279844   5.718   4.022   1.022  0.2330  1.3005 -0.5456
19477TIP3   OH279845   4.178   1.380   0.518 -0.1195  0.0406 -0.4769
19477TIP3    H179846   4.090   1.350   0.496  0.1316 -0.9177 -0.2324
19477TIP3    H279847   4.211   1.314   0.580  0.8672  0.2345 -0.7740
19478TIP3   OH279848   2.944   5.367   4.272  0.3541 -0.0767 -0.6633
19478TIP3    H179849   2.915   5.280   4.243  1.4174 -0.1707 -1.5134
19478TIP3    H279850   2.937   5.363   4.368 -0.5203 -0.7586 -0.7345
19479TIP3   OH279851   1.457   6.143   4.964  0.7828 -0.2672 -0.0247
19479TIP3    H179852   1.364   6.153   4.945  0.6076 -0.6969  0.5838
19479TIP3    H279853   1.501   6.188   4.892  0.1088 -0.2284 -0.4197
19480TIP3   OH279854   5.581   6.755  17.113 -0.1610  0.4131  0.1326
19480TIP3    H179855   5.657   6.697  17.122 -0.1878  0.7688  5.3591
19480TIP3    H279856   5.506   6.695  17.105  0.2698 -0.0473 -0.5725
19481TIP3   OH279857   4.087   2.408   2.255  0.3554 -0.0887 -0.2122
19481TIP3    H179858   4.101   2.474   2.324 -0.4381 -0.9822  0.8479
19481TIP3    H279859   4.019   2.351   2.291 -3.0625  1.6076 -3.3200
19482TIP3   OH279860   4.175   3.435  11.685  0.2615  0.2123 -0.7482
19482TIP3    H179861   4.117   3.426  11.610  0.8941  0.1358 -1.2340
19482TIP3    H279862   4.201   3.527  11.685  2.1341 -0.2543 -2.0579
19483TIP3   OH279863   0.268   4.803   2.105  0.3789 -0.1874  0.3380
19483TIP3    H179864   0.184   4.759   2.117 -0.1650  1.0187  1.0766
19483TIP3    H279865   0.250   4.871   2.039  0.5617  0.6072  1.0984
19484TIP3   OH279866   4.681   0.208   0.715 -0.0671  0.1055  0.1742
19484TIP3    H179867   4.730   0.158   0.781 -0.3678  1.4594  1.4853
19484TIP3    H279868   4.688   0.156   0.635  0.3566 -1.5781  1.2552
19485TIP3   OH279869   2.732   6.622   4.178  0.2630  0.7955 -0.1988
19485TIP3    H179870   2.647   6.586   4.151  1.5720 -2.3673 -0.5112
19485TIP3    H279871   2.731   6.615   4.274  0.9601 -1.4691 -0.2970
19486TIP3   OH279872   2.132   2.234  16.340  0.0400 -0.0963 -0.1371
19486TIP3    H179873   2.218   2.273  16.347 -0.6796  1.5328 -0.0530
19486TIP3    H279874   2.139   2.152  16.389  1.9897 -0.8490 -1.5412
19487TIP3   OH279875   6.561   3.262   2.140 -0.2587 -0.1455 -0.3114
19487TIP3    H179876   6.472   3.240   2.113  0.1427 -1.3880 -0.7293
19487TIP3    H279877   6.591   3.183   2.186  0.9221 -0.0945 -0.9589
19488TIP3   OH279878   6.585   0.473   4.847  0.0676  0.7365 -0.1067
19488TIP3    H179879   6.512   0.412   4.846 -0.2636  1.0928  0.8510
19488TIP3    H279880   6.662   0.420   4.825 -0.2586  0.0408  0.4023
19489TIP3   OH279881   1.698   3.023   5.451  0.1724  0.3802  0.2200
19489TIP3    H179882   1.612   3.012   5.490  0.2934  0.8604  0.6320
19489TIP3    H279883   1.717   2.938   5.411 -1.7942  1.0987 -2.5395
19490TIP3   OH279884   6.536   0.872   1.482 -0.3200  0.3315  0.1035
19490TIP3    H179885   6.590   0.836   1.552 -0.0388 -0.1196 -0.3353
19490TIP3    H279886   6.479   0.935   1.525  1.2255  1.5637  0.4514
19491TIP3   OH279887   5.766   3.507  15.130  0.4759 -0.4469  0.1412
19491TIP3    H179888   5.834   3.439  15.130  1.7444  0.7867  0.6034
19491TIP3    H279889   5.806   3.581  15.174 -0.5915  0.8964 -1.0522
19492TIP3   OH279890   3.328   6.065  14.631  0.5174  0.1530  0.3458
19492TIP3    H179891   3.370   6.105  14.708  1.2259 -0.7146  0.4250
19492TIP3    H279892   3.235   6.063  14.653  0.5101  1.3678  0.5065
19493TIP3   OH279893   4.347   2.486   4.543  0.4296  0.4177 -0.0934
19493TIP3    H179894   4.289   2.551   4.503  0.9004  0.4743 -0.7018
19493TIP3    H279895   4.294   2.446   4.612 -0.0604  1.0299 -0.1075
19494TIP3   OH279896   4.467   6.745  16.328  0.3685  0.1403 -0.1422
19494TIP3    H179897   4.560   6.769  16.335 -0.0598  2.0791 -0.5400
19494TIP3    H279898   4.445   6.759  16.236 -0.9062  2.2310  0.4186
19495TIP3   OH279899   0.429   0.946  13.037 -0.1642  0.3785  0.3736
19495TIP3    H179900   0.336   0.952  13.014  0.5736  1.2686 -2.8038
19495TIP3    H279901   0.437   0.861  13.081 -2.3582 -0.0075  0.1506
19496TIP3   OH279902   3.669   1.207  14.937  0.0215  0.0456 -0.2788
19496TIP3    H179903   3.600   1.265  14.905 -1.2009 -0.4186  1.3787
19496TIP3    H279904   3.675   1.226  15.030  2.6196  0.5136 -0.4600
19497TIP3   OH279905   3.436   6.534   3.146  0.7967  0.0900 -0.2307
19497TIP3    H179906   3.503   6.595   3.176 -0.1697  0.7809  0.5962
19497TIP3    H279907   3.469   6.447   3.171  0.9073  0.5013  1.1147
19498TIP3   OH279908   0.006   0.095  14.543  0.1411 -0.0995  0.1952
19498TIP3    H179909  -0.076   0.069  14.585 -1.3562  1.2456 -1.6929
19498TIP3    H279910   0.018   0.033  14.472  0.1172  0.3877 -0.2429
19499TIP3   OH279911   1.164   1.531  11.498 -0.0333  0.3265 -0.1028
19499TIP3    H179912   1.134   1.622  11.501 -1.0837 -0.0205  1.2106
19499TIP3    H279913   1.203   1.521  11.412 -2.3255  1.2863 -1.3324
19500TIP3   OH279914   1.103   2.795  14.966 -0.2735  0.2832 -0.5594
19500TIP3    H179915   1.136   2.714  15.005  0.1206 -0.3434 -2.0876
19500TIP3    H279916   1.115   2.861  15.034 -0.9135 -0.9821  0.8504
19501TIP3   OH279917   3.211   4.267   0.436  0.2987 -0.1547 -0.0502
19501TIP3    H179918   3.227   4.361   0.427 -0.4648  0.0647  0.7278
19501TIP3    H279919   3.223   4.250   0.529  0.7880 -0.9029 -0.2501
19502TIP3   OH279920   2.848   6.296   0.837 -0.0397 -0.0563  0.0570
19502TIP3    H179921   2.808   6.209   0.837 -1.5321  0.5933  0.9045
19502TIP3    H279922   2.803   6.343   0.907 -0.7971  2.0669 -1.7393
19503TIP3   OH279923   2.697   2.299   1.627 -0.3777  0.3005  0.0113
19503TIP3    H179924   2.774   2.349   1.601 -0.9354  0.9433 -0.4410
19503TIP3    H279925   2.654   2.276   1.544 -0.1954 -0.8317  0.2188
19504TIP3   OH279926   1.647   2.684  10.560 -0.6677  0.3681  0.4858
19504TIP3    H179927   1.685   2.772  10.556 -0.9895  0.4699 -0.5819
19504TIP3    H279928   1.718   2.626  10.534 -0.3718  0.2629  1.4595
19505TIP3   OH279929   4.507   4.924   1.265 -0.3581  0.3624  0.5964
19505TIP3    H179930   4.518   4.846   1.210 -1.2282 -0.3895  1.4542
19505TIP3    H279931   4.511   4.997   1.203 -0.2116 -0.3922 -0.3225
19506TIP3   OH279932   0.139   2.931  15.434  0.9288  0.5671 -0.0277
19506TIP3    H179933   0.192   3.006  15.408 -0.4612  1.2321 -1.0645
19506TIP3    H279934   0.052   2.967  15.451  0.2335 -0.7886 -0.5015
19507TIP3   OH279935   6.388   2.289   0.701  0.5451  0.0921 -0.8824
19507TIP3    H179936   6.321   2.351   0.671 -1.8987 -0.8634  2.0758
19507TIP3    H279937   6.468   2.341   0.705 -0.3632  1.7863 -2.8940
19508TIP3   OH279938   5.282   3.558   2.437 -1.2826 -0.4865  0.1767
19508TIP3    H179939   5.339   3.617   2.485  1.2302 -2.1543 -0.5492
19508TIP3    H279940   5.201   3.556   2.487 -0.4733  1.4714  1.6520
19509TIP3   OH279941   0.253   0.423  15.337 -0.2447 -0.4110  0.2374
19509TIP3    H179942   0.316   0.361  15.301  0.0407  0.8158 -1.5156
19509TIP3    H279943   0.232   0.481  15.263 -0.5596  1.5040  1.7451
19510TIP3   OH279944   3.658   4.781  11.274 -0.6228 -0.5075 -0.1167
19510TIP3    H179945   3.574   4.821  11.295 -0.6537  0.2994 -1.6783
19510TIP3    H279946   3.646   4.744  11.187  0.0060 -2.2747  0.4968
19511TIP3   OH279947   3.811   0.664   0.738  0.0555  0.0934 -0.1508
19511TIP3    H179948   3.804   0.757   0.759  0.4432  1.3657 -4.5619
19511TIP3    H279949   3.722   0.630   0.749 -0.0007  0.7648  1.9493
19512TIP3   OH279950   2.034   3.618  10.904  0.1800  0.2687 -0.0180
19512TIP3    H179951   2.127   3.603  10.885  0.0177 -0.6322 -0.1326
19512TIP3    H279952   1.988   3.591  10.825 -0.2516 -0.2542  0.4044
19513TIP3   OH279953   0.021   5.654   4.736  0.0356  0.1865  0.5249
19513TIP3    H179954   0.047   5.598   4.662 -1.6462 -0.0210  0.0593
19513TIP3    H279955   0.027   5.596   4.812  2.1854  0.5119  0.6725
19514TIP3   OH279956   4.598   4.627   2.821  0.3192 -0.1585  0.5629
19514TIP3    H179957   4.522   4.576   2.792  0.7953 -0.8984  0.5792
19514TIP3    H279958   4.652   4.637   2.743 -0.3597  1.4294  0.2630
19515TIP3   OH279959   5.952   1.761  13.308  0.1893 -0.1373  0.1547
19515TIP3    H179960   5.937   1.667  13.294  1.9537 -0.4499  0.1699
19515TIP3    H279961   6.026   1.783  13.252 -0.2815  1.2896  0.0559
19516TIP3   OH279962   4.553   3.031  13.209 -0.0842  0.2659 -0.3206
19516TIP3    H179963   4.617   2.960  13.208 -0.5181 -0.1479  0.3605
19516TIP3    H279964   4.587   3.095  13.147  0.9371  0.0090 -0.0437
19517TIP3   OH279965   5.186   1.401   3.674  0.7988  0.1824  0.4812
19517TIP3    H179966   5.142   1.343   3.613 -0.2591  0.3241  1.0803
19517TIP3    H279967   5.171   1.362   3.760  1.0809  0.7228  0.7851
19518TIP3   OH279968   2.202   5.780   1.029  0.0106 -0.9692  0.1808
19518TIP3    H179969   2.141   5.848   1.058  1.4016  1.6465 -2.5203
19518TIP3    H279970   2.270   5.779   1.095 -0.9058 -1.0336  1.1510
19519TIP3   OH279971   2.897   1.505  10.678 -0.6700  0.3830  0.2595
19519TIP3    H179972   2.947   1.511  10.597  0.2901  1.2535  0.8876
19519TIP3    H279973   2.863   1.416  10.679 -0.3376  0.2344 -0.8943
19520TIP3   OH279974   3.064   4.261  15.650 -0.1477  0.2712  0.3746
19520TIP3    H179975   3.021   4.345  15.634 -0.6948  0.5931  3.0427
19520TIP3    H279976   3.151   4.285  15.683 -0.5161 -0.1430  1.7130
19521TIP3   OH279977   3.317   1.659  15.442 -0.0751 -0.0548  0.0990
19521TIP3    H179978   3.387   1.722  15.457 -0.3349  0.0554  0.9134
19521TIP3    H279979   3.251   1.679  15.509 -1.7640  1.0627 -1.7851
19522TIP3   OH279980   4.435   3.779   4.943 -0.2688 -0.3012 -0.3381
19522TIP3    H179981   4.469   3.762   5.031  0.5872  0.6290 -0.4629
19522TIP3    H279982   4.510   3.817   4.896 -0.6093 -1.1134 -1.5743
19523TIP3   OH279983   6.695   1.171   4.659 -0.5578 -0.1495 -0.4693
19523TIP3    H179984   6.784   1.159   4.691 -0.6398 -2.3760 -0.8750
19523TIP3    H279985   6.651   1.223   4.727  0.2172 -1.7078  1.3197
19524TIP3   OH279986   5.430   3.599  12.262 -0.2956 -0.2112 -0.3113
19524TIP3    H179987   5.354   3.626  12.210 -0.1255  0.9166  0.0025
19524TIP3    H279988   5.465   3.681  12.297  0.6896 -0.7851  0.0694
19525TIP3   OH279989   4.045   6.019  10.524  0.0798 -0.5190  0.0339
19525TIP3    H179990   4.140   6.005  10.522  0.0838 -0.4612 -0.1611
19525TIP3    H279991   4.034   6.097  10.578  0.0591 -1.2250  1.0975
19526TIP3   OH279992   5.108   4.259   2.621  0.5469 -0.2212 -0.4869
19526TIP3    H179993   5.132   4.174   2.660  1.5575  0.0429 -0.4942
19526TIP3    H279994   5.040   4.293   2.679  2.2645  0.3274  1.3194
19527TIP3   OH279995   2.510   5.237  11.759 -0.4044 -0.6712 -0.1631
19527TIP3    H179996   2.458   5.244  11.840  1.7869  0.0825  1.2819
19527TIP3    H279997   2.593   5.199  11.788  0.7428  0.3619 -1.9287
19528TIP3   OH279998   6.724   1.981   2.970 -0.7685 -0.5609 -0.0120
19528TIP3    H179999   6.688   1.970   2.882 -0.5503  0.1027 -0.1956
19528TIP3    H280000   6.688   2.065   2.999  0.6150  0.1295 -0.2048
19529TIP3   OH280001   4.045   3.754  12.802 -0.3859  0.1291 -0.0979
19529TIP3    H180002   3.967   3.809  12.810 -0.6547 -0.0803 -1.1866
19529TIP3    H280003   4.110   3.796  12.858 -1.6021 -0.2950  1.7244
19530TIP3   OH280004   6.103   4.499   6.060 -0.0027  0.3451 -0.3379
19530TIP3    H180005   6.020   4.544   6.043 -0.2873 -0.0398  0.0464
19530TIP3    H280006   6.109   4.493   6.155  1.6332  2.5631 -0.2026
19531TIP3   OH280007   0.234   4.597  17.111  0.0715  0.3249 -0.2477
19531TIP3    H180008   0.226   4.692  17.124  0.5916  0.7119 -2.4224
19531TIP3    H280009   0.175   4.559  17.176  1.3762  2.0285  2.0952
19532TIP3   OH280010   6.307   1.874   4.367  0.2404 -0.0209 -0.5268
19532TIP3    H180011   6.291   1.796   4.420 -0.4414 -0.1992 -0.9794
19532TIP3    H280012   6.382   1.851   4.313  0.4958 -0.0953 -0.1442
19533TIP3   OH280013   6.426   1.015   5.353 -0.1638  0.1550  0.1990
19533TIP3    H180014   6.499   1.044   5.298 -0.1315 -1.4738 -0.6581
19533TIP3    H280015   6.348   1.034   5.302 -0.2093 -0.1752  0.1457
19534TIP3   OH280016   0.765   3.309   4.385 -0.1542 -0.1365  0.2379
19534TIP3    H180017   0.745   3.325   4.293  0.2913 -1.0255 -0.0347
19534TIP3    H280018   0.682   3.283   4.424 -0.0530 -1.3536 -0.3062
19535TIP3   OH280019   4.741   4.786  14.513 -0.5721  0.3041 -0.3584
19535TIP3    H180020   4.677   4.801  14.444 -2.1665  0.9229  1.1893
19535TIP3    H280021   4.717   4.849  14.581  0.2729 -1.0256  1.2123
19536TIP3   OH280022   5.658   5.198  14.935 -0.1552  0.0065 -0.2829
19536TIP3    H180023   5.754   5.200  14.927 -0.0078  1.2466  1.4713
19536TIP3    H280024   5.639   5.109  14.966  0.5970  0.2905  1.0469
19537TIP3   OH280025   5.257   1.441   4.449 -1.0762 -0.0693  0.3584
19537TIP3    H180026   5.331   1.389   4.418 -1.7217  0.6031 -2.6168
19537TIP3    H280027   5.280   1.531   4.427 -2.2404  0.2788  0.5124
19538TIP3   OH280028   0.741   1.464   4.354  0.2425  0.4527  0.1416
19538TIP3    H180029   0.680   1.428   4.289  1.1645  0.5684 -0.8181
19538TIP3    H280030   0.694   1.458   4.437 -0.8350 -0.0261 -0.4818
19539TIP3   OH280031   1.321   2.232   3.594 -0.0852  0.2220  0.3488
19539TIP3    H180032   1.308   2.206   3.503 -1.4296 -1.9361  1.0792
19539TIP3    H280033   1.382   2.305   3.590 -2.4125  2.2621 -2.5082
19540TIP3   OH280034   2.941   0.474  15.288  0.1542 -0.4093 -0.2275
19540TIP3    H180035   2.877   0.465  15.218 -0.4640 -1.5792  0.4654
19540TIP3    H280036   2.989   0.391  15.287  2.5140  0.8593 -1.5079
19541TIP3   OH280037   1.293   6.417   2.098 -0.1696 -0.9073  0.1189
19541TIP3    H180038   1.307   6.402   2.005  0.7597  1.4089 -0.1764
19541TIP3    H280039   1.308   6.331   2.138  0.1104 -1.7974 -1.7712
19542TIP3   OH280040   4.271   0.837   1.522 -0.8125 -0.0265 -0.2818
19542TIP3    H180041   4.257   0.866   1.612 -4.1435 -1.2444 -0.2785
19542TIP3    H280042   4.362   0.807   1.520 -0.0272  1.9026  2.0684
19543TIP3   OH280043   0.711   4.887  12.989  0.0449 -0.0565 -0.2811
19543TIP3    H180044   0.698   4.940  12.911 -2.7687 -0.2672 -0.0526
19543TIP3    H280045   0.666   4.805  12.970 -0.6669 -0.1233  1.4937
19544TIP3   OH280046   2.194   4.093  16.910  0.2616  0.5684  0.2766
19544TIP3    H180047   2.248   4.024  16.949  0.6339 -0.9718 -2.7253
19544TIP3    H280048   2.251   4.135  16.846 -0.8668  1.7353 -0.0068
19545TIP3   OH280049   5.418   1.999  17.000 -0.7177 -0.1375 -0.5874
19545TIP3    H180050   5.486   1.933  16.989 -0.8261 -0.4827  0.7236
19545TIP3    H280051   5.465   2.080  17.021 -0.7198 -0.4898  0.8265
19546TIP3   OH280052   4.903   3.769   0.507  0.9654  0.3354  0.1094
19546TIP3    H180053   4.970   3.730   0.563  1.2410  0.4074 -0.1657
19546TIP3    H280054   4.827   3.780   0.564  1.1625  0.1822  0.4041
19547TIP3   OH280055   5.709   4.207  16.999 -0.7643  0.1398 -0.3966
19547TIP3    H180056   5.780   4.143  16.995 -0.8585 -0.1182  1.1144
19547TIP3    H280057   5.692   4.230  16.908 -0.3951 -1.6341 -0.9684
19548TIP3   OH280058   3.289   1.778  11.455  0.0993 -0.1240  0.4942
19548TIP3    H180059   3.276   1.689  11.423  0.7474 -0.2066  0.4492
19548TIP3    H280060   3.331   1.825  11.383  0.1370  0.1073  0.6621
19549TIP3   OH280061   4.466   5.371   5.806  0.0221  0.0639  0.6894
19549TIP3    H180062   4.544   5.408   5.849  0.0927 -0.9095  1.4279
19549TIP3    H280063   4.393   5.417   5.847  0.1678  0.4055  0.5742
19550TIP3   OH280064   1.516   5.014   3.345 -0.1882 -0.0606 -0.2361
19550TIP3    H180065   1.446   4.950   3.333  0.8946 -1.1801 -0.9421
19550TIP3    H280066   1.561   4.985   3.425 -1.5112  1.6628  1.2122
19551TIP3   OH280067   0.700   2.569   4.981  0.1977  0.6528 -0.1706
19551TIP3    H180068   0.745   2.555   5.065  1.3743  0.6958 -0.7719
19551TIP3    H280069   0.650   2.650   4.995 -0.9342 -0.2046  1.0015
19552TIP3   OH280070   1.278   5.224  16.664 -0.2395  0.1772  0.0683
19552TIP3    H180071   1.190   5.262  16.667 -0.1150  0.4628  2.4529
19552TIP3    H280072   1.287   5.181  16.749  1.5913 -0.6326 -0.5125
19553TIP3   OH280073   6.668   6.713  16.042  0.2835  0.3064  0.1990
19553TIP3    H180074   6.688   6.790  15.987 -0.9789  1.0076  0.6630
19553TIP3    H280075   6.589   6.739  16.090  0.4498 -0.9033  1.1595
19554TIP3   OH280076   5.202   2.540   5.052  0.0692 -0.1646  0.3788
19554TIP3    H180077   5.117   2.496   5.043  0.9763 -2.2183  1.2086
19554TIP3    H280078   5.263   2.469   5.071  1.9962  1.2660 -0.2331
19555TIP3   OH280079   2.392   4.772   2.789 -0.6260  0.0895  0.2082
19555TIP3    H180080   2.423   4.791   2.878  2.5261 -0.9525 -0.5501
19555TIP3    H280081   2.363   4.681   2.792 -4.0519  1.0644  0.9198
19556TIP3   OH280082   3.958   5.152  12.629 -0.1580 -0.0718 -0.4287
19556TIP3    H180083   4.016   5.085  12.667  0.1794  0.2766 -0.3186
19556TIP3    H280084   4.016   5.207  12.577 -0.4616  0.0387 -0.6518
19557TIP3   OH280085   0.580   5.628   4.613  0.6183 -0.1506  0.2650
19557TIP3    H180086   0.593   5.709   4.564  0.4372  0.0313  0.5171
19557TIP3    H280087   0.556   5.564   4.546  1.1181 -0.0870  0.0186
19558TIP3   OH280088   6.135   0.350  17.013 -0.3462 -0.4142 -0.2456
19558TIP3    H180089   6.158   0.260  17.034 -0.0841 -0.0303  1.1792
19558TIP3    H280090   6.135   0.353  16.917 -0.6270 -1.9861 -0.3173
19559TIP3   OH280091   1.411   3.683  14.484  0.2351 -0.4192 -0.0699
19559TIP3    H180092   1.347   3.748  14.454  0.2536 -1.0241 -1.5055
19559TIP3    H280093   1.496   3.722  14.462  0.4125  0.3848  1.8349
19560TIP3   OH280094   5.647   6.518   1.146 -0.3785  0.0706  0.0772
19560TIP3    H180095   5.698   6.518   1.227 -0.5047 -0.1224  0.1568
19560TIP3    H280096   5.578   6.582   1.162 -1.0297 -0.7231  0.5221
19561TIP3   OH280097   2.737   1.956   3.335 -0.0183 -0.0552  0.0461
19561TIP3    H180098   2.699   2.036   3.299 -0.3383 -0.5140 -0.6672
19561TIP3    H280099   2.701   1.950   3.424 -0.1632  0.4699  0.0257
19562TIP3   OH280100   2.259   4.952   4.870  0.2490 -0.4231 -0.4991
19562TIP3    H180101   2.327   4.965   4.936 -0.1473 -0.3060 -0.1035
19562TIP3    H280102   2.245   5.039   4.833  2.1756 -0.8713 -2.4862
19563TIP3   OH280103   3.751   2.318   2.959 -0.4495 -0.5531  0.0729
19563TIP3    H180104   3.663   2.356   2.951 -1.1107 -1.9819  0.1348
19563TIP3    H280105   3.756   2.287   3.049 -0.0489 -0.8759 -0.0581
19564TIP3   OH280106   0.366   4.970  16.160  0.0725 -0.4367  0.3127
19564TIP3    H180107   0.448   4.957  16.113 -0.6805 -0.9863 -0.8993
19564TIP3    H280108   0.299   4.967  16.092 -0.9891 -0.3989  1.3296
19565TIP3   OH280109   2.443   2.445   1.393 -0.1051  0.2739 -0.1939
19565TIP3    H180110   2.362   2.436   1.444 -0.6357  2.2048 -0.6108
19565TIP3    H280111   2.481   2.528   1.424  2.4100 -1.1673  0.8841
19566TIP3   OH280112   2.429   5.741  11.870 -0.5377 -0.1746 -0.4140
19566TIP3    H180113   2.478   5.718  11.790 -0.6837 -0.2466 -0.4844
19566TIP3    H280114   2.363   5.805  11.840 -1.1049 -0.7859 -0.5069
19567TIP3   OH280115   6.439   0.330   3.647  0.6378  0.4746 -0.1304
19567TIP3    H180116   6.455   0.238   3.668 -0.9898  0.0014 -0.8366
19567TIP3    H280117   6.398   0.366   3.725  1.2193  0.6066  0.1234
19568TIP3   OH280118   5.161   2.020   5.350 -0.1191 -0.9187 -0.2899
19568TIP3    H180119   5.237   1.970   5.318  0.8398 -1.8822  3.1256
19568TIP3    H280120   5.186   2.048   5.438 -2.6322  1.3511 -0.1811
19569TIP3   OH280121   4.146   0.183  15.973  0.1196 -0.1936 -0.2334
19569TIP3    H180122   4.073   0.194  15.913  0.2604 -0.9393 -0.5555
19569TIP3    H280123   4.170   0.272  16.000 -0.1951  0.1170 -0.9760
19570TIP3   OH280124   2.083   3.491   4.526 -0.2307  0.6861 -0.2661
19570TIP3    H180125   2.151   3.424   4.532  1.6971  2.3571 -1.8137
19570TIP3    H280126   2.025   3.460   4.456 -0.7787 -0.4915  0.6838
19571TIP3   OH280127   4.728   6.227  16.612 -0.3417 -0.7847  0.2689
19571TIP3    H180128   4.784   6.194  16.542 -0.7303 -0.5330 -0.1685
19571TIP3    H280129   4.704   6.316  16.584 -0.7291 -0.7855  0.5875
19572TIP3   OH280130   1.996   1.510  16.991  0.5349 -0.4445 -0.3350
19572TIP3    H180131   1.901   1.521  16.988  0.6343  0.5995  0.1076
19572TIP3    H280132   2.008   1.426  17.035 -0.1797 -0.4266 -0.0891
19573TIP3   OH280133   2.880   4.695   4.389  0.0916  0.5209  0.0008
19573TIP3    H180134   2.835   4.772   4.354  0.0816  0.2397 -0.6263
19573TIP3    H280135   2.811   4.642   4.428  0.3312  1.7615  2.2962
19574TIP3   OH280136   0.015   5.309  16.636 -0.4221 -0.4081 -0.3233
19574TIP3    H180137  -0.059   5.257  16.604  0.6580 -1.3641 -1.3470
19574TIP3    H280138   0.092   5.259  16.611  0.5805  0.2833  1.2279
19575TIP3   OH280139   2.212   0.248  13.994  0.8175 -0.3582  0.3269
19575TIP3    H180140   2.126   0.217  13.965  0.7439 -1.1287  1.3261
19575TIP3    H280141   2.227   0.328  13.943 -0.7288  0.0818  0.4962
19576TIP3   OH280142   2.844   3.138   0.885  0.1832  0.0884 -0.1888
19576TIP3    H180143   2.852   3.151   0.980  0.6858 -0.0464 -0.2107
19576TIP3    H280144   2.774   3.073   0.876 -0.1011  0.3551  0.0711
19577TIP3   OH280145   4.788   2.244  16.912  0.0924 -0.4423 -0.4754
19577TIP3    H180146   4.858   2.309  16.918 -0.0758 -0.1413 -1.5589
19577TIP3    H280147   4.832   2.163  16.886  0.1471 -0.4488 -0.3602
19578TIP3   OH280148   0.733   5.923   2.390 -0.3378 -0.0119 -0.3210
19578TIP3    H180149   0.794   5.991   2.418  0.2160  0.2275 -2.0164
19578TIP3    H280150   0.738   5.856   2.459  1.1565  0.4151  0.0075
19579TIP3   OH280151   2.417   1.816  16.858 -0.4551  0.1240  0.4793
19579TIP3    H180152   2.464   1.736  16.882 -0.3951  0.8773  3.2014
19579TIP3    H280153   2.478   1.887  16.879 -1.0546  0.9492 -0.4690
19580TIP3   OH280154   5.306   6.251  14.488 -0.5896 -0.6207 -0.1824
19580TIP3    H180155   5.375   6.186  14.502 -1.5049 -1.5635  0.0367
19580TIP3    H280156   5.352   6.326  14.448  0.4988 -1.3485 -0.3464
19581TIP3   OH280157   5.700   5.819   4.932 -0.9772  0.3857 -0.0405
19581TIP3    H180158   5.716   5.902   4.978 -1.3534  1.3585 -1.5927
19581TIP3    H280159   5.764   5.818   4.861  0.1460 -1.4897  0.9358
19582TIP3   OH280160   4.296   2.785   3.664 -0.5592  1.3821 -0.1530
19582TIP3    H180161   4.354   2.710   3.666 -1.4898  0.6446 -0.1025
19582TIP3    H280162   4.344   2.855   3.707 -0.9202 -0.0972  2.8495
19583TIP3   OH280163   1.149   4.262  11.343  0.2414  0.5327 -0.0687
19583TIP3    H180164   1.161   4.353  11.370  1.0373  0.4714 -0.2035
19583TIP3    H280165   1.236   4.232  11.318 -0.1565  0.0007 -0.8859
19584TIP3   OH280166   4.903   0.559  10.308  0.0478  0.2069  0.3072
19584TIP3    H180167   4.890   0.643  10.351  0.9793  0.4978  0.0406
19584TIP3    H280168   4.984   0.569  10.257  0.6238 -1.1085  0.9012
19585TIP3   OH280169   3.780   5.723  13.375  0.0213  0.1692 -0.1026
19585TIP3    H180170   3.869   5.701  13.346 -0.3051 -0.9628 -0.2916
19585TIP3    H280171   3.724   5.660  13.330 -0.8969  0.9325 -0.0530
19586TIP3   OH280172   2.337   5.738   0.609  0.1328 -0.7113 -0.0624
19586TIP3    H180173   2.277   5.717   0.537  1.7740  0.7622 -2.0171
19586TIP3    H280174   2.410   5.677   0.599 -0.1333 -1.2389  1.0891
19587TIP3   OH280175   3.887   1.099   3.765 -0.4707 -0.2674  0.0959
19587TIP3    H180176   3.891   1.017   3.814  0.4913 -2.1226 -2.8260
19587TIP3    H280177   3.964   1.148   3.794  0.9212 -1.9834 -0.5199
19588TIP3   OH280178   4.993   4.088  15.999  0.1571 -0.1990 -0.1988
19588TIP3    H180179   4.921   4.093  15.936 -0.7899  0.3753  0.8838
19588TIP3    H280180   4.965   4.144  16.071  0.5566 -1.8828  1.3522
19589TIP3   OH280181   3.357   2.314   4.593 -0.0642 -0.1275 -0.4247
19589TIP3    H180182   3.370   2.243   4.656  0.2544 -1.0139 -1.4691
19589TIP3    H280183   3.393   2.392   4.637  1.2168 -0.9502  0.0204
19590TIP3   OH280184   0.523   6.782  11.056  0.0615 -0.0716 -0.6966
19590TIP3    H180185   0.504   6.875  11.063 -0.9358 -0.1271 -2.3184
19590TIP3    H280186   0.612   6.778  11.021  0.8094  0.2225  1.0692
19591TIP3   OH280187   0.352   1.904  16.686  0.0595 -0.3212 -0.1658
19591TIP3    H180188   0.371   1.950  16.768  0.1926  0.6111 -0.7073
19591TIP3    H280189   0.258   1.915  16.673  0.3052  1.0196 -0.9947
19592TIP3   OH280190   1.868   5.773  14.141 -0.1552 -0.4742  0.3636
19592TIP3    H180191   1.820   5.708  14.090  0.9686 -0.0597 -1.2910
19592TIP3    H280192   1.898   5.724  14.218 -0.7503 -1.4791 -0.0203
19593TIP3   OH280193   0.800   3.902  13.679 -0.1620 -0.0387  0.1900
19593TIP3    H180194   0.855   3.868  13.750 -1.1151 -0.9311  0.5396
19593TIP3    H280195   0.719   3.929  13.723 -0.6409 -0.3075 -0.5037
19594TIP3   OH280196   2.713   2.912   6.261  0.7625 -0.6708 -0.4310
19594TIP3    H180197   2.706   2.869   6.346 -0.5886  0.9485  0.3320
19594TIP3    H280198   2.631   2.960   6.251  1.0441 -0.5093 -2.4911
19595TIP3   OH280199   3.144   5.726   0.708 -0.0740  0.0857 -0.3372
19595TIP3    H180200   3.099   5.795   0.659  1.1454  0.0622 -1.5427
19595TIP3    H280201   3.229   5.718   0.666  1.1814  0.2869  1.9933
19596TIP3   OH280202   0.636   2.882   2.554 -0.1135  0.3666 -0.0464
19596TIP3    H180203   0.587   2.801   2.541  0.9025 -0.1591 -0.6785
19596TIP3    H280204   0.668   2.876   2.644 -1.8052  1.0633  0.6365
19597TIP3   OH280205   6.596   3.300  14.217 -0.4190 -0.6630 -0.4338
19597TIP3    H180206   6.614   3.300  14.123  3.1962 -0.7915  0.1188
19597TIP3    H280207   6.625   3.214  14.247 -0.8266 -0.3511  0.9211
19598TIP3   OH280208   5.096   1.545   1.199  0.0205  0.3386 -0.1800
19598TIP3    H180209   5.010   1.520   1.166  0.5571 -2.3814  0.2616
19598TIP3    H280210   5.083   1.561   1.292  0.2674 -2.1863  0.3673
19599TIP3   OH280211   3.073   2.126  10.773  0.1119 -0.4072 -0.0723
19599TIP3    H180212   3.047   2.205  10.821 -1.6268 -1.1985  0.3878
19599TIP3    H280213   3.157   2.147  10.734  0.0247  1.4099  0.6570
19600TIP3   OH280214   4.286   3.221  14.408 -0.0394  0.3519 -0.4985
19600TIP3    H180215   4.209   3.273  14.428  0.1673 -0.6099  3.8111
19600TIP3    H280216   4.358   3.284  14.409 -0.2088  0.5526  0.9053
19601TIP3   OH280217   2.533   6.588  15.521 -0.0550 -0.2184  0.3327
19601TIP3    H180218   2.463   6.546  15.571 -2.0670  0.9171 -1.3599
19601TIP3    H280219   2.577   6.644  15.584 -2.0822  0.6798  1.0271
19602TIP3   OH280220   6.365   1.037  13.637 -0.1689  0.2381 -0.5699
19602TIP3    H180221   6.413   1.120  13.640 -1.6629  1.1164  1.8668
19602TIP3    H280222   6.433   0.970  13.641  0.9920  1.3759 -0.4730
19603TIP3   OH280223   4.168   5.083   2.935  0.0562  0.2492  0.0208
19603TIP3    H180224   4.212   5.164   2.959  0.6751  0.2674 -1.1163
19603TIP3    H280225   4.217   5.015   2.981  0.2828  0.4106  0.0197
19604TIP3   OH280226   5.211   3.481  11.325 -0.0185  0.2943  0.0990
19604TIP3    H180227   5.242   3.507  11.238 -2.9560  0.6322 -0.9475
19604TIP3    H280228   5.231   3.556  11.381 -0.9004  1.4050 -1.0276
19605TIP3   OH280229   3.708   2.567  10.870 -0.2318  0.4625 -0.6358
19605TIP3    H180230   3.698   2.531  10.782 -0.3294 -0.0092 -0.4337
19605TIP3    H280231   3.687   2.495  10.928 -0.8122  0.9537 -0.2220
19606TIP3   OH280232   5.185   0.553  11.441 -0.6714  0.3385 -0.1638
19606TIP3    H180233   5.095   0.526  11.458 -0.8134  0.9952  0.1182
19606TIP3    H280234   5.179   0.617  11.371 -0.2096 -1.3310 -1.8380
19607TIP3   OH280235   5.124   1.230   5.454  0.1051  0.4183  0.1233
19607TIP3    H180236   5.092   1.300   5.396  2.5574  1.9284  0.4185
19607TIP3    H280237   5.211   1.209   5.420 -0.2194 -1.9194  0.5980
19608TIP3   OH280238   4.552   1.560   5.131  0.2222 -0.2704 -0.4149
19608TIP3    H180239   4.632   1.516   5.103 -0.3849 -1.0652 -0.9747
19608TIP3    H280240   4.504   1.575   5.049 -0.5617 -0.5597 -0.0140
19609TIP3   OH280241   3.426   3.402   0.473  0.4633 -0.2792 -0.2102
19609TIP3    H180242   3.453   3.380   0.563 -1.0213  0.2370  0.3960
19609TIP3    H280243   3.470   3.484   0.454 -0.6296  0.5611  0.7683
19610TIP3   OH280244   3.424   3.351   6.057 -0.3832 -0.3141  0.0882
19610TIP3    H180245   3.416   3.257   6.044 -0.1747 -0.2959 -0.2057
19610TIP3    H280246   3.365   3.371   6.129  0.1318 -0.7854  0.6550
19611TIP3   OH280247   4.884   1.058  13.983  0.0320  0.0783 -0.5652
19611TIP3    H180248   4.904   0.970  13.952  0.2536 -0.1228  0.1267
19611TIP3    H280249   4.964   1.108  13.967  0.4006 -0.2031  0.2914
19612TIP3   OH280250   0.550   4.456  16.772 -0.8591 -0.0163 -0.3350
19612TIP3    H180251   0.589   4.410  16.697 -0.9625  0.2782 -0.5701
19612TIP3    H280252   0.606   4.533  16.784 -0.5763 -0.2949  0.1759
19613TIP3   OH280253   6.287   1.219  13.455  0.2025  0.0514 -0.2748
19613TIP3    H180254   6.357   1.153  13.449 -1.2414 -1.7823  1.4326
19613TIP3    H280255   6.227   1.198  13.384 -0.5835 -0.9908  0.6450
19614TIP3   OH280256   0.760   4.585  15.592  0.3525 -0.3347  0.6161
19614TIP3    H180257   0.737   4.623  15.677  1.5514 -0.3204  0.9621
19614TIP3    H280258   0.748   4.491  15.604 -0.1923 -0.2712  0.5661
19615TIP3   OH280259   5.208   5.112  17.175  0.0702  0.1444  0.1985
19615TIP3    H180260   5.121   5.135  17.208  0.8872  0.7283  2.1118
19615TIP3    H280261   5.191   5.058  17.098 -1.9802 -0.4262  0.9765
19616TIP3   OH280262   3.699   4.168   5.271  0.4571 -0.3407 -0.0453
19616TIP3    H180263   3.619   4.162   5.323  0.3776 -1.6944 -0.2792
19616TIP3    H280264   3.760   4.108   5.314  1.5921  1.1571  0.5085
19617TIP3   OH280265   3.394   1.875  14.784  0.1237 -0.0134 -0.0222
19617TIP3    H180266   3.337   1.805  14.752  0.4308 -0.1572 -0.2560
19617TIP3    H280267   3.334   1.937  14.825 -0.1299 -0.4916  0.3358
19618TIP3   OH280268   1.571   4.702   0.356 -0.4059 -0.0239 -0.3104
19618TIP3    H180269   1.501   4.763   0.334  0.1981  0.6621 -0.3595
19618TIP3    H280270   1.538   4.653   0.431 -1.0940  0.0147 -0.5864
19619TIP3   OH280271   1.979   1.364   4.738  0.2242  0.0299  0.0260
19619TIP3    H180272   1.909   1.429   4.745  0.4475  0.0619  3.0331
19619TIP3    H280273   1.978   1.317   4.821  1.8962 -1.9669 -0.9784
19620TIP3   OH280274   0.408   3.473  13.003  0.2716  0.0748  0.2867
19620TIP3    H180275   0.451   3.451  12.921  1.2736  1.4567  0.4109
19620TIP3    H280276   0.462   3.430  13.070  2.6709  3.2301  0.5890
19621TIP3   OH280277   3.779   6.285   3.689  0.4342 -0.7381  0.0000
19621TIP3    H180278   3.862   6.270   3.734  0.4381  0.7564  0.5377
19621TIP3    H280279   3.761   6.202   3.644  1.7812 -1.3643  0.5567
19622TIP3   OH280280   4.994   5.487  12.542 -0.2889 -0.2331 -0.3271
19622TIP3    H180281   5.002   5.439  12.460 -0.7635  0.5880 -0.8652
19622TIP3    H280282   5.059   5.447  12.600  0.0610 -0.8062 -1.1013
19623TIP3   OH280283   0.251   5.368   3.591  0.9393  0.1069 -0.4414
19623TIP3    H180284   0.205   5.447   3.619  1.0565  0.7431 -1.9629
19623TIP3    H280285   0.292   5.335   3.672  1.6123  2.0750  0.0997
19624TIP3   OH280286   6.354   3.188  15.489 -0.1198  0.6066  0.8333
19624TIP3    H180287   6.414   3.253  15.451  0.3880 -0.9415 -1.1663
19624TIP3    H280288   6.270   3.208  15.449 -0.0020  0.1775  0.3577
19625TIP3   OH280289   2.850   1.524  11.113  0.4225  0.8101 -0.1223
19625TIP3    H180290   2.756   1.526  11.098  0.6122 -1.1652 -2.1414
19625TIP3    H280291   2.887   1.491  11.031  2.7710  0.4102  0.9913
19626TIP3   OH280292   3.393   0.731   3.355 -0.5186  0.0808  0.4667
19626TIP3    H180293   3.452   0.706   3.284 -2.2441 -1.3471 -0.5582
19626TIP3    H280294   3.430   0.690   3.433  0.5700  0.3916  0.1389
19627TIP3   OH280295   5.962   4.751   4.052  0.2720 -0.5190 -0.4629
19627TIP3    H180296   5.957   4.825   4.112  0.0199 -1.4609  0.6972
19627TIP3    H280297   6.055   4.743   4.031  0.5222 -0.9029  0.7330
19628TIP3   OH280298   2.695   1.169  11.739  0.0711 -0.0920  0.1965
19628TIP3    H180299   2.740   1.085  11.730  1.0728  0.6814 -4.5622
19628TIP3    H280300   2.603   1.149  11.727  0.0114 -0.6961  1.4645
19629TIP3   OH280301   1.645   3.125  13.083 -0.1732 -0.0394 -0.2889
19629TIP3    H180302   1.644   3.148  12.991 -1.0777 -1.2448 -0.5961
19629TIP3    H280303   1.682   3.202  13.127  3.2782 -0.5871 -1.9333
19630TIP3   OH280304   5.904   1.921  15.084 -0.1159 -0.0554  0.2164
19630TIP3    H180305   5.887   1.953  14.995 -0.6227  0.1184  0.3733
19630TIP3    H280306   5.952   1.993  15.126  2.3372 -1.0702 -0.6436
19631TIP3   OH280307   2.574   0.484   4.815  0.1643 -0.4238  0.1857
19631TIP3    H180308   2.600   0.573   4.837 -1.6231  0.1275  0.2637
19631TIP3    H280309   2.582   0.435   4.896  0.3311 -0.1142  0.3558
19632TIP3   OH280310   2.854   2.161   2.936 -0.1184  0.0331 -0.2649
19632TIP3    H180311   2.774   2.117   2.908 -0.2126  1.4764 -2.4842
19632TIP3    H280312   2.831   2.254   2.934  0.8131  0.3620  1.8341
19633TIP3   OH280313   6.434   2.738  15.867  0.0068 -0.0185  0.1331
19633TIP3    H180314   6.359   2.798  15.865 -1.6378 -2.0019 -0.0894
19633TIP3    H280315   6.479   2.755  15.784 -0.2911  1.0446  0.1674
19634TIP3   OH280316   5.373   1.160  15.893  0.4208  0.3123 -0.2576
19634TIP3    H180317   5.396   1.153  15.986 -0.9058 -0.3891  0.0363
19634TIP3    H280318   5.395   1.074  15.857 -3.4253 -1.1704  0.4746
19635TIP3   OH280319   0.803   3.024  12.638 -0.2207 -0.1312 -0.1600
19635TIP3    H180320   0.812   2.965  12.562  3.1288 -0.5027  0.3351
19635TIP3    H280321   0.809   3.112  12.600 -4.0544  0.0297 -0.7718
19636TIP3   OH280322   3.262   3.456  12.652 -0.3260 -0.5192  0.4789
19636TIP3    H180323   3.167   3.447  12.658 -0.2335 -1.0919  1.1572
19636TIP3    H280324   3.275   3.531  12.594 -1.2166  0.6717  1.7338
19637TIP3   OH280325   0.953   4.487   5.558 -0.1754 -0.0886 -0.4778
19637TIP3    H180326   0.885   4.554   5.570 -0.3210  0.1717 -2.4588
19637TIP3    H280327   0.921   4.412   5.607 -1.6779  0.1933 -0.9628
19638TIP3   OH280328   3.799   2.954   5.507 -0.7183 -0.1018  0.1787
19638TIP3    H180329   3.823   3.039   5.543 -1.5542  0.6641 -0.9847
19638TIP3    H280330   3.777   2.901   5.583  0.6526  0.4369  0.9820
19639TIP3   OH280331   3.186   6.287   1.889  0.1162  0.1935 -0.0349
19639TIP3    H180332   3.160   6.292   1.797  1.2409  0.7989 -0.3293
19639TIP3    H280333   3.147   6.364   1.930  0.6131  0.5662 -0.2618
19640TIP3   OH280334   1.120   3.605  15.666 -0.0113 -0.1880 -0.3866
19640TIP3    H180335   1.215   3.620  15.664  0.0589 -0.3208  0.8516
19640TIP3    H280336   1.086   3.677  15.720 -0.2437 -1.6635  1.5795
19641TIP3   OH280337   6.099   5.580   3.966  0.2471  0.1652 -0.2498
19641TIP3    H180338   6.075   5.534   4.046 -0.4968 -1.1852 -1.1964
19641TIP3    H280339   6.061   5.667   3.975 -2.3729 -0.8856 -0.3471
19642TIP3   OH280340   0.726   2.864  11.295  0.1750 -0.3756  0.4294
19642TIP3    H180341   0.768   2.922  11.359  1.1990  0.7630 -1.1707
19642TIP3    H280342   0.770   2.780  11.306  1.5361  0.2634  0.1491
19643TIP3   OH280343   2.885   3.411   5.677  0.1796 -0.5795 -0.1722
19643TIP3    H180344   2.913   3.368   5.596 -0.8287 -1.9576  0.1671
19643TIP3    H280345   2.806   3.459   5.652 -0.2740 -1.2035  0.0053
19644TIP3   OH280346   0.386   2.514   1.324  0.2734 -0.2186 -0.4346
19644TIP3    H180347   0.305   2.562   1.339  0.9326  0.5763  0.8389
19644TIP3    H280348   0.372   2.429   1.366  0.7283  0.6155  1.5570
19645TIP3   OH280349   2.437   6.655   6.002  0.3011 -0.4125 -0.1758
19645TIP3    H180350   2.515   6.688   5.957  0.8793 -1.1846  0.2275
19645TIP3    H280351   2.472   6.602   6.074 -0.6016 -1.4073 -0.4555
19646TIP3   OH280352   6.045   5.556   4.269  0.0904  0.2924 -0.3092
19646TIP3    H180353   6.114   5.521   4.325 -0.4231  1.4892  1.1351
19646TIP3    H280354   5.963   5.536   4.314 -0.4599 -0.1098 -1.4388
19647TIP3   OH280355   1.112   4.639  16.946  0.8049 -0.5095 -0.0597
19647TIP3    H180356   1.118   4.723  16.900 -0.3203 -0.2054  0.3143
19647TIP3    H280357   1.200   4.602  16.941  0.9196 -0.0893 -1.7081
19648TIP3   OH280358   5.426   3.686  16.727  0.0230 -0.3188 -0.5103
19648TIP3    H180359   5.408   3.774  16.761 -0.0059 -0.4220 -0.2601
19648TIP3    H280360   5.476   3.643  16.796  0.3369 -0.3863 -0.7729
19649TIP3   OH280361   4.480   3.822   5.493  0.5820  0.0757 -0.0745
19649TIP3    H180362   4.526   3.866   5.564  0.8410  1.0605 -0.8233
19649TIP3    H280363   4.433   3.892   5.448 -0.3901 -0.6787 -0.2721
19650TIP3   OH280364   3.845   6.359   1.125  0.3085 -0.0499  0.1443
19650TIP3    H180365   3.893   6.365   1.207  0.8484 -0.6690 -0.1171
19650TIP3    H280366   3.768   6.415   1.138  0.4365 -0.0649  1.0303
19651TIP3   OH280367   5.305   4.384   1.403 -0.1102 -0.0869  0.0973
19651TIP3    H180368   5.260   4.423   1.329  0.8369  0.4879 -0.1920
19651TIP3    H280369   5.245   4.316   1.435 -0.4998 -0.3748 -1.2102
19652TIP3   OH280370   5.121   5.284  15.676 -0.2070  0.1843 -0.2267
19652TIP3    H180371   5.142   5.251  15.588 -2.3967 -1.0133 -0.3762
19652TIP3    H280372   5.182   5.238  15.734 -0.6928 -1.3391 -0.8551
19653TIP3   OH280373   0.136   0.249  15.505 -0.1994 -0.1831  0.3033
19653TIP3    H180374   0.159   0.325  15.451 -0.8313  0.5559  1.0525
19653TIP3    H280375   0.172   0.269  15.591  0.1560 -1.0196  0.3618
19654TIP3   OH280376   4.494   1.915   2.750 -0.1841 -0.2388 -0.5287
19654TIP3    H180377   4.508   1.855   2.823 -1.2270  0.1002 -0.0231
19654TIP3    H280378   4.483   1.858   2.674  0.4341 -0.6126 -0.3429
19655TIP3   OH280379   1.693   6.462  15.595  0.3175  0.0563 -0.1324
19655TIP3    H180380   1.670   6.521  15.668  0.1052  0.1892 -0.3045
19655TIP3    H280381   1.684   6.516  15.517 -1.4913 -0.6279 -0.4493
19656TIP3   OH280382   4.063   0.670   4.150  0.1084 -0.0938  0.0472
19656TIP3    H180383   4.060   0.576   4.168  1.0041 -0.1735 -0.1795
19656TIP3    H280384   4.032   0.710   4.232 -0.5148 -0.5800  0.0609
19657TIP3   OH280385   2.269   5.697  17.013  0.1515 -0.1828  0.0572
19657TIP3    H180386   2.337   5.736  17.068 -0.8612 -0.4710  1.5840
19657TIP3    H280387   2.315   5.669  16.934  2.2041 -2.0319  1.7550
19658TIP3   OH280388   3.172   2.017   4.540 -0.4159 -0.5322 -0.5277
19658TIP3    H180389   3.206   2.056   4.459 -0.7035 -0.8083 -0.7816
19658TIP3    H280390   3.202   1.926   4.537  0.1078 -0.3820 -0.0186
19659TIP3   OH280391   2.382   4.662  14.235 -0.0911  0.2893  0.0229
19659TIP3    H180392   2.396   4.753  14.209  1.9264  0.1475  0.4684
19659TIP3    H280393   2.312   4.667  14.300  1.7333  1.8913  1.9933
19660TIP3   OH280394   4.381   6.593   3.384  0.4927  0.3985 -0.2861
19660TIP3    H180395   4.341   6.545   3.312 -0.9272  0.7684  0.2240
19660TIP3    H280396   4.458   6.542   3.408 -0.0673 -0.7291 -0.8367
19661TIP3   OH280397   1.368   1.194  12.274 -0.1454 -0.2915 -0.3782
19661TIP3    H180398   1.401   1.280  12.298  0.2841 -0.6348  0.2962
19661TIP3    H280399   1.343   1.202  12.182 -0.0955  0.5449 -0.3221
19662TIP3   OH280400   4.647   6.762   1.437  0.2634  0.0870 -0.2399
19662TIP3    H180401   4.605   6.720   1.512  2.1468 -0.2894  0.6720
19662TIP3    H280402   4.626   6.705   1.363 -0.6136 -0.1970  0.2128
19663TIP3   OH280403   5.376   2.414  15.546 -0.1499 -0.0288  0.2952
19663TIP3    H180404   5.415   2.331  15.519  1.6898  1.5527 -2.5251
19663TIP3    H280405   5.430   2.444  15.618  1.1720  0.1048 -0.7172
19664TIP3   OH280406   1.007   1.995   0.655 -0.0839  0.1779  0.0591
19664TIP3    H180407   1.041   1.988   0.744  0.4211 -0.5467 -0.1763
19664TIP3    H280408   1.059   1.932   0.605 -1.0360 -0.1641 -0.5393
19665TIP3   OH280409   2.170   4.592   2.881  0.6003  0.0058  0.0733
19665TIP3    H180410   2.105   4.601   2.951 -0.1967 -3.0383 -0.1369
19665TIP3    H280411   2.248   4.558   2.925  1.0843  0.8866 -0.0970
19666TIP3   OH280412   4.927   2.612   2.438 -0.4225 -0.4943 -0.1530
19666TIP3    H180413   4.835   2.588   2.449 -0.2585 -1.0374  0.0761
19666TIP3    H280414   4.947   2.590   2.347 -0.1230 -1.7849  0.2048
19667TIP3   OH280415   0.610   4.156  16.401  0.7483  0.1151 -0.3371
19667TIP3    H180416   0.516   4.147  16.420  0.5913  2.0249 -0.0073
19667TIP3    H280417   0.621   4.110  16.318 -0.6130  0.4124 -0.7173
19668TIP3   OH280418   1.170   3.190  12.131 -0.1207 -0.4680 -0.4997
19668TIP3    H180419   1.117   3.215  12.207  0.4138  0.0685 -0.2951
19668TIP3    H280420   1.132   3.238  12.058 -0.2162 -0.4627 -0.4467
19669TIP3   OH280421   5.622   1.581   5.714 -0.1061  0.0879 -0.1146
19669TIP3    H180422   5.639   1.575   5.620  1.3625 -0.3872  0.1498
19669TIP3    H280423   5.580   1.497   5.736  2.2900 -1.1545  0.1220
19670TIP3   OH280424   0.478   2.970  15.152  0.4937 -0.3858  0.0320
19670TIP3    H180425   0.556   3.025  15.164  1.2234 -1.3378 -0.2421
19670TIP3    H280426   0.500   2.912  15.079  0.2688 -1.9492  1.1572
19671TIP3   OH280427   5.121   1.622  13.361  0.2512 -0.5064 -0.1227
19671TIP3    H180428   5.095   1.705  13.322  0.6372  0.5230  1.7047
19671TIP3    H280429   5.053   1.603  13.426  1.4475 -0.2771  1.2664
19672TIP3   OH280430   3.221   3.502  14.410 -0.3223 -0.2083  0.2151
19672TIP3    H180431   3.138   3.516  14.363 -1.0279  3.0719  2.1122
19672TIP3    H280432   3.288   3.529  14.347 -0.9907  0.5837 -0.1838
19673TIP3   OH280433   0.603   2.391  12.430 -0.5496  0.0414  0.4015
19673TIP3    H180434   0.583   2.324  12.495  1.3002  0.6834  1.7248
19673TIP3    H280435   0.606   2.345  12.347  2.0875 -1.8751  1.4307
19674TIP3   OH280436   5.675   4.946   0.829 -0.1340  0.6107  0.1011
19674TIP3    H180437   5.594   4.985   0.796  0.8179  2.3679 -0.3135
19674TIP3    H280438   5.710   4.896   0.755 -1.1381 -0.7151  0.4897
19675TIP3   OH280439   5.667   6.597  13.915 -1.3553 -0.3158 -0.4200
19675TIP3    H180440   5.753   6.620  13.950 -2.0434 -0.0270  1.1918
19675TIP3    H280441   5.655   6.505  13.939 -1.3601 -0.4583 -0.9532
19676TIP3   OH280442   1.834   6.536   3.297 -0.6702  0.3533 -0.0991
19676TIP3    H180443   1.785   6.520   3.378 -2.0356 -0.8852 -1.1154
19676TIP3    H280444   1.837   6.450   3.254  2.8954  0.2251  0.1260
19677TIP3   OH280445   0.369   2.803   0.119  0.2070 -0.2033 -0.3768
19677TIP3    H180446   0.304   2.740   0.148 -0.8988  1.3502  0.7310
19677TIP3    H280447   0.437   2.801   0.187 -1.7028  2.4252  1.8857
19678TIP3   OH280448   0.819   1.075  16.334 -0.2758 -0.4520  0.3041
19678TIP3    H180449   0.882   1.017  16.291 -0.6201 -1.3376  0.9655
19678TIP3    H280450   0.752   1.092  16.268  0.3686  0.0655 -0.2337
19679TIP3   OH280451   0.704   2.509   3.608  0.5411  0.3279 -0.3578
19679TIP3    H180452   0.736   2.576   3.548 -1.4002 -0.0019 -1.8336
19679TIP3    H280453   0.690   2.432   3.553  0.7559 -0.6714  0.9326
19680TIP3   OH280454   2.351   3.734   3.872 -0.2126  0.1651  0.5479
19680TIP3    H180455   2.415   3.663   3.879 -0.2189  0.0858 -0.1898
19680TIP3    H280456   2.336   3.744   3.778 -1.8564 -0.3305  0.7305
19681TIP3   OH280457   1.138   1.210   0.571 -0.2967  0.2963  0.3588
19681TIP3    H180458   1.129   1.302   0.595  0.6705  0.8362 -1.1969
19681TIP3    H280459   1.232   1.192   0.581 -0.4240 -0.4302  0.2983
19682TIP3   OH280460   6.218   1.202  12.359 -0.2909 -0.5551  0.2127
19682TIP3    H180461   6.288   1.143  12.331  0.9960 -0.3435  2.6786
19682TIP3    H280462   6.156   1.145  12.405 -1.2311 -0.5594 -0.9947
19683TIP3   OH280463   2.232   4.953   5.598  0.4189  0.8438 -0.0482
19683TIP3    H180464   2.216   4.943   5.692  0.8444  0.6201  0.0031
19683TIP3    H280465   2.167   5.017   5.569 -1.4942 -1.0186 -0.1190
19684TIP3   OH280466   1.358   3.397   3.458 -0.4116 -0.1959 -0.5663
19684TIP3    H180467   1.298   3.327   3.432  0.5331 -0.4546 -2.1344
19684TIP3    H280468   1.443   3.354   3.468  0.0984  0.6535 -1.1769
19685TIP3   OH280469   6.639   4.834   0.866 -0.5578  0.3050  0.5635
19685TIP3    H180470   6.640   4.914   0.919 -0.9894  1.1114 -0.6198
19685TIP3    H280471   6.588   4.857   0.788  2.8915  0.2758 -1.9189
19686TIP3   OH280472   3.409   5.241   1.500  0.2159 -0.2255  0.1395
19686TIP3    H180473   3.345   5.189   1.451 -0.4088 -0.0250  0.7352
19686TIP3    H280474   3.390   5.222   1.592 -0.4453  1.5471  0.3947
19687TIP3   OH280475   4.223   1.057   6.243  0.6198  0.0036 -0.1929
19687TIP3    H180476   4.139   1.015   6.221  0.2285 -0.5151  1.9759
19687TIP3    H280477   4.211   1.149   6.220 -0.3786 -0.1541 -0.3523
19688TIP3   OH280478   1.555   5.661  12.297 -0.4735  0.0597  0.1207
19688TIP3    H180479   1.463   5.678  12.312 -0.1102 -0.3643  3.6265
19688TIP3    H280480   1.601   5.719  12.358  1.4305 -1.4747  0.2446
19689TIP3   OH280481   1.347   3.045  13.172  0.3151  0.1692 -0.6674
19689TIP3    H180482   1.283   3.036  13.102  0.3477 -4.0580 -0.4315
19689TIP3    H280483   1.428   3.069  13.128  0.0327 -1.1214 -1.9951
19690TIP3   OH280484   6.411   0.997  15.709  0.7746  0.2669 -0.3112
19690TIP3    H180485   6.396   0.914  15.664 -1.8796 -0.0111  0.8530
19690TIP3    H280486   6.475   0.976  15.777  0.1996 -0.8543 -0.0807
19691TIP3   OH280487   5.189   5.886   0.353  0.0316 -0.4551  0.6678
19691TIP3    H180488   5.240   5.812   0.319  1.0019 -0.3270  1.7981
19691TIP3    H280489   5.144   5.921   0.276  0.6934 -1.3264 -0.1412
19692TIP3   OH280490   6.452   2.794  16.458 -0.5220  0.2538 -0.3626
19692TIP3    H180491   6.430   2.771  16.368 -1.9401  1.2606 -0.3105
19692TIP3    H280492   6.370   2.789  16.506 -0.2802  2.0362  0.3477
19693TIP3   OH280493   5.061   0.241  11.936 -0.5013 -0.2697 -0.2450
19693TIP3    H180494   5.146   0.199  11.953 -1.0255 -0.4237  2.5407
19693TIP3    H280495   5.084   0.329  11.906  0.6246 -0.7972 -0.9974
19694TIP3   OH280496   5.233   4.922  11.375 -0.1502  0.2538 -0.0778
19694TIP3    H180497   5.282   4.981  11.318  2.1593  0.7153  2.1823
19694TIP3    H280498   5.301   4.871  11.421 -1.8614 -0.4294  1.8656
19695TIP3   OH280499   3.433   3.051   5.375 -0.2902 -0.3694  0.1798
19695TIP3    H180500   3.503   3.088   5.322  0.0284  0.2444  0.9999
19695TIP3    H280501   3.457   3.073   5.465 -0.6133 -1.7177  0.6155
19696TIP3   OH280502   0.796   5.122   1.555 -0.3065  0.5520  0.0158
19696TIP3    H180503   0.835   5.070   1.625 -0.4179 -0.9057 -0.9469
19696TIP3    H280504   0.717   5.159   1.593  0.5226  1.2080  1.1471
19697TIP3   OH280505   0.976   5.902  15.794  0.7662 -0.0922  0.5079
19697TIP3    H180506   0.928   5.920  15.875  2.0191  2.0037  0.8634
19697TIP3    H280507   0.914   5.921  15.724  0.4532  0.5566  0.9618
19698TIP3   OH280508   3.677   1.969   1.645  0.2038  0.2991 -0.2305
19698TIP3    H180509   3.644   2.055   1.621  0.9051  0.2919 -1.2630
19698TIP3    H280510   3.680   1.920   1.563  1.7083 -0.0530 -0.0004
19699TIP3   OH280511   0.529   2.937  12.610 -0.9790 -0.1259 -0.2240
19699TIP3    H180512   0.559   2.847  12.621 -0.8738  0.0909  1.7139
19699TIP3    H280513   0.603   2.983  12.571 -1.7064 -1.2313 -3.1292
19700TIP3   OH280514   3.423   2.961   4.085  0.4621  0.1454 -0.7798
19700TIP3    H180515   3.356   2.916   4.137  1.6071  0.7241  1.3068
19700TIP3    H280516   3.456   2.894   4.025  0.0976 -0.9900  0.2400
19701TIP3   OH280517   4.738   0.483   2.929  0.2405  0.3816 -0.8441
19701TIP3    H180518   4.744   0.391   2.904  0.3275  0.5780 -1.5465
19701TIP3    H280519   4.656   0.514   2.891 -0.3316  0.3217  0.3006
19702TIP3   OH280520   3.859   3.004  13.359  0.3791 -0.5603 -0.9094
19702TIP3    H180521   3.845   2.928  13.415 -1.5001  0.1024 -0.3913
19702TIP3    H280522   3.820   2.981  13.275  1.2743 -0.7530 -1.2852
19703TIP3   OH280523   1.659   4.578  14.054  0.1556 -0.2546 -0.4799
19703TIP3    H180524   1.699   4.628  13.982  1.0773  1.7203  1.2993
19703TIP3    H280525   1.588   4.530  14.012  0.6695  0.7828 -2.7258
19704TIP3   OH280526   5.564   5.024  14.499  0.5223 -0.0194  0.2128
19704TIP3    H180527   5.583   4.948  14.445  0.7908 -0.3489  0.7692
19704TIP3    H280528   5.605   5.097  14.453  0.8732 -0.3213  0.0412
19705TIP3   OH280529   6.098   4.919   3.776  0.4898 -0.1791  0.3672
19705TIP3    H180530   6.159   4.879   3.838  2.9419  1.6790 -0.6702
19705TIP3    H280531   6.108   5.013   3.790 -0.9451  0.2198 -0.9936
19706TIP3   OH280532   0.670   1.612  12.131 -0.1554 -0.8052 -0.4271
19706TIP3    H180533   0.610   1.538  12.128 -0.4422 -0.6361  0.7264
19706TIP3    H280534   0.698   1.618  12.222  1.0139 -0.3945 -0.7809
19707TIP3   OH280535   0.809   6.224   3.888  0.0663  0.1056  0.1957
19707TIP3    H180536   0.754   6.271   3.825  1.8393  0.7200 -0.9825
19707TIP3    H280537   0.881   6.189   3.835 -0.5360 -2.9709  1.2292
19708TIP3   OH280538   6.568   3.741  14.270  0.4232 -0.1797  0.3198
19708TIP3    H180539   6.508   3.677  14.308  0.5124 -0.2857  0.2837
19708TIP3    H280540   6.519   3.779  14.197  1.2082 -1.9757 -1.2685
19709TIP3   OH280541   3.059   6.064   2.999 -0.0947 -0.5633 -0.1143
19709TIP3    H180542   3.081   6.026   2.914 -0.0897  0.7446 -0.7273
19709TIP3    H280543   3.134   6.121   3.020 -0.5163 -0.1572  0.3196
19710TIP3   OH280544   6.570   1.699  11.745  0.1325 -0.1331  0.1580
19710TIP3    H180545   6.510   1.676  11.816 -1.2804 -1.0812 -1.2763
19710TIP3    H280546   6.638   1.751  11.787 -0.9495 -0.1970  2.0973
19711TIP3   OH280547   3.179   5.180   0.154 -0.0182 -0.4509 -0.1340
19711TIP3    H180548   3.236   5.118   0.108  0.3546  0.7469 -1.3747
19711TIP3    H280549   3.158   5.246   0.088 -2.5084 -0.5971  0.4019
19712TIP3   OH280550   0.564   6.579   1.341  0.2964  1.2058 -0.1514
19712TIP3    H180551   0.629   6.511   1.361  0.2910  1.4539  0.7618
19712TIP3    H280552   0.553   6.574   1.246  1.4792  1.0076 -0.2983
19713TIP3   OH280553   5.739   3.753  12.273  0.3517 -0.7081  0.4983
19713TIP3    H180554   5.779   3.840  12.280  0.9082 -1.0191  1.3302
19713TIP3    H280555   5.707   3.734  12.361 -0.3397 -1.0909  0.1799
19714TIP3   OH280556   0.046   0.215   1.886  0.9780  0.4461  0.2931
19714TIP3    H180557   0.087   0.159   1.820 -0.3668 -0.3154  0.0762
19714TIP3    H280558   0.046   0.302   1.846  0.5737  0.0800 -0.5386
19715TIP3   OH280559   1.710   2.790  12.040 -0.8341 -0.4334 -0.7119
19715TIP3    H180560   1.633   2.804  12.094  0.5826  0.3746  1.1896
19715TIP3    H280561   1.721   2.695  12.038 -2.1300 -0.5940 -1.4508
19716TIP3   OH280562   2.626   5.603   4.894 -0.0666  0.2883 -0.2837
19716TIP3    H180563   2.617   5.508   4.895 -0.3814  0.3158  0.5353
19716TIP3    H280564   2.586   5.632   4.976  0.5334  1.0814 -0.2531
19717TIP3   OH280565   3.201   1.111   5.042  0.1058  0.0637  0.5230
19717TIP3    H180566   3.213   1.202   5.069  0.2310 -0.7112  3.3688
19717TIP3    H280567   3.287   1.085   5.008  0.0077  1.0097 -0.5317
19718TIP3   OH280568   3.319   0.503   1.060  0.9710 -0.3352  0.2282
19718TIP3    H180569   3.247   0.480   1.002 -0.4018 -0.1572  1.7728
19718TIP3    H280570   3.305   0.595   1.081  0.9924 -0.5794  1.3986
19719TIP3   OH280571   2.461   6.343   0.886  0.3884 -0.1301 -0.2559
19719TIP3    H180572   2.389   6.353   0.949  0.5722  0.7503 -0.1707
19719TIP3    H280573   2.510   6.267   0.918 -0.9122 -1.2048 -0.7362
19720TIP3   OH280574   3.673   2.817  14.363 -0.2817  0.0835 -0.1816
19720TIP3    H180575   3.658   2.811  14.457  1.2857  0.2856  0.1134
19720TIP3    H280576   3.594   2.782  14.323 -0.1567 -1.9748  1.2278
19721TIP3   OH280577   1.198   3.701   1.721 -0.3484  0.2431  0.2553
19721TIP3    H180578   1.119   3.659   1.754 -0.8356  1.4911  0.7712
19721TIP3    H280579   1.269   3.641   1.744 -0.9052  0.1563  1.8723
19722TIP3   OH280580   0.089   3.590   2.080  0.2808 -0.3478  0.0305
19722TIP3    H180581   0.155   3.553   2.021 -0.2521 -0.0503 -0.7705
19722TIP3    H280582   0.082   3.526   2.151  0.8726 -0.7575 -0.2733
19723TIP3   OH280583   5.682   4.266  14.515 -0.1487  0.1414 -0.4164
19723TIP3    H180584   5.730   4.184  14.511 -0.0869  0.0400  1.4168
19723TIP3    H280585   5.667   4.281  14.609  1.2209  2.9971 -0.5426
19724TIP3   OH280586   5.846   6.632  12.810  0.3917 -0.4004 -0.3307
19724TIP3    H180587   5.773   6.660  12.754  0.1662 -1.4811 -0.5996
19724TIP3    H280588   5.831   6.677  12.893 -1.1385 -1.3460 -0.0530
19725TIP3   OH280589   3.879   4.514  12.644  0.4285 -0.1062  0.2232
19725TIP3    H180590   3.949   4.528  12.708  0.0124  0.7095  0.5221
19725TIP3    H280591   3.866   4.600  12.603 -0.2608 -0.2884  0.0349
19726TIP3   OH280592   3.239   2.139   1.620 -0.4172  0.1694  0.5277
19726TIP3    H180593   3.304   2.078   1.584  0.4141  0.0052  2.1750
19726TIP3    H280594   3.223   2.202   1.550  0.0334 -0.9286 -0.5984
19727TIP3   OH280595   5.196   4.047   6.218  0.1966  0.3991  0.2757
19727TIP3    H180596   5.263   3.991   6.259  0.8633  0.3283 -0.8829
19727TIP3    H280597   5.215   4.135   6.251  1.4736  0.5418 -0.7761
19728TIP3   OH280598   0.291   6.369   4.309 -0.0275 -0.3303  0.0661
19728TIP3    H180599   0.343   6.312   4.366 -1.5222 -1.3938  0.4346
19728TIP3    H280600   0.271   6.314   4.233 -1.4572 -0.3063  0.4082
19729TIP3   OH280601   6.433   6.325   5.369  0.0993  0.5217  0.2716
19729TIP3    H180602   6.458   6.238   5.401  2.6452  1.2208  0.4404
19729TIP3    H280603   6.508   6.352   5.316 -1.6994  1.6356 -1.8388
19730TIP3   OH280604   6.643   1.885   5.801  1.0521  0.1880  0.4041
19730TIP3    H180605   6.676   1.802   5.768  1.1799  0.4788 -0.2135
19730TIP3    H280606   6.579   1.861   5.868  1.2438 -0.3987  0.3794
19731TIP3   OH280607   3.284   2.767   0.968  0.6574 -0.0716  0.1262
19731TIP3    H180608   3.216   2.723   1.019  0.5034 -0.1238 -0.1263
19731TIP3    H280609   3.343   2.804   1.034  0.2450  0.1961  0.3421
19732TIP3   OH280610   1.243   0.945  15.567  0.4689  0.7627  0.0830
19732TIP3    H180611   1.301   1.004  15.616 -0.7625  1.2987  0.9381
19732TIP3    H280612   1.292   0.862  15.562  1.9394  1.6135 -0.5478
19733TIP3   OH280613   4.766   4.144  11.207 -0.1764 -0.4463  0.2426
19733TIP3    H180614   4.813   4.131  11.125  2.7790 -1.4290  1.9359
19733TIP3    H280615   4.722   4.061  11.223 -0.5369 -0.3453 -0.2155
19734TIP3   OH280616   3.865   6.269  14.678 -0.3438  0.1978  0.3621
19734TIP3    H180617   3.955   6.239  14.665 -0.6721 -1.6314  1.8842
19734TIP3    H280618   3.873   6.362  14.697  1.0428  0.4674 -1.3239
19735TIP3   OH280619   2.795   0.938  15.860  0.3729 -0.9794  0.1409
19735TIP3    H180620   2.769   1.029  15.848 -0.2540 -1.0070  1.1664
19735TIP3    H280621   2.891   0.940  15.858  0.3696 -0.2751  0.3275
19736TIP3   OH280622   3.659   3.309   2.531 -0.2450 -0.4952  0.6739
19736TIP3    H180623   3.658   3.334   2.623 -0.6749 -0.0240  0.5428
19736TIP3    H280624   3.582   3.350   2.493  0.3009 -0.0977 -0.0477
19737TIP3   OH280625   3.971   5.190   0.143  0.1372 -0.1548  0.0739
19737TIP3    H180626   3.888   5.236   0.143 -1.2289 -2.4329  1.6912
19737TIP3    H280627   4.030   5.247   0.093 -1.8387  2.4360  0.4933
19738TIP3   OH280628   2.571   0.671   0.096  0.7320 -0.5248 -0.3894
19738TIP3    H180629   2.608   0.607   0.035 -0.7536 -0.1232 -1.7674
19738TIP3    H280630   2.631   0.745   0.091  1.5113 -1.1123 -0.0933
19739TIP3   OH280631   6.395   4.709   2.299 -0.0228  0.2020 -0.5359
19739TIP3    H180632   6.408   4.614   2.298  0.6665  0.2440  1.1490
19739TIP3    H280633   6.460   4.742   2.237 -0.5782 -0.4484 -1.4809
19740TIP3   OH280634   0.605   1.386   4.792 -0.1219  0.0235 -0.4093
19740TIP3    H180635   0.590   1.433   4.873 -0.1837 -1.6753  0.6163
19740TIP3    H280636   0.633   1.453   4.729  2.3334  1.0838  1.6454
19741TIP3   OH280637   4.285   3.481  15.439  0.6087 -0.0088  0.1684
19741TIP3    H180638   4.282   3.438  15.353  2.7184  0.5622 -0.2309
19741TIP3    H280639   4.369   3.455  15.476  1.0760  2.1596  0.7546
19742TIP3   OH280640   1.698   0.636   1.536  0.2653  0.5466 -0.6329
19742TIP3    H180641   1.615   0.680   1.515  0.8375  1.4662 -1.0233
19742TIP3    H280642   1.765   0.691   1.495  0.9771 -1.0595 -1.7010
19743TIP3   OH280643   3.981   5.698  12.433  0.1605 -0.1198  0.3453
19743TIP3    H180644   4.004   5.716  12.525 -0.3825 -3.1457  1.1662
19743TIP3    H280645   3.889   5.672  12.436  0.4539 -1.3872 -0.8607
19744TIP3   OH280646   6.263   3.315  11.547  0.3541 -0.3089 -0.4576
19744TIP3    H180647   6.206   3.385  11.579 -0.9097 -1.3525 -0.3131
19744TIP3    H280648   6.240   3.306  11.454  0.9094 -0.1793 -0.6133
19745TIP3   OH280649   3.365   3.785  12.322 -0.1240 -0.2546 -0.0094
19745TIP3    H180650   3.440   3.728  12.336  0.1478 -0.2184 -1.1735
19745TIP3    H280651   3.365   3.844  12.398  1.4538  0.1926 -0.3152
19746TIP3   OH280652   0.608   4.609  16.456  0.2677 -0.6281 -0.1838
19746TIP3    H180653   0.626   4.701  16.474  0.6201 -0.9177  0.9922
19746TIP3    H280654   0.513   4.604  16.451  0.2625  0.3173 -3.2360
19747TIP3   OH280655   3.814   5.667   6.151 -0.1539 -0.6997 -0.1983
19747TIP3    H180656   3.909   5.665   6.137  0.3944  1.0658  2.3610
19747TIP3    H280657   3.787   5.754   6.121 -0.6031 -0.5262  0.6584
19748TIP3   OH280658   4.920   2.516   6.789 -0.3456 -0.1961 -0.3713
19748TIP3    H180659   4.839   2.556   6.820 -0.2391  1.2412 -1.8314
19748TIP3    H280660   4.952   2.575   6.721  1.4166 -1.2485 -0.5234
19749TIP3   OH280661   5.801   5.234   0.580 -0.2406  0.1327  0.2745
19749TIP3    H180662   5.824   5.280   0.499 -1.7144  0.5936  0.0864
19749TIP3    H280663   5.885   5.206   0.617  0.7019  2.5490  0.1497
19750TIP3   OH280664   4.613   5.878  14.968  0.0397 -0.1287  0.6942
19750TIP3    H180665   4.591   5.847  15.056 -1.6046  1.4859  0.8854
19750TIP3    H280666   4.553   5.831  14.910 -1.7115  1.7424  0.8821
19751TIP3   OH280667   2.879   0.965   3.698 -0.2501 -0.0063  0.3370
19751TIP3    H180668   2.871   0.901   3.769 -1.7808 -0.2391 -0.0188
19751TIP3    H280669   2.838   0.923   3.623 -2.0008  1.6427  0.2910
19752TIP3   OH280670   2.803   1.609   2.001  0.3197 -0.0511  0.4447
19752TIP3    H180671   2.793   1.539   2.066 -0.2200 -0.3155  0.0879
19752TIP3    H280672   2.897   1.619   1.991  0.4574 -1.9511 -0.7737
19753TIP3   OH280673   4.330   2.347   3.025 -0.2855  0.0629 -0.1784
19753TIP3    H180674   4.384   2.268   3.014  0.7175  0.5944  0.7799
19753TIP3    H280675   4.240   2.313   3.033  0.1362 -0.9961  0.2835
19754TIP3   OH280676   0.211   6.638  14.061 -0.0636 -0.1582 -0.0067
19754TIP3    H180677   0.252   6.723  14.046 -0.0505  0.0945  1.3209
19754TIP3    H280678   0.121   6.648  14.032  0.7031 -0.6975 -2.9102
19755TIP3   OH280679   3.594   1.520  12.885 -0.3417 -0.4466 -0.2599
19755TIP3    H180680   3.645   1.441  12.869 -0.6733 -0.7399  0.0774
19755TIP3    H280681   3.509   1.487  12.916 -1.1887 -0.0205 -1.9751
19756TIP3   OH280682   2.030   1.101   0.997 -0.5355 -0.2719  0.2214
19756TIP3    H180683   2.111   1.056   1.022 -0.7201  0.1643  1.7099
19756TIP3    H280684   1.969   1.030   0.977  0.3833 -0.6052 -1.6200
19757TIP3   OH280685   0.159   2.400   1.647  0.1527  0.0773 -0.2087
19757TIP3    H180686   0.206   2.317   1.649 -0.6517 -0.3892  2.4126
19757TIP3    H280687   0.210   2.458   1.704  1.2136  1.7850 -2.6910
19758TIP3   OH280688   1.076   4.852  13.850  0.7665 -0.4687  0.2880
19758TIP3    H180689   1.066   4.901  13.932  1.6789 -0.0918  0.1830
19758TIP3    H280690   1.071   4.918  13.781 -0.1291 -0.8015  0.0195
19759TIP3   OH280691   3.623   2.519  16.999  0.0154 -0.0795 -0.0448
19759TIP3    H180692   3.640   2.586  16.933 -1.2554  1.1489  0.8370
19759TIP3    H280693   3.612   2.438  16.949  2.1061  0.2118 -1.0940
19760TIP3   OH280694   4.383   1.959  13.145 -0.1750 -0.1369  0.4738
19760TIP3    H180695   4.382   1.969  13.240 -1.9286 -0.3969  0.5241
19760TIP3    H280696   4.405   1.867  13.131 -1.1993 -0.4306  0.7027
19761TIP3   OH280697   3.244   5.883  13.067 -0.4124 -0.8655 -0.1125
19761TIP3    H180698   3.151   5.902  13.074 -0.2124  0.4531 -0.6555
19761TIP3    H280699   3.279   5.954  13.013  0.8501 -1.5207 -0.2045
19762TIP3   OH280700   6.356   0.810   3.998 -0.1754 -0.1668 -0.2837
19762TIP3    H180701   6.353   0.899   4.032  0.0553 -0.4744  0.5737
19762TIP3    H280702   6.287   0.806   3.932 -1.0365  0.2747  0.5775
19763TIP3   OH280703   1.757   0.361   1.587  0.2419  0.0224  0.5348
19763TIP3    H180704   1.745   0.341   1.679 -3.3080  2.1751  0.7355
19763TIP3    H280705   1.727   0.452   1.578 -0.1490 -0.3062 -2.8260
19764TIP3   OH280706   4.436   0.226  17.001  0.3381  1.1883 -0.1546
19764TIP3    H180707   4.483   0.193  17.078  3.1522  2.2014 -1.2941
19764TIP3    H280708   4.344   0.205  17.017  1.3402 -2.9964  1.2504
19765TIP3   OH280709   1.395   1.081  16.289 -0.0209 -0.3953 -0.3296
19765TIP3    H180710   1.467   1.101  16.349 -1.3791  0.2067  1.2027
19765TIP3    H280711   1.357   1.166  16.267 -0.4681 -0.7132 -0.8225
19766TIP3   OH280712   4.456   6.404   1.505 -0.3087 -0.6686  0.8742
19766TIP3    H180713   4.487   6.341   1.570  0.2179 -0.8206  0.4842
19766TIP3    H280714   4.490   6.488   1.535 -0.8422 -0.5897  1.2856
19767TIP3   OH280715   4.398   5.093  10.455 -0.2635  0.4533  0.4073
19767TIP3    H180716   4.335   5.047  10.400 -0.0691 -0.7795  1.1737
19767TIP3    H280717   4.425   5.029  10.521  0.3031  1.5546  1.3052
19768TIP3   OH280718   4.377   4.004  15.803  0.2086 -0.1969 -0.3851
19768TIP3    H180719   4.284   4.014  15.781 -0.7515 -1.2759  2.6726
19768TIP3    H280720   4.398   4.083  15.853 -0.0151 -1.2625  1.5094
19769TIP3   OH280721   5.009   1.914  15.838  0.0017  0.2377  0.3936
19769TIP3    H180722   5.099   1.882  15.829  0.3257  0.7379  1.6122
19769TIP3    H280723   5.018   2.005  15.865 -0.8484  0.0120  1.5146
19770TIP3   OH280724   2.917   4.001   3.379 -0.0304 -0.2347 -0.2978
19770TIP3    H180725   2.887   4.011   3.469  0.6565  0.7906 -0.1617
19770TIP3    H280726   2.840   4.018   3.325 -0.2360  0.0128  0.0761
19771TIP3   OH280727   6.624   0.382  15.204 -0.1727  0.1089  0.0559
19771TIP3    H180728   6.623   0.436  15.283 -0.6355 -0.1271  0.2175
19771TIP3    H280729   6.700   0.413  15.154 -0.1591  0.5821  0.3656
19772TIP3   OH280730   5.039   6.024   4.332 -0.1739 -0.0043 -0.0430
19772TIP3    H180731   4.974   5.974   4.282 -0.3666  1.1557 -0.9967
19772TIP3    H280732   5.113   6.032   4.273  1.6155 -2.7522  1.6111
19773TIP3   OH280733   0.920   1.880   2.592  0.5720  0.3368 -0.7699
19773TIP3    H180734   0.993   1.829   2.627  0.6758  0.3236 -1.0039
19773TIP3    H280735   0.950   1.971   2.595  0.4998  0.3570 -0.6295
19774TIP3   OH280736   4.753   2.157  11.405 -0.1813 -0.0477  0.2086
19774TIP3    H180737   4.755   2.106  11.324  3.0916 -1.0595  0.7519
19774TIP3    H280738   4.663   2.188  11.412 -0.9498 -1.1331 -3.0311
19775TIP3   OH280739   5.312   3.838  12.704  0.2372  0.2541  0.0312
19775TIP3    H180740   5.396   3.884  12.706 -0.5291  1.7687 -0.9339
19775TIP3    H280741   5.320   3.778  12.629  0.6136  0.0691  0.2178
19776TIP3   OH280742   0.471   4.206   2.485 -0.5609  0.3218 -0.7126
19776TIP3    H180743   0.405   4.147   2.523 -0.4932 -0.4309 -1.7183
19776TIP3    H280744   0.426   4.290   2.476 -0.0420  1.1077  2.7270
19777TIP3   OH280745   0.368   1.800   3.885  0.8206  0.2971  0.0968
19777TIP3    H180746   0.331   1.853   3.956  0.8925 -0.2885  0.5793
19777TIP3    H280747   0.438   1.854   3.849 -0.4629  1.4122 -0.8074
19778TIP3   OH280748   5.301   2.764   3.435  0.0886 -0.8828 -0.5472
19778TIP3    H180749   5.351   2.695   3.480 -0.0717  0.6251  2.1195
19778TIP3    H280750   5.352   2.782   3.355  2.7623 -0.8235  1.0602
19779TIP3   OH280751   0.174   5.784  13.203 -0.1804 -0.3750  0.0617
19779TIP3    H180752   0.190   5.877  13.187  1.8540 -0.6754  0.0536
19779TIP3    H280753   0.199   5.771  13.294  1.4905 -1.2702 -0.4946
19780TIP3   OH280754   1.433   4.579   5.371 -0.4396 -0.3692 -0.3606
19780TIP3    H180755   1.436   4.492   5.412 -0.3590 -0.7645 -1.1890
19780TIP3    H280756   1.429   4.561   5.277  2.8683  0.5029 -0.8117
19781TIP3   OH280757   4.877   3.020  12.037 -0.1253  0.1253  0.0098
19781TIP3    H180758   4.937   3.059  11.974  0.2209  2.2736  1.5722
19781TIP3    H280759   4.790   3.043  12.005 -0.0650 -0.7609 -0.8549
19782TIP3   OH280760   5.410   5.948   4.944 -0.4398  0.8008  0.7268
19782TIP3    H180761   5.369   5.877   4.894  0.3813  1.6561 -1.2658
19782TIP3    H280762   5.491   5.910   4.978  0.2402  0.8684 -0.7438
19783TIP3   OH280763   6.768   6.104  11.634 -0.4168 -0.3183  0.6579
19783TIP3    H180764   6.695   6.047  11.610 -1.1443  0.5507  0.7375
19783TIP3    H280765   6.729   6.191  11.641  1.0542  0.6767 -1.8202
19784TIP3   OH280766   2.662   2.548  12.682  0.1558 -0.1159  0.0717
19784TIP3    H180767   2.586   2.580  12.633  0.3345 -0.7455 -0.6356
19784TIP3    H280768   2.626   2.488  12.747  0.0766 -0.8117 -0.5989
19785TIP3   OH280769   5.137   3.374  12.490 -0.2492  0.0545 -0.2188
19785TIP3    H180770   5.090   3.429  12.428  0.3871  0.3026 -0.4807
19785TIP3    H280771   5.073   3.307  12.516 -0.1776 -0.8060 -2.0730
19786TIP3   OH280772   2.523   2.881  13.684 -0.3341  0.0134  0.6105
19786TIP3    H180773   2.504   2.913  13.772 -0.2087 -0.6034  0.8717
19786TIP3    H280774   2.480   2.796  13.680 -2.5518  1.1102 -0.8345
19787TIP3   OH280775   5.237   4.095  15.352 -0.3067  0.0197  0.1027
19787TIP3    H180776   5.194   4.027  15.403 -0.4493 -0.7436 -0.9859
19787TIP3    H280777   5.271   4.049  15.275  0.5789  0.9893 -0.1121
19788TIP3   OH280778   6.624   5.225  12.724  0.3514 -0.3644 -0.1532
19788TIP3    H180779   6.648   5.317  12.718 -0.2334 -0.0156  1.9117
19788TIP3    H280780   6.544   5.225  12.777 -0.6619 -1.9410 -1.5707
19789TIP3   OH280781   2.785   2.247   5.933 -0.7481  0.4995 -0.0506
19789TIP3    H180782   2.705   2.272   5.886 -1.6448  0.3750  1.3301
19789TIP3    H280783   2.820   2.329   5.966 -0.7967  0.4697  0.0768
19790TIP3   OH280784   3.645   3.299  14.629 -0.2466 -0.2553 -0.2179
19790TIP3    H180785   3.677   3.219  14.672  2.2082 -0.1017 -1.5648
19790TIP3    H280786   3.692   3.370  14.673  1.4896 -0.0192 -2.2951
19791TIP3   OH280787   2.830   0.927   4.152  0.2967 -0.1846 -0.2563
19791TIP3    H180788   2.792   0.889   4.231 -1.4037  0.8224 -0.5356
19791TIP3    H280789   2.799   1.018   4.151  0.5381 -0.0807 -1.9129
19792TIP3   OH280790   0.917   2.344   2.523  0.8894  0.6412  0.3980
19792TIP3    H180791   0.861   2.317   2.449 -0.4478 -0.5756  1.7864
19792TIP3    H280792   0.894   2.435   2.538  0.3715  0.5887 -0.0213
19793TIP3   OH280793   5.202   3.103  13.337 -0.2494  0.0338 -0.0805
19793TIP3    H180794   5.236   3.192  13.348 -0.1189 -0.0357  0.0960
19793TIP3    H280795   5.134   3.111  13.271 -1.3532  0.5532  1.0600
19794TIP3   OH280796   4.648   2.857  16.515 -0.1000 -0.4856  0.5995
19794TIP3    H180797   4.690   2.933  16.475  1.7032 -0.4431  2.4310
19794TIP3    H280798   4.688   2.781  16.472 -1.2110 -0.4522 -0.5555
19795TIP3   OH280799   1.836   6.378  15.861  0.9840  0.3945  0.7267
19795TIP3    H180800   1.769   6.384  15.794  0.5380  2.3884  1.3071
19795TIP3    H280801   1.918   6.392  15.814  1.0462 -1.6430  0.0872
19796TIP3   OH280802   6.548   3.025   3.883  0.0283 -0.1125 -0.0465
19796TIP3    H180803   6.491   3.011   3.959 -0.5827 -1.4129 -0.6978
19796TIP3    H280804   6.629   2.980   3.906 -0.3694 -1.0292 -0.3747
19797TIP3   OH280805   5.718   4.122   6.458 -0.4255 -0.3518 -0.6815
19797TIP3    H180806   5.644   4.064   6.477  1.1166 -1.4971  2.4650
19797TIP3    H280807   5.693   4.206   6.496 -0.0186 -0.8470  0.7425
19798TIP3   OH280808   4.430   6.582   2.007  0.2824  0.4785  0.1499
19798TIP3    H180809   4.502   6.572   2.069  0.7022  1.4211 -0.1741
19798TIP3    H280810   4.433   6.674   1.981 -0.7432  0.4151 -0.2312
19799TIP3   OH280811   0.155   1.131  13.979  0.2379 -0.4201  0.0047
19799TIP3    H180812   0.225   1.066  13.972  1.0533  0.2178  1.7122
19799TIP3    H280813   0.193   1.210  13.939 -0.6017 -0.8218 -1.6915
19800TIP3   OH280814   5.290   5.682   2.997 -0.6048  0.3855 -0.0262
19800TIP3    H180815   5.272   5.759   3.050 -0.9985  0.2396  0.0551
19800TIP3    H280816   5.256   5.609   3.049 -0.2491  0.1588 -0.1093
19801TIP3   OH280817   3.293   2.817  16.063  0.0600  0.0607 -0.0702
19801TIP3    H180818   3.245   2.900  16.059  0.0058  0.0212 -0.2836
19801TIP3    H280819   3.303   2.799  16.156 -0.7375 -0.1592 -0.0131
19802TIP3   OH280820   3.281   0.163   4.749  0.2157  0.0370  0.1791
19802TIP3    H180821   3.313   0.116   4.826  0.3679 -2.2369 -1.1747
19802TIP3    H280822   3.284   0.098   4.679  0.9270  2.2491 -1.9726
19803TIP3   OH280823   5.419   3.294  11.142  0.3179 -0.3436 -0.1348
19803TIP3    H180824   5.416   3.384  11.109 -1.8372 -0.3412 -0.1033
19803TIP3    H280825   5.407   3.239  11.065 -0.7717 -0.4786  0.1058
19804TIP3   OH280826   1.172   2.761   2.449 -0.6914 -0.7922 -0.3117
19804TIP3    H180827   1.192   2.823   2.380  1.6732  0.5436  1.4227
19804TIP3    H280828   1.095   2.797   2.494 -0.4546 -0.1088 -0.4548
19805TIP3   OH280829   3.544   4.593   2.641 -0.6254  0.2235 -0.5192
19805TIP3    H180830   3.581   4.586   2.553  0.7914 -0.2145  0.0854
19805TIP3    H280831   3.619   4.612   2.697 -1.2309 -1.1382  0.8191
19806TIP3   OH280832   5.818   2.476   4.897  0.0653  0.0864  0.0244
19806TIP3    H180833   5.727   2.459   4.875 -0.1136  2.0698 -0.9716
19806TIP3    H280834   5.817   2.561   4.940  1.0391 -1.4959  3.6172
19807TIP3   OH280835   1.173   4.226  14.669  0.0064 -0.6233  0.6552
19807TIP3    H180836   1.262   4.257  14.648  0.1795  0.0908  2.2752
19807TIP3    H280837   1.116   4.276  14.612  0.7184 -3.5837 -3.0910
19808TIP3   OH280838   2.363   5.213   2.292 -0.7247 -0.2048 -0.3095
19808TIP3    H180839   2.342   5.125   2.258 -0.2231 -0.8379  0.9510
19808TIP3    H280840   2.315   5.218   2.375 -1.5809  1.1325 -0.8679
19809TIP3   OH280841   6.767   2.314   3.425 -0.1884 -0.3968 -0.5732
19809TIP3    H180842   6.740   2.399   3.390  0.9853  1.1408  2.0091
19809TIP3    H280843   6.696   2.254   3.400 -1.3771  1.4631 -1.8916
19810TIP3   OH280844   6.490   0.677   5.596 -0.0095  0.1200  0.2639
19810TIP3    H180845   6.469   0.677   5.689 -1.5514  1.2764 -0.0428
19810TIP3    H280846   6.452   0.596   5.563  0.8481 -0.4662  0.6834
19811TIP3   OH280847   4.456   4.939  13.241  0.2972 -0.3523 -0.9303
19811TIP3    H180848   4.404   5.017  13.258  0.0133  0.0901 -3.4576
19811TIP3    H280849   4.425   4.875  13.305  0.0071  1.3354  0.6915
19812TIP3   OH280850   0.923   1.982   2.054 -0.3491 -0.1438  0.0332
19812TIP3    H180851   0.998   1.931   2.023  0.2886  1.9668 -2.3071
19812TIP3    H280852   0.853   1.961   1.993 -0.7516  0.1097  0.4067
19813TIP3   OH280853   5.913   3.520  12.013 -0.7939 -0.6395 -0.5086
19813TIP3    H180854   5.927   3.518  12.108  0.0444  0.1798 -0.5954
19813TIP3    H280855   5.939   3.609  11.987 -1.0443 -0.8455 -1.5007
19814TIP3   OH280856   4.454   1.849  11.767  0.4396  0.2890 -0.6213
19814TIP3    H180857   4.413   1.769  11.799  1.0941  0.3847  0.4952
19814TIP3    H280858   4.545   1.843  11.797  0.3112  1.7981  0.1538
19815TIP3   OH280859   4.519   3.467   5.927  0.3838  0.3103 -0.0210
19815TIP3    H180860   4.574   3.501   5.856  0.5300  0.4062  0.1385
19815TIP3    H280861   4.436   3.513   5.918 -0.0250 -0.5604 -0.8871
19816TIP3   OH280862   2.641   3.557   5.618 -0.4902  0.5797 -0.4641
19816TIP3    H180863   2.686   3.637   5.644 -1.1449  1.5672 -2.1759
19816TIP3    H280864   2.568   3.549   5.679 -0.8512  1.7245 -0.7262
19817TIP3   OH280865   3.466   5.689   0.052 -0.2032  0.0023 -0.1600
19817TIP3    H180866   3.437   5.708  -0.037  0.8412  0.5144 -0.4016
19817TIP3    H280867   3.545   5.741   0.064 -0.0400 -0.4507  0.8944
19818TIP3   OH280868   3.117   2.412  12.462 -0.1940 -0.2713  0.6096
19818TIP3    H180869   3.081   2.490  12.503  1.5472  0.6317  0.5373
19818TIP3    H280870   3.140   2.440  12.373  0.3936 -0.8806  0.5585
19819TIP3   OH280871   3.820   0.285  12.436  0.0756 -0.2556 -0.0662
19819TIP3    H180872   3.787   0.218  12.496 -0.5986  1.3563  1.4467
19819TIP3    H280873   3.825   0.364  12.489  0.5822  0.9695 -1.8674
19820TIP3   OH280874   4.909   6.392   1.158 -0.1627  0.3279 -0.1945
19820TIP3    H180875   4.966   6.315   1.149 -0.4567  0.0242  0.4841
19820TIP3    H280876   4.847   6.368   1.226 -1.0716  0.6813 -0.8771
19821TIP3   OH280877   4.817   3.773   0.961 -0.0022  0.4389 -0.4786
19821TIP3    H180878   4.812   3.682   0.931  0.3721  0.1475  0.3277
19821TIP3    H280879   4.904   3.781   1.000 -0.8597  0.4945  1.5083
19822TIP3   OH280880   6.670   4.504  13.859 -0.0660  0.0118  0.6821
19822TIP3    H180881   6.589   4.552  13.842  0.1382 -0.0652 -0.6619
19822TIP3    H280882   6.659   4.467  13.946 -3.0881 -3.0797 -0.7941
19823TIP3   OH280883   4.852   4.766   4.547  0.1630 -0.2854 -0.1876
19823TIP3    H180884   4.802   4.723   4.617  1.4391 -0.3152  0.7282
19823TIP3    H280885   4.812   4.734   4.466 -0.0769 -1.7852  0.4951
19824TIP3   OH280886   6.049   1.681  16.483 -0.5354 -0.4470 -0.1375
19824TIP3    H180887   6.145   1.680  16.482 -0.4666  1.3431  0.6283
19824TIP3    H280888   6.025   1.623  16.556  0.0459  0.3613  0.7235
19825TIP3   OH280889   2.231   5.442  16.786  0.1459 -0.0111 -0.3246
19825TIP3    H180890   2.236   5.445  16.690  0.8193 -0.7280 -0.3292
19825TIP3    H280891   2.320   5.419  16.813 -0.8053 -3.6287  0.2441
19826TIP3   OH280892   4.309   5.211   6.635  0.4383 -0.2793  0.6982
19826TIP3    H180893   4.234   5.155   6.654  0.4597 -1.4911 -2.2431
19826TIP3    H280894   4.385   5.153   6.644  0.6002 -0.3325 -0.7884
19827TIP3   OH280895   0.451   0.729  15.113  0.0589  0.4559  0.8541
19827TIP3    H180896   0.543   0.751  15.128  0.1487  1.8432 -1.3339
19827TIP3    H280897   0.453   0.656  15.051 -0.3127  0.2704  1.0561
19828TIP3   OH280898   5.666   6.414   5.011  0.2563  0.1345  0.5185
19828TIP3    H180899   5.600   6.425   5.080  0.9570  1.0976  1.0703
19828TIP3    H280900   5.628   6.456   4.934  0.9717  2.5544  1.3633
19829TIP3   OH280901   0.218   1.774  15.445 -0.0877 -0.1882 -0.4789
19829TIP3    H180902   0.219   1.829  15.524  0.5583  1.1430 -1.3936
19829TIP3    H280903   0.131   1.789  15.407  0.6255  1.4260 -1.5413
19830TIP3   OH280904   3.440   0.228  15.766  0.2492 -0.1508  0.4472
19830TIP3    H180905   3.525   0.219  15.809  0.8872 -2.0648 -1.0874
19830TIP3    H280906   3.411   0.316  15.790  2.5257  0.4598  1.2293
19831TIP3   OH280907   6.235   4.299   5.936 -0.5850 -0.3198 -0.0184
19831TIP3    H180908   6.238   4.225   5.996 -0.6274  0.7330  1.3228
19831TIP3    H280909   6.181   4.364   5.980 -0.7580  0.4377 -1.2786
19832TIP3   OH280910   1.877   0.043   3.719 -0.0303 -0.0703  0.2816
19832TIP3    H180911   1.949  -0.014   3.744  0.6049 -0.4984 -2.2808
19832TIP3    H280912   1.889   0.122   3.773  1.1364 -0.9339  1.3392
19833TIP3   OH280913   4.927   6.036  10.602 -0.6271 -0.0788  0.2654
19833TIP3    H180914   4.953   5.976  10.532 -1.2078  0.3781 -0.3566
19833TIP3    H280915   5.009   6.062  10.643  0.1167  2.1662 -2.3372
19834TIP3   OH280916   5.508   0.705  11.037  0.4427 -0.0340  0.1540
19834TIP3    H180917   5.530   0.751  10.956 -2.9430  2.0979  0.2497
19834TIP3    H280918   5.438   0.644  11.012 -0.0360  0.0091  1.3095
19835TIP3   OH280919   6.712   0.853   4.223  0.2747  0.5290  0.3572
19835TIP3    H180920   6.712   0.931   4.166  1.7963  1.4688  1.5630
19835TIP3    H280921   6.659   0.878   4.298 -1.6520 -0.6782 -0.5420
19836TIP3   OH280922   3.151   4.641  17.133 -0.4791 -0.0324  0.0417
19836TIP3    H180923   3.097   4.720  17.134  0.4575  0.6678 -1.0507
19836TIP3    H280924   3.176   4.631  17.041  0.8816 -0.5855  0.4546
19837TIP3   OH280925   3.321   3.870   3.331  0.3479 -0.7727  0.5681
19837TIP3    H180926   3.239   3.858   3.378  0.0703  2.9975  1.4232
19837TIP3    H280927   3.389   3.850   3.395  0.0355 -0.6930  0.9286
19838TIP3   OH280928   3.042   6.298   1.645  0.0261  0.0297 -0.0816
19838TIP3    H180929   3.030   6.213   1.602 -2.9649  0.1131  0.3697
19838TIP3    H280930   3.064   6.357   1.574  0.7124 -0.8477 -0.6248
19839TIP3   OH280931   3.243   0.226  10.532 -0.1870  0.1783  0.5185
19839TIP3    H180932   3.288   0.259  10.454 -2.5164 -0.3953 -1.2059
19839TIP3    H280933   3.213   0.305  10.577 -1.1003  0.5633 -0.6823
19840TIP3   OH280934   6.414   5.766   4.450 -0.4629 -0.4752  0.1311
19840TIP3    H180935   6.445   5.731   4.366 -1.0227  0.6727 -0.5900
19840TIP3    H280936   6.491   5.806   4.489 -0.1377 -1.2494  0.3026
19841TIP3   OH280937   4.734   2.656   1.548  0.4083 -0.0473 -0.4267
19841TIP3    H180938   4.765   2.733   1.499  1.1857 -0.0469  0.0649
19841TIP3    H280939   4.661   2.690   1.600 -2.2260 -0.5516 -3.4304
19842TIP3   OH280940   4.337   6.083  16.467 -0.4242 -0.5856  0.3111
19842TIP3    H180941   4.431   6.087  16.488 -0.3460  1.2846 -0.2436
19842TIP3    H280942   4.324   6.152  16.402 -2.0705 -1.3058 -0.1612
19843TIP3   OH280943   3.320   5.988  17.169  0.2401 -0.1398  0.0243
19843TIP3    H180944   3.295   6.064  17.115 -0.1026  0.2936  0.7861
19843TIP3    H280945   3.408   5.966  17.139  1.7660  2.6514  2.0125
19844TIP3   OH280946   5.531   1.633   6.278  0.6101 -0.1230  0.6719
19844TIP3    H180947   5.446   1.596   6.301 -0.2571  1.4413  0.1057
19844TIP3    H280948   5.538   1.713   6.329  1.3486  0.2352  0.0319
19845TIP3   OH280949   6.207   4.309   1.790  0.3711  0.0287 -0.0280
19845TIP3    H180950   6.155   4.282   1.866 -0.8290  1.3964 -0.3107
19845TIP3    H280951   6.154   4.377   1.748  2.1323  1.0664 -0.6905
19846TIP3   OH280952   4.532   0.874   0.361 -0.0700  0.0846  0.1748
19846TIP3    H180953   4.540   0.968   0.347  0.3889  0.2140  1.2597
19846TIP3    H280954   4.622   0.841   0.355 -0.2791 -0.3590 -0.6623
19847TIP3   OH280955   4.188   2.573   2.461 -0.2596 -0.0090 -0.0821
19847TIP3    H180956   4.156   2.658   2.488 -1.8578 -0.5886 -0.0519
19847TIP3    H280957   4.224   2.534   2.541  0.8567  0.7845 -0.1867
19848TIP3   OH280958   5.665   2.438   3.294  0.1734  0.5341  0.3989
19848TIP3    H180959   5.684   2.459   3.385 -0.6954  0.8504  0.5138
19848TIP3    H280960   5.684   2.344   3.286 -0.5316  0.3242  1.1139
19849TIP3   OH280961   5.887   3.891   1.983 -0.0327  0.1512  0.1794
19849TIP3    H180962   5.922   3.927   1.901  0.1406 -0.0678  0.1544
19849TIP3    H280963   5.886   3.796   1.968 -3.4258  0.2177 -0.9551
19850TIP3   OH280964   4.365   3.859  12.589  0.0242  0.3845  0.2500
19850TIP3    H180965   4.412   3.822  12.664 -1.8046 -0.2255  1.1603
19850TIP3    H280966   4.326   3.940  12.622  0.0055  0.6260 -0.3408
19851TIP3   OH280967   5.755   5.836   4.051 -0.2231 -0.1438  0.0908
19851TIP3    H180968   5.845   5.813   4.074 -0.4685 -1.2077  0.0463
19851TIP3    H280969   5.714   5.861   4.134 -0.6884 -2.5132  0.6297
19852TIP3   OH280970   0.221   1.846   5.557  0.4118 -0.0403  0.1914
19852TIP3    H180971   0.142   1.796   5.579  1.1251 -1.0328  0.5873
19852TIP3    H280972   0.262   1.795   5.487  1.7121 -0.6258  1.3379
19853TIP3   OH280973   3.171   0.881   5.677  0.2774 -0.0044 -0.3963
19853TIP3    H180974   3.120   0.885   5.597 -1.0470 -0.9797  0.3595
19853TIP3    H280975   3.217   0.965   5.681  1.7317 -0.5599 -2.9981
19854TIP3   OH280976   5.641   6.441   2.938  0.0588 -0.7834 -0.2718
19854TIP3    H180977   5.714   6.501   2.954  2.8998 -3.8673 -0.5087
19854TIP3    H280978   5.570   6.497   2.906  2.0207  2.5155  0.6499
19855TIP3   OH280979   6.129   6.732   5.631 -0.2467  0.5134 -0.2800
19855TIP3    H180980   6.052   6.724   5.687  0.9986  0.7836  1.5549
19855TIP3    H280981   6.146   6.643   5.600 -0.3454  0.1497  0.6766
19856TIP3   OH280982   4.586   1.034  14.383 -0.0435  0.3832  0.4448
19856TIP3    H180983   4.502   1.003  14.347  0.3414 -1.3408  0.9495
19856TIP3    H280984   4.633   1.068  14.306 -0.2211 -0.9581 -0.2905
19857TIP3   OH280985   0.871   0.200   2.224 -0.2783  0.5253 -0.0383
19857TIP3    H180986   0.927   0.135   2.265 -0.2717  0.7509  0.3153
19857TIP3    H280987   0.859   0.267   2.291 -0.0527  1.0264 -0.4972
19858TIP3   OH280988   0.889   0.173  16.173  0.5999  0.0668  0.1492
19858TIP3    H180989   0.797   0.169  16.149  0.5312  0.6883  0.2976
19858TIP3    H280990   0.898   0.256  16.220  1.4833  0.6106 -0.9230
19859TIP3   OH280991   3.266   1.347  11.736 -0.1305 -0.3525  0.7011
19859TIP3    H180992   3.328   1.420  11.733  0.7136 -0.9170  2.8174
19859TIP3    H280993   3.190   1.381  11.783  1.4239 -1.4694  4.4489
19860TIP3   OH280994   5.562   4.234  15.946 -0.1411  0.0625 -0.2723
19860TIP3    H180995   5.638   4.207  15.895  0.6519 -0.0246  0.9067
19860TIP3    H280996   5.505   4.158  15.947 -0.8706  0.5415 -2.2378
19861TIP3   OH280997   2.133   5.605  15.622 -0.1919 -0.2350  0.4437
19861TIP3    H180998   2.169   5.688  15.654  1.8218 -1.5033  1.6858
19861TIP3    H280999   2.097   5.626  15.536  2.3534  1.4951 -0.3192
19862TIP3   OH281000   4.055   2.978  16.560  0.0201 -0.2041  0.3907
19862TIP3    H181001   4.132   2.977  16.617  1.2683  2.9627 -0.9797
19862TIP3    H281002   3.981   2.965  16.619  1.4327  0.0190  2.3004
19863TIP3   OH281003   5.697   3.631  11.310  0.8769  0.5934  0.2983
19863TIP3    H181004   5.676   3.571  11.382 -0.1058  0.8110  0.2092
19863TIP3    H281005   5.683   3.579  11.231  1.6217  0.4582  0.2465
19864TIP3   OH281006   1.957   3.541   2.755 -0.3087 -0.1648 -0.3230
19864TIP3    H181007   2.007   3.468   2.719  0.7203 -0.2984  1.2694
19864TIP3    H281008   1.968   3.612   2.692  3.8999  0.5661  0.9347
19865TIP3   OH281009   1.837   2.596   1.634  0.1408 -0.3431  0.1176
19865TIP3    H181010   1.873   2.680   1.664 -1.5702  0.3657  0.3188
19865TIP3    H281011   1.913   2.548   1.602  1.1345  1.4448 -0.3870
19866TIP3   OH281012   2.802   1.252  12.603 -0.2959 -0.1160  0.3334
19866TIP3    H181013   2.825   1.341  12.630  0.0309  0.1734 -0.8164
19866TIP3    H281014   2.833   1.246  12.512  0.2767 -1.6274  0.5941
19867TIP3   OH281015   3.337   5.882   4.234 -0.2640  0.5208 -0.0476
19867TIP3    H181016   3.403   5.941   4.196 -0.3594  1.1166  0.6967
19867TIP3    H281017   3.388   5.807   4.264  0.1689  1.1584  0.9003
19868TIP3   OH281018   2.371   4.422   1.338 -0.2743  0.5727 -0.2013
19868TIP3    H181019   2.406   4.505   1.373  2.3868 -0.6856  0.4203
19868TIP3    H281020   2.381   4.430   1.243 -2.3179  1.8318 -0.3775
19869TIP3   OH281021   5.562   3.989  16.266 -0.2042 -0.1837  0.0212
19869TIP3    H181022   5.613   4.018  16.190  0.4028 -0.4898  0.3087
19869TIP3    H281023   5.498   3.928  16.230  0.2746 -0.5574 -0.2125
19870TIP3   OH281024   1.590   5.771  13.438 -0.3369  0.1757  0.4073
19870TIP3    H181025   1.645   5.842  13.405 -0.2223 -0.2413 -0.3173
19870TIP3    H281026   1.595   5.703  13.371 -0.5827 -0.4539  1.0097
19871TIP3   OH281027   3.661   3.434   6.277  0.2722  0.8247 -0.3410
19871TIP3    H181028   3.738   3.470   6.320  0.7053  0.0010 -0.4122
19871TIP3    H281029   3.640   3.497   6.208  1.3039  0.7080 -0.7728
19872TIP3   OH281030   4.496   3.733  12.804  0.1332  0.6514  0.0923
19872TIP3    H181031   4.563   3.674  12.839 -1.1752 -0.1161  1.4011
19872TIP3    H281032   4.518   3.819  12.840  0.6154  0.4745  0.2210
19873TIP3   OH281033   5.207   5.927  12.915  0.0910 -0.3383 -0.4873
19873TIP3    H181034   5.160   6.011  12.912  0.1664 -0.3223 -1.9076
19873TIP3    H281035   5.281   5.939  12.856 -0.7303 -1.8711 -1.9155
19874TIP3   OH281036   1.082   3.562  12.901  0.1280  0.4790  0.4338
19874TIP3    H181037   0.987   3.569  12.904  0.1410  0.5941  0.5874
19874TIP3    H281038   1.113   3.625  12.966  0.2808 -0.2632  1.1066
19875TIP3   OH281039   2.367   5.998  12.727  0.0518  0.1404 -0.2603
19875TIP3    H181040   2.279   5.973  12.757  0.0835 -0.5773 -0.7412
19875TIP3    H281041   2.423   5.925  12.754  0.7082  1.0515  0.9608
19876TIP3   OH281042   6.222   2.581   2.545  0.7732  0.5496 -0.5324
19876TIP3    H181043   6.195   2.665   2.583  1.0316  0.3260  0.1462
19876TIP3    H281044   6.307   2.600   2.504  1.2734  0.4146  0.4122
19877TIP3   OH281045   1.387   3.668   5.349 -1.0183 -0.2586  0.3193
19877TIP3    H181046   1.325   3.598   5.371 -0.9068 -1.1187 -1.8739
19877TIP3    H281047   1.430   3.688   5.432 -2.7978 -1.0457  1.4959
19878TIP3   OH281048   3.957   3.460   1.542  0.5568  0.0086  0.0641
19878TIP3    H181049   3.885   3.517   1.516 -0.0856 -1.5687 -1.9125
19878TIP3    H281050   4.035   3.516   1.537 -0.3398  1.3655  0.8230
19879TIP3   OH281051   1.249   0.706   1.246  0.1167 -0.1985 -0.9829
19879TIP3    H181052   1.278   0.718   1.337 -1.7685 -0.0054 -0.3553
19879TIP3    H281053   1.296   0.628   1.216  1.0347 -0.0639  0.0353
19880TIP3   OH281054   6.083   1.561  14.023  0.7291 -0.3771 -0.1667
19880TIP3    H181055   6.041   1.645  14.004 -0.4365 -0.9995 -0.4634
19880TIP3    H281056   6.059   1.505  13.950 -0.4657 -1.6335  1.1174
19881TIP3   OH281057   5.759   5.988   6.347  0.0513  0.3182  0.3231
19881TIP3    H181058   5.738   6.049   6.276 -0.5868  0.7692  0.8758
19881TIP3    H281059   5.817   5.924   6.308  1.0729  1.5075 -0.1838
19882TIP3   OH281060   5.169   5.002  14.368  0.2467 -0.6296 -0.0904
19882TIP3    H181061   5.092   5.053  14.346  1.2276  1.2691  0.5744
19882TIP3    H281062   5.182   4.943  14.294 -1.0036  0.0270 -0.8590
19883TIP3   OH281063   6.467   0.576   4.068  0.3041  0.5664  0.1131
19883TIP3    H181064   6.453   0.573   4.162  0.0873  0.1427  0.0718
19883TIP3    H281065   6.428   0.658   4.039 -1.1693 -0.0965  0.1464
19884TIP3   OH281066   6.206   0.221   6.131 -0.4798 -0.3462  0.5619
19884TIP3    H181067   6.214   0.156   6.202  0.4748  1.5216  2.2531
19884TIP3    H281068   6.292   0.221   6.090 -0.0194  0.7894  1.4735
19885TIP3   OH281069   0.461   4.676   1.574 -0.0604  0.0249  0.3748
19885TIP3    H181070   0.489   4.707   1.660  0.1409  0.7349  0.0631
19885TIP3    H281071   0.507   4.734   1.512 -0.3507 -0.3549 -0.2006
19886TIP3   OH281072   0.502   3.617   3.738  0.2757  0.2081 -0.0341
19886TIP3    H181073   0.571   3.672   3.775  1.0223 -0.3687 -0.5541
19886TIP3    H281074   0.465   3.669   3.667  0.9058  0.0951 -0.4521
19887TIP3   OH281075   4.789   2.657  16.393  0.0054 -0.1569  0.2829
19887TIP3    H181076   4.880   2.629  16.398  0.8091  1.6340 -2.3006
19887TIP3    H281077   4.770   2.662  16.299 -1.8011  2.3536  0.6708
19888TIP3   OH281078   3.463   1.351   4.555 -0.2704  0.1640 -0.0436
19888TIP3    H181079   3.530   1.367   4.621 -0.3722  1.3537 -0.2106
19888TIP3    H281080   3.486   1.265   4.518  1.2493  0.6006 -0.1946
19889TIP3   OH281081   2.317   6.545   2.800 -0.1137  0.3526  0.0815
19889TIP3    H181082   2.356   6.572   2.717  0.3560 -0.0837  0.1542
19889TIP3    H281083   2.231   6.587   2.801 -0.9003 -1.0780 -1.4888
19890TIP3   OH281084   5.326   5.051  14.646 -0.0730  0.3903 -0.5847
19890TIP3    H181085   5.282   5.129  14.613  0.4741  0.6415 -0.7307
19890TIP3    H281086   5.381   5.022  14.574 -1.4313 -1.0460 -1.0872
19891TIP3   OH281087   3.291   3.840   3.070  0.4609 -0.2232  0.5555
19891TIP3    H181088   3.333   3.873   3.150  0.9574  1.6296 -0.4300
19891TIP3    H281089   3.210   3.890   3.062  1.0765  0.6102 -0.8004
19892TIP3   OH281090   4.813   3.312  11.993 -0.0483  0.1469  0.1915
19892TIP3    H181091   4.842   3.266  11.914 -1.9715  0.9925 -1.0963
19892TIP3    H281092   4.893   3.338  12.038  1.0989 -0.2342 -1.5689
19893TIP3   OH281093   4.079   2.132  15.270  0.1180  0.2136 -0.3698
19893TIP3    H181094   4.170   2.104  15.281  0.5036  1.6817  0.4586
19893TIP3    H281095   4.076   2.170  15.182 -0.2460 -1.6955 -1.2322
19894TIP3   OH281096   5.977   0.044  13.276  0.2374  0.6745  0.3018
19894TIP3    H181097   5.999  -0.004  13.357 -0.3440  0.2407  0.2087
19894TIP3    H281098   6.010  -0.013  13.206  1.0862  1.2311  0.2338
19895TIP3   OH281099   5.500   6.087  14.566 -0.4919 -0.5028 -0.1207
19895TIP3    H181100   5.465   6.001  14.589  0.0553 -1.1867 -1.6701
19895TIP3    H281101   5.587   6.089  14.606 -1.5444  0.4972  2.2657
19896TIP3   OH281102   6.387   1.693   0.671  0.1055  0.3259 -0.7340
19896TIP3    H181103   6.475   1.658   0.653  0.0413 -0.7305  0.8118
19896TIP3    H281104   6.386   1.778   0.626  2.0417  0.5129 -0.5306
19897TIP3   OH281105   0.053   5.658   2.931  0.0034  0.1540  0.2075
19897TIP3    H181106   0.062   5.751   2.952 -0.5496  0.5414 -1.1400
19897TIP3    H281107  -0.041   5.644   2.923  0.1303 -0.1793 -0.9326
19898TIP3   OH281108   5.400   5.220  11.401 -0.0127  0.2320 -0.2592
19898TIP3    H181109   5.444   5.158  11.460 -0.2331 -0.4841 -0.8431
19898TIP3    H281110   5.399   5.176  11.316 -1.7856  0.2605 -0.2792
19899TIP3   OH281111   0.665   3.938   2.597 -0.1855  0.1227 -0.5249
19899TIP3    H181112   0.581   3.913   2.637  0.5507  0.5359  1.4159
19899TIP3    H281113   0.664   4.034   2.597 -0.2692  0.1307 -1.7790
19900TIP3   OH281114   6.052   4.469  11.684  0.1690  0.5050  0.5487
19900TIP3    H181115   5.960   4.456  11.710 -0.3933  0.8695 -1.1489
19900TIP3    H281116   6.102   4.419  11.749 -1.3243 -1.1246  0.5383
19901TIP3   OH281117   1.628   4.267  11.449 -0.4051  0.2982  0.6567
19901TIP3    H181118   1.683   4.199  11.488 -1.0859 -1.6612 -1.5704
19901TIP3    H281119   1.677   4.348  11.462  1.7959 -1.0078  0.9473
19902TIP3   OH281120   3.144   3.529   4.514 -0.3353  0.1671 -0.2168
19902TIP3    H181121   3.204   3.477   4.568 -1.8415  0.0868  1.4937
19902TIP3    H281122   3.193   3.607   4.491  0.3893  0.1998  1.3056
19903TIP3   OH281123   6.115   4.870  10.808  0.1976 -0.1832  0.2383
19903TIP3    H181124   6.193   4.837  10.763 -1.0931 -2.3382 -0.5858
19903TIP3    H281125   6.119   4.831  10.895  0.6171  0.6680  0.6096
19904TIP3   OH281126   4.725   4.439  15.379 -0.2381 -0.1577 -0.1682
19904TIP3    H181127   4.803   4.466  15.428 -0.9022  0.1914  0.7270
19904TIP3    H281128   4.747   4.353  15.344  0.3325 -0.3366  0.5930
19905TIP3   OH281129   2.764   5.865   1.858 -0.3673 -0.8396  0.3811
19905TIP3    H181130   2.733   5.886   1.770  3.2208  1.7486 -0.4532
19905TIP3    H281131   2.717   5.925   1.915  0.6940  0.8260 -0.4371
19906TIP3   OH281132   4.283   5.376  13.622  0.0393 -0.2921  0.9255
19906TIP3    H181133   4.336   5.445  13.581 -1.7289  2.0395  2.3448
19906TIP3    H281134   4.305   5.381  13.715 -0.9363 -0.9046  1.2025
19907TIP3   OH281135   1.259   0.862   4.550 -0.0958  0.1547 -0.2408
19907TIP3    H181136   1.169   0.892   4.542  0.1269  0.5487 -1.2916
19907TIP3    H281137   1.307   0.938   4.581 -0.5547 -0.7593  3.1957
19908TIP3   OH281138   3.589   1.272   0.830  0.3586  0.6212  0.4006
19908TIP3    H181139   3.648   1.345   0.812  2.3183 -0.6887  1.1182
19908TIP3    H281140   3.501   1.310   0.826  1.2485  2.7598 -0.2818
19909TIP3   OH281141   1.098   1.807  15.163  0.5764  0.4467  0.7540
19909TIP3    H181142   1.087   1.789  15.070 -0.6772 -0.7060  1.0854
19909TIP3    H281143   1.186   1.776  15.184  1.1340  1.3587 -0.1690
19910TIP3   OH281144   6.354   3.559  15.554  0.4232 -0.7031 -0.0882
19910TIP3    H181145   6.377   3.623  15.621 -1.2580 -0.6640  0.4832
19910TIP3    H281146   6.287   3.601  15.501 -0.7383 -1.9595  0.3160
19911TIP3   OH281147   5.772   3.401   0.614  0.4249  0.4018 -0.1086
19911TIP3    H181148   5.851   3.410   0.667  0.0050  0.6146  0.4793
19911TIP3    H281149   5.757   3.488   0.578  1.0576  0.1255 -1.0924
19912TIP3   OH281150   2.258   3.720  11.964  0.0032  0.1696  0.3501
19912TIP3    H181151   2.192   3.749  12.026  0.9394  0.9293  1.0389
19912TIP3    H281152   2.212   3.662  11.904 -2.0958  3.2409 -1.2711
19913TIP3   OH281153   6.038   6.255  11.630  0.7222 -0.3519 -0.0075
19913TIP3    H181154   5.963   6.270  11.572  2.8538  0.1030 -2.8821
19913TIP3    H281155   6.048   6.159  11.632  2.0865 -0.3568 -2.6259
19914TIP3   OH281156   1.569   3.889   3.436  0.3107 -0.4468 -0.2459
19914TIP3    H181157   1.623   3.904   3.358 -1.0035  0.7710 -0.9864
19914TIP3    H281158   1.479   3.891   3.402 -0.2357 -1.7080  1.0475
19915TIP3   OH281159   5.311   3.855  15.219 -0.3081 -0.2753 -0.0547
19915TIP3    H181160   5.381   3.803  15.179 -1.0987 -0.9558 -0.5754
19915TIP3    H281161   5.254   3.790  15.260 -0.0216  0.3411  1.4112
19916TIP3   OH281162   3.127   3.459  10.683  0.2388  0.2527 -0.4225
19916TIP3    H181163   3.167   3.536  10.725  0.9263 -0.3729  0.0935
19916TIP3    H281164   3.174   3.450  10.600 -0.2198  0.7086 -0.7382
19917TIP3   OH281165   0.531   0.902  12.150  0.6826  0.1649 -0.1856
19917TIP3    H181166   0.612   0.916  12.198 -0.0048 -0.8241  1.3086
19917TIP3    H281167   0.464   0.947  12.201  0.0773 -0.0849 -0.7386
19918TIP3   OH281168   1.250   6.711   4.040  0.2296  0.2407 -0.0573
19918TIP3    H181169   1.175   6.737   3.987  0.5908 -0.6991 -1.0617
19918TIP3    H281170   1.242   6.616   4.048  2.7205 -0.3215 -2.5421
19919TIP3   OH281171   3.516   0.245   4.245 -0.0899  0.0187 -0.5748
19919TIP3    H181172   3.591   0.186   4.252 -2.3266 -3.0885 -0.7380
19919TIP3    H281173   3.496   0.248   4.151 -0.9616 -0.3254 -0.4161
19920TIP3   OH281174   4.540   6.672   0.162  0.3868  0.2742  0.2209
19920TIP3    H181175   4.485   6.693   0.237 -0.5292 -1.3174  0.0414
19920TIP3    H281176   4.502   6.591   0.126  0.4259  1.2775 -2.3035
19921TIP3   OH281177   0.403   6.652   0.324 -0.0959  0.0183 -0.4582
19921TIP3    H181178   0.458   6.574   0.328  0.2252  0.2618  0.0065
19921TIP3    H281179   0.422   6.692   0.239 -0.4366 -0.5335 -0.7975
19922TIP3   OH281180   5.449   1.162  16.161 -0.4241 -0.2230  0.9683
19922TIP3    H181181   5.503   1.091  16.193 -0.6644 -0.1882  1.4630
19922TIP3    H281182   5.454   1.230  16.229  1.8631  1.3404 -0.6145
19923TIP3   OH281183   2.351   5.480  12.655 -0.0561  1.0650 -0.0376
19923TIP3    H181184   2.408   5.411  12.688  0.1025  0.5484 -1.3386
19923TIP3    H281185   2.316   5.522  12.734  0.3829 -0.0471  0.7758
19924TIP3   OH281186   1.545   6.560  14.201  0.0319 -0.6510 -0.2835
19924TIP3    H181187   1.626   6.519  14.231 -0.1966 -2.8116 -2.2743
19924TIP3    H281188   1.506   6.597  14.280  1.8057 -1.6294  1.1341
19925TIP3   OH281189   2.226   1.890   5.746  0.3603  0.1001  0.6233
19925TIP3    H181190   2.298   1.952   5.750 -1.4258  2.2185  2.5139
19925TIP3    H281191   2.149   1.942   5.723 -0.9237 -1.7601  0.3980
19926TIP3   OH281192   1.659   4.096   4.873 -0.1380 -0.4654  0.4808
19926TIP3    H181193   1.743   4.070   4.909 -0.5308 -1.9903  0.3504
19926TIP3    H281194   1.656   4.058   4.785 -0.2773  1.0052 -0.1831
19927TIP3   OH281195   3.814   1.936   5.648  0.0367 -0.0394 -0.9759
19927TIP3    H181196   3.823   2.030   5.662  0.3654 -0.0224 -1.2829
19927TIP3    H281197   3.794   1.901   5.735 -0.9113  0.4037 -1.0053
19928TIP3   OH281198   3.988   2.851   6.747 -0.0588  0.1034 -0.3700
19928TIP3    H181199   3.895   2.842   6.727 -0.3444 -1.7688  1.4762
19928TIP3    H281200   3.992   2.926   6.808 -0.6123 -0.7952  0.8069
19929TIP3   OH281201   6.304   5.983   5.810 -0.4235  0.3419 -0.2013
19929TIP3    H181202   6.295   6.078   5.803 -1.6407  0.2132 -0.7087
19929TIP3    H281203   6.257   5.960   5.890  0.1608  0.2058  0.1005
19930TIP3   OH281204   5.270   3.818   2.241  0.4614 -0.5002 -0.3899
19930TIP3    H181205   5.234   3.882   2.180  0.5563  0.6321  0.6840
19930TIP3    H281206   5.194   3.781   2.285  0.4386  2.0165  2.0034
19931TIP3   OH281207   1.097   6.422  15.799  0.1150 -0.1589  0.1680
19931TIP3    H181208   1.174   6.478  15.808 -0.3542  0.2290  2.0896
19931TIP3    H281209   1.034   6.475  15.750 -0.4719  1.2291  2.2954
19932TIP3   OH281210   3.251   3.796  11.606  1.1754 -0.5432 -0.4224
19932TIP3    H181211   3.279   3.868  11.662 -0.6308 -0.2253  0.1218
19932TIP3    H281212   3.332   3.752  11.581  2.3466  1.7816 -0.9433
19933TIP3   OH281213   5.378   1.136   2.818  0.2635 -0.2463 -0.2887
19933TIP3    H181214   5.433   1.144   2.896  1.0979 -2.0747 -0.6326
19933TIP3    H281215   5.434   1.092   2.753 -0.9276 -0.2244 -1.3773
19934TIP3   OH281216   4.185   2.113   0.792 -0.0509  0.1491 -0.4144
19934TIP3    H181217   4.090   2.110   0.796 -0.0891  1.3514  0.1212
19934TIP3    H281218   4.205   2.113   0.698 -0.4006 -2.9432 -0.5788
19935TIP3   OH281219   4.122   5.011  12.994  0.3503  0.1466 -0.6376
19935TIP3    H181220   4.137   4.986  13.085  2.1432 -0.0181 -0.9471
19935TIP3    H281221   4.126   5.107  12.995  1.7427  0.1118 -0.7256
19936TIP3   OH281222   5.893   6.698  16.327  0.4738 -0.2007  0.6709
19936TIP3    H181223   5.883   6.793  16.332  1.1883 -0.1129  0.4331
19936TIP3    H281224   5.844   6.673  16.248  0.6744  0.0225  0.4753
19937TIP3   OH281225   1.654   3.829   5.155 -1.0474  0.3872  0.4411
19937TIP3    H181226   1.635   3.870   5.239  1.7500  1.7425  0.5366
19937TIP3    H281227   1.746   3.803   5.161 -1.0733 -0.5133 -1.8198
19938TIP3   OH281228   4.644   1.556  14.902  0.5103  0.3853 -0.3205
19938TIP3    H181229   4.588   1.541  14.978  2.2953 -3.6604  0.4621
19938TIP3    H281230   4.719   1.605  14.936  0.1554  0.7772 -0.0938
19939TIP3   OH281231   6.397   3.389  13.038  0.5811 -0.1058  0.1989
19939TIP3    H181232   6.431   3.470  13.076 -0.2548 -0.2394  1.2620
19939TIP3    H281233   6.475   3.338  13.015  1.1703  1.4608 -1.6067
19940TIP3   OH281234   0.296   0.632   1.266  0.4469 -0.0278  0.0829
19940TIP3    H181235   0.230   0.671   1.208  1.8971  0.5481 -1.2748
19940TIP3    H281236   0.302   0.541   1.238 -2.0112 -1.0063  2.3845
19941TIP3   OH281237   5.567   4.408   0.063 -0.1832 -0.0976  0.2932
19941TIP3    H181238   5.600   4.497   0.073  1.1600 -0.6990  1.8159
19941TIP3    H281239   5.512   4.410  -0.015 -0.3316  2.0908  0.4103
19942TIP3   OH281240   0.448   5.520  15.568 -0.2127 -0.0041  0.7661
19942TIP3    H181241   0.405   5.475  15.640  1.3916 -1.4861  0.8431
19942TIP3    H281242   0.483   5.600  15.607  1.1473 -1.0693  1.8075
19943TIP3   OH281243   5.059   0.081  15.503 -0.1762 -0.4844 -0.1344
19943TIP3    H181244   5.099   0.139  15.438  1.9305 -1.3587  0.2934
19943TIP3    H281245   5.021   0.140  15.568 -0.7119  0.3855 -1.2000
19944TIP3   OH281246   2.754   6.216   5.948 -0.0698  0.0769  0.0265
19944TIP3    H181247   2.753   6.283   6.017  0.3133 -1.3566  1.4721
19944TIP3    H281248   2.668   6.175   5.954 -0.3528  0.4750 -0.9494
19945TIP3   OH281249   3.611   1.378   3.157 -0.4031  0.5666  0.3344
19945TIP3    H181250   3.638   1.344   3.243 -1.0258 -1.5175 -0.2487
19945TIP3    H281251   3.693   1.392   3.110 -0.1299 -0.2549  0.5587
19946TIP3   OH281252   0.098   0.193   2.531 -0.2561  0.0587  0.6570
19946TIP3    H181253   0.156   0.172   2.458 -0.7087  0.5112  0.1586
19946TIP3    H281254   0.116   0.285   2.549 -0.3743  0.0317  0.9080
19947TIP3   OH281255   2.242   1.819  13.743 -0.0679  0.3646 -0.3874
19947TIP3    H181256   2.303   1.858  13.807  0.0069 -0.5240  0.0963
19947TIP3    H281257   2.211   1.739  13.786 -1.4604  0.7172 -0.6947
19948TIP3   OH281258   0.830   6.523   4.483  0.3292  0.2522 -0.7299
19948TIP3    H181259   0.895   6.544   4.551 -0.2887  0.9850 -0.3492
19948TIP3    H281260   0.873   6.545   4.401  0.9094 -0.1834 -0.5512
19949TIP3   OH281261   0.878   0.304   3.589 -0.5421  0.0184  0.2727
19949TIP3    H181262   0.857   0.364   3.517 -0.7383 -0.8779 -0.4244
19949TIP3    H281263   0.920   0.360   3.654  0.9276  0.6171 -1.1105
19950TIP3   OH281264   2.968   1.104  15.082  0.3865 -0.6188  0.3027
19950TIP3    H181265   3.034   1.164  15.047 -0.2215  0.2202  0.5644
19950TIP3    H281266   2.884   1.144  15.059 -0.0397 -1.6208  0.0666
19951TIP3   OH281267   1.265   2.177  13.618  0.1331 -0.4738 -0.4369
19951TIP3    H181268   1.360   2.186  13.622  0.1799 -0.2388 -1.6937
19951TIP3    H281269   1.250   2.087  13.590  0.0001 -0.4349 -0.4962
19952TIP3   OH281270   0.674   0.173   3.725 -0.9003  0.4206  0.2151
19952TIP3    H181271   0.741   0.240   3.715  1.2799 -1.4452  1.4261
19952TIP3    H281272   0.597   0.220   3.757  0.2290  2.4721  0.0345
19953TIP3   OH281273   6.023   2.737   4.750 -0.4745  0.5202  0.2913
19953TIP3    H181274   6.092   2.742   4.817  1.5964 -0.6240 -1.6156
19953TIP3    H281275   5.982   2.652   4.764  1.9269 -1.0649 -1.5573
19954TIP3   OH281276   6.390   5.556  10.625 -0.0068 -0.5053 -0.0684
19954TIP3    H181277   6.358   5.472  10.593 -2.9012 -0.3017  1.8947
19954TIP3    H281278   6.372   5.555  10.719  1.4484  1.6846  0.3295
19955TIP3   OH281279   0.598   1.601  15.262  0.3784 -0.1589  0.2329
19955TIP3    H181280   0.666   1.545  15.226  1.6692  1.3477  0.2137
19955TIP3    H281281   0.614   1.601  15.357 -0.5882 -1.0268  0.4137
19956TIP3   OH281282   1.934   5.249   1.380 -0.1503 -0.4864  0.0228
19956TIP3    H181283   1.955   5.318   1.317 -0.2102 -0.3619  0.1383
19956TIP3    H281284   1.958   5.168   1.336  1.8668 -0.2882  0.6564
19957TIP3   OH281285   3.649   5.224   3.791 -0.0095  0.1741  0.2870
19957TIP3    H181286   3.735   5.197   3.824  0.7981  1.0690 -0.9768
19957TIP3    H281287   3.642   5.316   3.814 -1.3194 -0.2407  1.7012
19958TIP3   OH281288   2.477   5.045   0.096 -0.6580 -0.0400  0.0479
19958TIP3    H181289   2.484   4.960   0.054 -0.3081  0.8447 -1.7801
19958TIP3    H281290   2.397   5.083   0.060 -0.1217  0.9217 -0.1622
19959TIP3   OH281291   6.346   3.304  12.449  0.2889  0.6099  0.3624
19959TIP3    H181292   6.368   3.221  12.408 -0.4136  0.4726  0.2415
19959TIP3    H281293   6.380   3.371  12.391  0.2695  0.4070  0.1187
19960TIP3   OH281294   1.453   0.657   2.044  0.0791  0.0424  0.1448
19960TIP3    H181295   1.357   0.657   2.042 -0.0281  2.5504 -2.7234
19960TIP3    H281296   1.476   0.731   2.100  0.3805 -0.6134  0.9077
19961TIP3   OH281297   1.976   0.791   0.192  0.4364  0.0611 -0.3880
19961TIP3    H181298   1.993   0.876   0.234  0.7816  0.5716 -1.5227
19961TIP3    H281299   1.920   0.812   0.118  0.3470 -0.7373 -0.5511
19962TIP3   OH281300   0.452   4.137  12.883 -1.0274 -0.3192  0.0571
19962TIP3    H181301   0.433   4.228  12.905  2.4871 -0.1144  3.1192
19962TIP3    H281302   0.389   4.086  12.935 -0.8046  0.3457  0.9931
19963TIP3   OH281303   1.890   2.035  16.867 -0.1436  0.7463  0.4812
19963TIP3    H181304   1.871   2.085  16.947 -0.9669 -1.5372  1.7903
19963TIP3    H281305   1.967   1.983  16.889 -0.5459 -0.1138 -0.1108
19964TIP3   OH281306   4.181   4.059  11.885 -0.5737 -0.0578  0.0201
19964TIP3    H181307   4.165   3.967  11.903 -0.0201  0.0162  0.9866
19964TIP3    H281308   4.258   4.081  11.938  0.8857  0.3396 -2.1615
19965TIP3   OH281309   5.082   4.604   5.340 -0.6385 -0.0320  0.1769
19965TIP3    H181310   5.003   4.649   5.370 -0.2349 -0.3382  1.8385
19965TIP3    H281311   5.152   4.668   5.351 -0.3374 -0.4591  0.8162
19966TIP3   OH281312   0.435   5.902  10.415 -0.1161 -0.5942 -0.0404
19966TIP3    H181313   0.359   5.950  10.448 -0.8300 -2.3737  1.0762
19966TIP3    H281314   0.403   5.812  10.404  1.3905 -1.0175 -1.2046
19967TIP3   OH281315   0.050   2.469  14.271  0.0678  0.2265  0.9371
19967TIP3    H181316   0.105   2.533  14.225  0.7802 -0.0242  1.4082
19967TIP3    H281317   0.031   2.402  14.206  0.2479  0.3640  0.7411
19968TIP3   OH281318   2.825   0.279   5.232 -0.0569  0.0112  0.1309
19968TIP3    H181319   2.769   0.202   5.223  0.1943 -0.1278 -0.2669
19968TIP3    H281320   2.891   0.269   5.163 -0.4403  0.9368 -0.3878
19969TIP3   OH281321   4.417   2.489  17.210 -0.1781 -0.2258  0.3170
19969TIP3    H181322   4.391   2.421  17.148  0.2841 -0.4709  0.3890
19969TIP3    H281323   4.341   2.547  17.216 -0.8373 -1.1375  0.8267
19970TIP3   OH281324   0.961   1.943  12.125 -0.1096  0.9065  0.0372
19970TIP3    H181325   1.024   1.944  12.197 -0.7915  0.2558  0.6692
19970TIP3    H281326   0.880   1.912  12.165 -0.3546 -0.0346 -1.1228
19971TIP3   OH281327   3.633   2.779  16.902  0.2299 -0.4173 -0.1897
19971TIP3    H181328   3.729   2.776  16.899  0.2806 -0.8699  1.3280
19971TIP3    H281329   3.613   2.872  16.912  0.4633 -0.2482 -1.1332
19972TIP3   OH281330   1.794   3.422   1.004  0.1424  0.7677 -0.0016
19972TIP3    H181331   1.813   3.328   1.005 -0.7339  0.5417 -1.8625
19972TIP3    H281332   1.729   3.434   1.073 -1.8291 -0.5081 -1.5372
19973TIP3   OH281333   0.376   6.486   1.792  0.0145  0.3297  0.0331
19973TIP3    H181334   0.351   6.531   1.711 -0.5175  0.5597  0.3189
19973TIP3    H281335   0.419   6.553   1.844 -2.1695  0.9884  1.1184
19974TIP3   OH281336   6.733   5.963   3.365 -0.3102  0.1526 -0.9509
19974TIP3    H181337   6.670   5.989   3.432 -0.2256 -0.0332 -0.7976
19974TIP3    H281338   6.818   5.987   3.402 -0.3210  0.9029 -1.3842
19975TIP3   OH281339   2.397   5.746   5.878 -0.3236 -0.0474  0.3733
19975TIP3    H181340   2.434   5.784   5.958  0.9389 -0.0437 -0.1909
19975TIP3    H281341   2.411   5.813   5.811  0.2982 -0.7753 -0.2413
19976TIP3   OH281342   6.584   3.748   5.433 -0.2997 -0.2028  0.6674
19976TIP3    H181343   6.548   3.724   5.348 -0.2290  0.1734  0.5279
19976TIP3    H281344   6.591   3.666   5.481  0.3830 -0.5176  0.0395
19977TIP3   OH281345   6.022   4.580   4.735  0.3868 -0.8189  0.6568
19977TIP3    H181346   5.928   4.588   4.749  0.5775 -1.1041  2.2500
19977TIP3    H281347   6.057   4.667   4.755  0.2138  0.1668 -2.7443
19978TIP3   OH281348   0.744   4.671  16.761 -0.1411  0.0168 -0.0569
19978TIP3    H181349   0.809   4.708  16.701  0.3385  0.9924  1.0313
19978TIP3    H281350   0.682   4.742  16.775 -2.8769 -1.5741 -2.9052
19979TIP3   OH281351   6.701   6.346  13.982  0.2539 -0.2530  0.1939
19979TIP3    H181352   6.652   6.333  14.064 -0.7555  1.2146 -0.1278
19979TIP3    H281353   6.647   6.303  13.916 -0.2920  0.8060 -0.0656
19980TIP3   OH281354   4.426   2.156  13.681 -0.4698  0.3720 -0.2091
19980TIP3    H181355   4.417   2.153  13.776  2.6561  1.0658  0.2333
19980TIP3    H281356   4.498   2.217  13.665 -0.0672 -0.6223 -2.9415
19981TIP3   OH281357   2.425   4.649   5.834  0.3364  0.2627 -0.1885
19981TIP3    H181358   2.486   4.626   5.904 -0.4159 -0.0355  0.3832
19981TIP3    H281359   2.468   4.722   5.788  1.4465 -0.4210 -0.2649
19982TIP3   OH281360   5.291   2.777   5.745 -0.5427 -0.2522  0.2745
19982TIP3    H181361   5.350   2.707   5.716 -0.4738 -0.2089  0.3119
19982TIP3    H281362   5.229   2.787   5.672  1.1660  1.6290 -1.0290
19983TIP3   OH281363   1.424   3.172  11.314  0.1471 -0.1056 -0.2165
19983TIP3    H181364   1.440   3.259  11.277  0.0943 -0.2079 -0.4790
19983TIP3    H281365   1.330   3.169  11.331  0.4493  0.7556  1.9801
19984TIP3   OH281366   4.734   1.328   5.906 -0.5440  0.3214  0.1218
19984TIP3    H181367   4.732   1.418   5.873  1.8436  1.0384  1.7381
19984TIP3    H281368   4.795   1.330   5.979  1.0217 -3.0042 -0.9163
19985TIP3   OH281369   2.243   1.994  12.044 -0.1023  0.1991 -0.1073
19985TIP3    H181370   2.209   2.076  12.007  1.0475  1.1509  0.8320
19985TIP3    H281371   2.253   2.013  12.138 -1.1880 -1.5239  0.3938
19986TIP3   OH281372   5.322   1.887   3.727  0.2772  0.2232 -0.5749
19986TIP3    H181373   5.286   1.810   3.683  1.9252 -0.7688 -0.2671
19986TIP3    H281374   5.245   1.931   3.765 -0.7484 -1.0119 -1.1389
19987TIP3   OH281375   0.061   2.001   3.645  0.0995 -0.4820 -0.1777
19987TIP3    H181376   0.063   2.076   3.704 -1.9789 -0.7071  0.2311
19987TIP3    H281377  -0.032   1.981   3.634  0.5556 -2.1248 -1.3964
19988TIP3   OH281378   0.896   0.886   2.207  0.2787 -0.1324 -0.1566
19988TIP3    H181379   0.916   0.821   2.275 -2.7865  0.2800  1.3071
19988TIP3    H281380   0.924   0.969   2.244  0.7307 -0.1718 -0.4061
19989TIP3   OH281381   4.419   6.688   2.533  0.0718 -0.6301  0.2718
19989TIP3    H181382   4.470   6.719   2.608 -0.0300 -1.7961  0.8456
19989TIP3    H281383   4.404   6.595   2.551  0.7334 -1.1353 -1.5887
19990TIP3   OH281384   4.967   4.930   0.729 -0.4126 -0.3497  0.6137
19990TIP3    H181385   5.028   4.936   0.656 -1.0818 -0.0206  0.0688
19990TIP3    H281386   4.928   5.017   0.735 -2.1766 -1.0260 -0.2543
19991TIP3   OH281387   4.256   1.346   0.196 -0.2296  0.1926  0.5479
19991TIP3    H181388   4.268   1.355   0.290 -0.9705  0.8664  0.5815
19991TIP3    H281389   4.339   1.308   0.165 -0.2011 -0.5634  1.5365
19992TIP3   OH281390   4.006   5.253   0.678 -0.4801 -0.0467 -0.3650
19992TIP3    H181391   3.970   5.207   0.753 -1.9454  1.6732  0.0524
19992TIP3    H281392   3.971   5.206   0.602 -1.5808  0.0863  0.0458
19993TIP3   OH281393   4.208   2.199   4.574  0.0982  0.2007  0.5399
19993TIP3    H181394   4.187   2.232   4.487 -0.6046 -0.0909  0.5934
19993TIP3    H281395   4.128   2.212   4.625  0.1067 -0.7137  0.8151
19994TIP3   OH281396   2.943   1.937  13.027 -0.2469  0.2100 -0.1902
19994TIP3    H181397   2.962   1.870  12.960  1.3369 -0.6113  1.0195
19994TIP3    H281398   2.960   2.020  12.982  1.4496 -0.3438 -0.6664
19995TIP3   OH281399   3.390   0.798   0.796 -0.2332 -0.0111 -0.3607
19995TIP3    H181400   3.362   0.766   0.882 -1.9452 -0.2720 -0.9827
19995TIP3    H281401   3.440   0.725   0.759 -0.2619 -0.2454  0.0535
19996TIP3   OH281402   2.037   6.415   0.970 -0.1166  0.3202 -0.1238
19996TIP3    H181403   2.022   6.435   0.877 -1.3056 -0.2528 -0.0750
19996TIP3    H281404   2.062   6.323   0.971  2.2470  0.9138 -0.0632
   6.78697   6.78697  17.23950
